 Entering Gaussian System, Link 0=g16
 Input=1-1-dichloroethene.gjf
 Output=1-1-dichloroethene.log
 Initial command:
 /arc/software/Gaussian/g16.c01/l1.exe "/tmp/slurm/4819110/Gau-1379400.inp" -scrdir="/tmp/slurm/4819110/"
 Entering Link 1 = /arc/software/Gaussian/g16.c01/l1.exe PID=   1379416.
  
 Copyright (c) 1988-2019, Gaussian, Inc.  All Rights Reserved.
  
 This is part of the Gaussian(R) 16 program.  It is based on
 the Gaussian(R) 09 system (copyright 2009, Gaussian, Inc.),
 the Gaussian(R) 03 system (copyright 2003, Gaussian, Inc.),
 the Gaussian(R) 98 system (copyright 1998, Gaussian, Inc.),
 the Gaussian(R) 94 system (copyright 1995, Gaussian, Inc.),
 the Gaussian 92(TM) system (copyright 1992, Gaussian, Inc.),
 the Gaussian 90(TM) system (copyright 1990, Gaussian, Inc.),
 the Gaussian 88(TM) system (copyright 1988, Gaussian, Inc.),
 the Gaussian 86(TM) system (copyright 1986, Carnegie Mellon
 University), and the Gaussian 82(TM) system (copyright 1983,
 Carnegie Mellon University). Gaussian is a federally registered
 trademark of Gaussian, Inc.
  
 This software contains proprietary and confidential information,
 including trade secrets, belonging to Gaussian, Inc.
  
 This software is provided under written license and may be
 used, copied, transmitted, or stored only in accord with that
 written license.
  
 The following legend is applicable only to US Government
 contracts under FAR:
  
                    RESTRICTED RIGHTS LEGEND
  
 Use, reproduction and disclosure by the US Government is
 subject to restrictions as set forth in subparagraphs (a)
 and (c) of the Commercial Computer Software - Restricted
 Rights clause in FAR 52.227-19.
  
 Gaussian, Inc.
 340 Quinnipiac St., Bldg. 40, Wallingford CT 06492
  
  
 ---------------------------------------------------------------
 Warning -- This program may not be used in any manner that
 competes with the business of Gaussian, Inc. or will provide
 assistance to any competitor of Gaussian, Inc.  The licensee
 of this program is prohibited from giving any competitor of
 Gaussian, Inc. access to this program.  By using this program,
 the user acknowledges that Gaussian, Inc. is engaged in the
 business of creating and licensing software in the field of
 computational chemistry and represents and warrants to the
 licensee that it is not a competitor of Gaussian, Inc. and that
 it will not use this program in any manner prohibited above.
 ---------------------------------------------------------------
  

 Cite this work as:
 Gaussian 16, Revision C.01,
 M. J. Frisch, G. W. Trucks, H. B. Schlegel, G. E. Scuseria, 
 M. A. Robb, J. R. Cheeseman, G. Scalmani, V. Barone, 
 G. A. Petersson, H. Nakatsuji, X. Li, M. Caricato, A. V. Marenich, 
 J. Bloino, B. G. Janesko, R. Gomperts, B. Mennucci, H. P. Hratchian, 
 J. V. Ortiz, A. F. Izmaylov, J. L. Sonnenberg, D. Williams-Young, 
 F. Ding, F. Lipparini, F. Egidi, J. Goings, B. Peng, A. Petrone, 
 T. Henderson, D. Ranasinghe, V. G. Zakrzewski, J. Gao, N. Rega, 
 G. Zheng, W. Liang, M. Hada, M. Ehara, K. Toyota, R. Fukuda, 
 J. Hasegawa, M. Ishida, T. Nakajima, Y. Honda, O. Kitao, H. Nakai, 
 T. Vreven, K. Throssell, J. A. Montgomery, Jr., J. E. Peralta, 
 F. Ogliaro, M. J. Bearpark, J. J. Heyd, E. N. Brothers, K. N. Kudin, 
 V. N. Staroverov, T. A. Keith, R. Kobayashi, J. Normand, 
 K. Raghavachari, A. P. Rendell, J. C. Burant, S. S. Iyengar, 
 J. Tomasi, M. Cossi, J. M. Millam, M. Klene, C. Adamo, R. Cammi, 
 J. W. Ochterski, R. L. Martin, K. Morokuma, O. Farkas, 
 J. B. Foresman, and D. J. Fox, Gaussian, Inc., Wallingford CT, 2019.
 
 ******************************************
 Gaussian 16:  ES64L-G16RevC.01  3-Jul-2019
                 6-Apr-2025 
 ******************************************
 %nprocs=16
 Will use up to   16 processors via shared memory.
 %mem=30GB
 %chk=1-1-dichloroethene.chk
 ----------------------------------------------------------------------
 #t hf aug-cc-pvdz symm=none int=(grid=ultrafine) guess=(read,tcheck) s
 table=(opt,rrhf)
 ----------------------------------------------------------------------
 -----
 title
 -----
 Symbolic Z-matrix:
 Charge =  0 Multiplicity = 1
 C                     0.        0.        1.74702 
 C                     0.        0.        0.42551 
 H                     0.        0.93018   2.29388 
 H                     0.       -0.93018   2.29388 
 Cl                    0.        1.45907  -0.51832 
 Cl                    0.       -1.45907  -0.51832 
 
                    Distance matrix (angstroms):
                    1          2          3          4          5
     1  C    0.000000
     2  C    1.321511   0.000000
     3  H    1.079026   2.087117   0.000000
     4  H    1.079026   2.087117   1.860364   0.000000
     5  Cl   2.694556   1.737725   2.861499   3.690119   0.000000
     6  Cl   2.694556   1.737725   3.690119   2.861499   2.918138
                    6
     6  Cl   0.000000
 Symmetry turned off by external request.
 Rotational constants (GHZ):           7.4461746           3.3550315           2.3129038
   118 basis functions,   270 primitive gaussians,   126 cartesian basis functions
    24 alpha electrons       24 beta electrons
       nuclear repulsion energy       189.3842156336 Hartrees.
 NAtoms=    6 NActive=    6 NUniq=    6 SFac= 1.00D+00 NAtFMM=   60 NAOKFM=F Big=F
 ExpMin= 2.97D-02 ExpMax= 1.28D+05 ExpMxC= 1.24D+03 IAcc=3 IRadAn=         5 AccDes= 0.00D+00
 Harris functional with IExCor=  205 and IRadAn=       5 diagonalized for initial guess.
 HarFok:  IExCor=  205 AccDes= 0.00D+00 IRadAn=         5 IDoV= 1 UseB2=F ITyADJ=14
 ICtDFT=  3500011 ScaDFX=  1.000000  1.000000  1.000000  1.000000
 FoFCou: FMM=F IPFlag=           0 FMFlag=      100000 FMFlg1=           0
         NFxFlg=           0 DoJE=T BraDBF=F KetDBF=T FulRan=T
         wScrn=  0.000000 ICntrl=       500 IOpCl=  0 I1Cent=   200000004 NGrid=           0
         NMat0=    1 NMatS0=      1 NMatT0=    0 NMatD0=    1 NMtDS0=    0 NMtDT0=    0
 Symmetry not used in FoFCou.
 SCF Done:  E(RHF) =  -995.883036168     A.U. after   12 cycles
            NFock= 12  Conv=0.92D-08     -V/T= 2.0000

 **********************************************************************

            Population analysis using the SCF Density.

 **********************************************************************

 Alpha  occ. eigenvalues -- -104.86110-104.86110 -11.37426 -11.26970 -10.58727
 Alpha  occ. eigenvalues --  -10.58725  -8.05510  -8.05510  -8.05147  -8.05147
 Alpha  occ. eigenvalues --   -8.05138  -8.05138  -1.21780  -1.11382  -1.02696
 Alpha  occ. eigenvalues --   -0.77231  -0.66619  -0.64492  -0.56470  -0.55020
 Alpha  occ. eigenvalues --   -0.49342  -0.47859  -0.45755  -0.37741
 Alpha virt. eigenvalues --    0.03724   0.05287   0.07387   0.08133   0.09181
 Alpha virt. eigenvalues --    0.11122   0.14106   0.14616   0.16097   0.16169
 Alpha virt. eigenvalues --    0.17112   0.17159   0.18220   0.18433   0.19488
 Alpha virt. eigenvalues --    0.20285   0.20708   0.21948   0.25089   0.28269
 Alpha virt. eigenvalues --    0.31930   0.33164   0.34008   0.39879   0.40354
 Alpha virt. eigenvalues --    0.40734   0.45471   0.45808   0.46496   0.47431
 Alpha virt. eigenvalues --    0.50872   0.51489   0.53948   0.55913   0.58241
 Alpha virt. eigenvalues --    0.61329   0.62015   0.62597   0.64038   0.64669
 Alpha virt. eigenvalues --    0.68910   0.69350   0.69627   0.74872   0.78304
 Alpha virt. eigenvalues --    0.80087   0.81125   0.86507   0.86638   0.89221
 Alpha virt. eigenvalues --    0.90900   1.00710   1.01981   1.04615   1.05704
 Alpha virt. eigenvalues --    1.07868   1.10829   1.16492   1.18980   1.26961
 Alpha virt. eigenvalues --    1.34553   1.35897   1.38061   1.38334   1.42434
 Alpha virt. eigenvalues --    1.43657   1.43668   1.45397   1.46183   1.46514
 Alpha virt. eigenvalues --    1.48038   1.51445   1.55787   1.59452   1.63010
 Alpha virt. eigenvalues --    1.64826   1.68567   1.86425   1.90519   1.93368
 Alpha virt. eigenvalues --    1.94451   2.01541   2.06741   2.16911   2.20579
 Alpha virt. eigenvalues --    2.27517   2.28138   2.30172   2.34975   2.58997
 Alpha virt. eigenvalues --    2.61266   2.69746   3.13537   3.24604
          Condensed to atoms (all electrons):
 Mulliken charges:
               1
     1  C    0.956939
     2  C   -0.272234
     3  H   -0.172984
     4  H   -0.172984
     5  Cl  -0.169368
     6  Cl  -0.169368
 Sum of Mulliken charges =  -0.00000
 Mulliken charges with hydrogens summed into heavy atoms:
               1
     1  C    0.610971
     2  C   -0.272234
     5  Cl  -0.169368
     6  Cl  -0.169368
 Electronic spatial extent (au):  <R**2>=            485.9774
 Charge=             -0.0000 electrons
 Dipole moment (field-independent basis, Debye):
    X=             -0.0000    Y=              0.0000    Z=              1.6927  Tot=              1.6927
 NROrb=    118 NOA=    24 NOB=    24 NVA=    94 NVB=    94

 **** Warning!!: The largest alpha MO coefficient is  0.29593821D+02

    12 initial guesses have been made.
 Iteration     1 Dimension    12 NMult     0 NNew     12
 New state      1 was old state      4
 Iteration     2 Dimension    24 NMult    12 NNew     12
 New state      1 was old state      3
 Iteration     3 Dimension    27 NMult    24 NNew      3
 Iteration     4 Dimension    30 NMult    27 NNew      3
 Iteration     5 Dimension    33 NMult    30 NNew      3
 Iteration     6 Dimension    36 NMult    33 NNew      3
 Iteration     7 Dimension    39 NMult    36 NNew      3
 ***********************************************************************
 Stability analysis using <AA,BB:AA,BB> singles matrix:
 ***********************************************************************
 Ground to excited state transition densities written to RWF  633

 Eigenvectors of the stability matrix:
 
 Excited state symmetry could not be determined.
 Eigenvector   1:      Singlet-?Sym  Eigenvalue= 0.2630884  <S**2>=0.000
      24 -> 25        -0.20009
      24 -> 27         0.24418
      24 -> 30         0.38953
      24 -> 31        -0.22640
      24 -> 35         0.16134
      24 -> 38         0.16827
      24 -> 42        -0.29679
 The wavefunction is stable under the perturbations considered.
 The wavefunction is already stable.

 **********************************************************************

            Population analysis using the SCF Density.

 **********************************************************************

 Alpha  occ. eigenvalues -- -104.86110-104.86110 -11.37426 -11.26970 -10.58727
 Alpha  occ. eigenvalues --  -10.58725  -8.05510  -8.05510  -8.05147  -8.05147
 Alpha  occ. eigenvalues --   -8.05138  -8.05138  -1.21780  -1.11382  -1.02696
 Alpha  occ. eigenvalues --   -0.77231  -0.66619  -0.64492  -0.56470  -0.55020
 Alpha  occ. eigenvalues --   -0.49342  -0.47859  -0.45755  -0.37741
 Alpha virt. eigenvalues --    0.03724   0.05287   0.07387   0.08133   0.09181
 Alpha virt. eigenvalues --    0.11122   0.14106   0.14616   0.16097   0.16169
 Alpha virt. eigenvalues --    0.17112   0.17159   0.18220   0.18433   0.19488
 Alpha virt. eigenvalues --    0.20285   0.20708   0.21948   0.25089   0.28269
 Alpha virt. eigenvalues --    0.31930   0.33164   0.34008   0.39879   0.40354
 Alpha virt. eigenvalues --    0.40734   0.45471   0.45808   0.46496   0.47431
 Alpha virt. eigenvalues --    0.50872   0.51489   0.53948   0.55913   0.58241
 Alpha virt. eigenvalues --    0.61329   0.62015   0.62597   0.64038   0.64669
 Alpha virt. eigenvalues --    0.68910   0.69350   0.69627   0.74872   0.78304
 Alpha virt. eigenvalues --    0.80087   0.81125   0.86507   0.86638   0.89221
 Alpha virt. eigenvalues --    0.90900   1.00710   1.01981   1.04615   1.05704
 Alpha virt. eigenvalues --    1.07868   1.10829   1.16492   1.18980   1.26961
 Alpha virt. eigenvalues --    1.34553   1.35897   1.38061   1.38334   1.42434
 Alpha virt. eigenvalues --    1.43657   1.43668   1.45397   1.46183   1.46514
 Alpha virt. eigenvalues --    1.48038   1.51445   1.55787   1.59452   1.63010
 Alpha virt. eigenvalues --    1.64826   1.68567   1.86425   1.90519   1.93368
 Alpha virt. eigenvalues --    1.94451   2.01541   2.06741   2.16911   2.20579
 Alpha virt. eigenvalues --    2.27517   2.28138   2.30172   2.34975   2.58997
 Alpha virt. eigenvalues --    2.61266   2.69746   3.13537   3.24604
          Condensed to atoms (all electrons):
 Mulliken charges:
               1
     1  C    0.956939
     2  C   -0.272234
     3  H   -0.172984
     4  H   -0.172984
     5  Cl  -0.169368
     6  Cl  -0.169368
 Sum of Mulliken charges =  -0.00000
 Mulliken charges with hydrogens summed into heavy atoms:
               1
     1  C    0.610971
     2  C   -0.272234
     5  Cl  -0.169368
     6  Cl  -0.169368
 Electronic spatial extent (au):  <R**2>=            485.9774
 Charge=             -0.0000 electrons
 Dipole moment (field-independent basis, Debye):
    X=             -0.0000    Y=              0.0000    Z=              1.6927  Tot=              1.6927
 Unable to Open any file for archive entry.
 1\1\GINC-SE041\Stability\RHF\Aug-CC-pVDZ\C2H2Cl2\OHZDE\06-Apr-2025\0\\
 #t hf aug-cc-pvdz symm=none int=(grid=ultrafine) guess=(read,tcheck) s
 table=(opt,rrhf)\\title\\0,1\C,0,0.,0.,1.747016\C,0,0.,0.,0.425505\H,0
 ,0.,0.930182,2.293878\H,0,0.,-0.930182,2.293878\Cl,0,0.,1.459069,-0.51
 832\Cl,0,0.,-1.459069,-0.51832\\Version=ES64L-G16RevC.01\HF=-995.88303
 62\RMSD=9.164e-09\Dipole=0.,0.,0.6659725\Quadrupole=-1.9648544,-0.2097
 053,2.1745597,0.,0.,0.\PG=Unknown\\@
 The archive entry for this job was punched.


 THE SOLUTION TO A PROBLEM CHANGES THE PROBLEM.

                                 -- JOHN PEERS
           PAUL DICKSON'S "THE OFFICIAL RULES"
 Job cpu time:       0 days  0 hours  0 minutes 32.2 seconds.
 Elapsed time:       0 days  0 hours  1 minutes 16.2 seconds.
 File lengths (MBytes):  RWF=    120 Int=      0 D2E=      0 Chk=      3 Scr=      1
 Normal termination of Gaussian 16 at Sun Apr  6 07:36:42 2025.
 Initial command:
 /arc/software/Gaussian/g16.c01/l1.exe "/tmp/slurm/4819110/Gau-1379400.inp" -scrdir="/tmp/slurm/4819110/"
 Entering Link 1 = /arc/software/Gaussian/g16.c01/l1.exe PID=   1379676.
  
 Copyright (c) 1988-2019, Gaussian, Inc.  All Rights Reserved.
  
 This is part of the Gaussian(R) 16 program.  It is based on
 the Gaussian(R) 09 system (copyright 2009, Gaussian, Inc.),
 the Gaussian(R) 03 system (copyright 2003, Gaussian, Inc.),
 the Gaussian(R) 98 system (copyright 1998, Gaussian, Inc.),
 the Gaussian(R) 94 system (copyright 1995, Gaussian, Inc.),
 the Gaussian 92(TM) system (copyright 1992, Gaussian, Inc.),
 the Gaussian 90(TM) system (copyright 1990, Gaussian, Inc.),
 the Gaussian 88(TM) system (copyright 1988, Gaussian, Inc.),
 the Gaussian 86(TM) system (copyright 1986, Carnegie Mellon
 University), and the Gaussian 82(TM) system (copyright 1983,
 Carnegie Mellon University). Gaussian is a federally registered
 trademark of Gaussian, Inc.
  
 This software contains proprietary and confidential information,
 including trade secrets, belonging to Gaussian, Inc.
  
 This software is provided under written license and may be
 used, copied, transmitted, or stored only in accord with that
 written license.
  
 The following legend is applicable only to US Government
 contracts under FAR:
  
                    RESTRICTED RIGHTS LEGEND
  
 Use, reproduction and disclosure by the US Government is
 subject to restrictions as set forth in subparagraphs (a)
 and (c) of the Commercial Computer Software - Restricted
 Rights clause in FAR 52.227-19.
  
 Gaussian, Inc.
 340 Quinnipiac St., Bldg. 40, Wallingford CT 06492
  
  
 ---------------------------------------------------------------
 Warning -- This program may not be used in any manner that
 competes with the business of Gaussian, Inc. or will provide
 assistance to any competitor of Gaussian, Inc.  The licensee
 of this program is prohibited from giving any competitor of
 Gaussian, Inc. access to this program.  By using this program,
 the user acknowledges that Gaussian, Inc. is engaged in the
 business of creating and licensing software in the field of
 computational chemistry and represents and warrants to the
 licensee that it is not a competitor of Gaussian, Inc. and that
 it will not use this program in any manner prohibited above.
 ---------------------------------------------------------------
  

 Cite this work as:
 Gaussian 16, Revision C.01,
 M. J. Frisch, G. W. Trucks, H. B. Schlegel, G. E. Scuseria, 
 M. A. Robb, J. R. Cheeseman, G. Scalmani, V. Barone, 
 G. A. Petersson, H. Nakatsuji, X. Li, M. Caricato, A. V. Marenich, 
 J. Bloino, B. G. Janesko, R. Gomperts, B. Mennucci, H. P. Hratchian, 
 J. V. Ortiz, A. F. Izmaylov, J. L. Sonnenberg, D. Williams-Young, 
 F. Ding, F. Lipparini, F. Egidi, J. Goings, B. Peng, A. Petrone, 
 T. Henderson, D. Ranasinghe, V. G. Zakrzewski, J. Gao, N. Rega, 
 G. Zheng, W. Liang, M. Hada, M. Ehara, K. Toyota, R. Fukuda, 
 J. Hasegawa, M. Ishida, T. Nakajima, Y. Honda, O. Kitao, H. Nakai, 
 T. Vreven, K. Throssell, J. A. Montgomery, Jr., J. E. Peralta, 
 F. Ogliaro, M. J. Bearpark, J. J. Heyd, E. N. Brothers, K. N. Kudin, 
 V. N. Staroverov, T. A. Keith, R. Kobayashi, J. Normand, 
 K. Raghavachari, A. P. Rendell, J. C. Burant, S. S. Iyengar, 
 J. Tomasi, M. Cossi, J. M. Millam, M. Klene, C. Adamo, R. Cammi, 
 J. W. Ochterski, R. L. Martin, K. Morokuma, O. Farkas, 
 J. B. Foresman, and D. J. Fox, Gaussian, Inc., Wallingford CT, 2019.
 
 ******************************************
 Gaussian 16:  ES64L-G16RevC.01  3-Jul-2019
                 6-Apr-2025 
 ******************************************
 %nprocs=16
 Will use up to   16 processors via shared memory.
 %mem=30GB
 %chk=1-1-dichloroethene.chk
 ----------------------------------------------------------------------
 #t hf aug-cc-pvdz iop(5/13=1,5/36=2,99/5=2) pseudo=read geom=check gue
 ss=(read,tcheck) scf=(maxcycle=1)
 ----------------------------------------------------------------------
 -----
 title
 -----
 Structure from the checkpoint file:  "1-1-dichloroethene.chk"
 Charge =  0 Multiplicity = 1
 Z-Matrix found in chk file.
 C,0,0.,0.,1.747016
 C,0,0.,0.,0.425505
 H,0,0.,0.930182,2.293878
 H,0,0.,-0.930182,2.293878
 Cl,0,0.,1.459069,-0.51832
 Cl,0,0.,-1.459069,-0.51832
 Recover connectivity data from disk.
                    Distance matrix (angstroms):
                    1          2          3          4          5
     1  C    0.000000
     2  C    1.321511   0.000000
     3  H    1.079026   2.087117   0.000000
     4  H    1.079026   2.087117   1.860364   0.000000
     5  Cl   2.694556   1.737725   2.861499   3.690119   0.000000
     6  Cl   2.694556   1.737725   3.690119   2.861499   2.918138
                    6
     6  Cl   0.000000
 Framework group  C2V[C2(CC),SGV(H2Cl2)]
 Deg. of freedom     5
                         Standard orientation:                         
 ---------------------------------------------------------------------
 Center     Atomic      Atomic             Coordinates (Angstroms)
 Number     Number       Type             X           Y           Z
 ---------------------------------------------------------------------
      1          6           0        0.000000   -0.000000    1.747016
      2          6           0        0.000000   -0.000000    0.425505
      3          1           0        0.000000    0.930182    2.293878
      4          1           0       -0.000000   -0.930182    2.293878
      5         17           0        0.000000    1.459069   -0.518320
      6         17           0       -0.000000   -1.459069   -0.518320
 ---------------------------------------------------------------------
 Rotational constants (GHZ):           7.4461746           3.3550315           2.3129038
 ======================================================================================================
                                       Pseudopotential Parameters
 ======================================================================================================
  Center     Atomic      Valence      Angular      Power
  Number     Number     Electrons     Momentum     of R      Exponent        Coefficient   SO-Coeffient
 ======================================================================================================
    1          6            6
                                      G and up 
                                                     0        0.0000010       -0.00286759    0.00000000
                                                     2        0.1200000        0.03193960    0.00000000
                                                     2        0.1600000       -0.04027782    0.00000000
                                                     2        0.2600000        0.24782456    0.00000000
                                                     2        0.4000000       -0.62266671    0.00000000
                                                     2        0.7000000        0.35695227    0.00000000
                                      S - G
                                                     0        0.0000010       -0.06602313    0.00000000
                                                     2        0.1200000        1.47277455    0.00000000
                                                     2        0.1600000       -4.06924166    0.00000000
                                                     2        0.3000000        5.02952802    0.00000000
                                                     2        0.7000000       -5.65856978    0.00000000
                                                     2        1.7000000        8.57604414    0.00000000
                                      P - G
                                                     0        0.0000010        0.49434425    0.00000000
                                                     2        0.1200000       -1.37391547    0.00000000
                                                     2        0.1600000        3.65411806    0.00000000
                                                     2        0.2800000       -7.36479843    0.00000000
                                                     2        0.6000000       17.22091285    0.00000000
                                                     2        1.1000000      -23.50107827    0.00000000
                                                     2        3.0000000       16.29464063    0.00000000
                                      D - G
                                                     0        0.0000010       -0.28693103    0.00000000
                                                     2        0.1200000        0.12273044    0.00000000
                                                     2        0.3000000       -0.43416384    0.00000000
                                                     2        0.7000000        2.23358493    0.00000000
                                      F - G
                                                     0        0.0000010        0.07263570    0.00000000
                                                     2        0.1400000       -0.76152861    0.00000000
                                                     2        0.2200000        1.98045593    0.00000000
                                                     2        0.4000000       -2.42426427    0.00000000
                                                     2        0.7000000        0.52335237    0.00000000
    2          6            6
                                      G and up 
                                                     0        0.0000010       -0.00286759    0.00000000
                                                     2        0.1200000        0.03193960    0.00000000
                                                     2        0.1600000       -0.04027782    0.00000000
                                                     2        0.2600000        0.24782456    0.00000000
                                                     2        0.4000000       -0.62266671    0.00000000
                                                     2        0.7000000        0.35695227    0.00000000
                                      S - G
                                                     0        0.0000010       -0.06602313    0.00000000
                                                     2        0.1200000        1.47277455    0.00000000
                                                     2        0.1600000       -4.06924166    0.00000000
                                                     2        0.3000000        5.02952802    0.00000000
                                                     2        0.7000000       -5.65856978    0.00000000
                                                     2        1.7000000        8.57604414    0.00000000
                                      P - G
                                                     0        0.0000010        0.49434425    0.00000000
                                                     2        0.1200000       -1.37391547    0.00000000
                                                     2        0.1600000        3.65411806    0.00000000
                                                     2        0.2800000       -7.36479843    0.00000000
                                                     2        0.6000000       17.22091285    0.00000000
                                                     2        1.1000000      -23.50107827    0.00000000
                                                     2        3.0000000       16.29464063    0.00000000
                                      D - G
                                                     0        0.0000010       -0.28693103    0.00000000
                                                     2        0.1200000        0.12273044    0.00000000
                                                     2        0.3000000       -0.43416384    0.00000000
                                                     2        0.7000000        2.23358493    0.00000000
                                      F - G
                                                     0        0.0000010        0.07263570    0.00000000
                                                     2        0.1400000       -0.76152861    0.00000000
                                                     2        0.2200000        1.98045593    0.00000000
                                                     2        0.4000000       -2.42426427    0.00000000
                                                     2        0.7000000        0.52335237    0.00000000
    3          1            1
                                      F and up 
                                                     0        0.0000010        0.00072061    0.00000000
                                                     2        0.1200000        0.03832357    0.00000000
                                                     2        0.1400000       -0.08683256    0.00000000
                                                     2        0.1800000        0.09312970    0.00000000
                                                     2        0.2800000       -0.02532572    0.00000000
                                                     2        0.4000000       -0.09430787    0.00000000
                                                     2        0.7000000        0.42710831    0.00000000
                                                     2        1.2000000       -2.11746981    0.00000000
                                      S - F
                                                     0        0.0000010        0.14449603    0.00000000
                                                     2        0.1200000       -0.56378993    0.00000000
                                                     2        0.1400000        0.63941249    0.00000000
                                                     2        0.2600000       -0.58461015    0.00000000
                                                     2        0.5000000        1.00157293    0.00000000
                                                     2        1.8000000       -0.14135838    0.00000000
                                      P - F
                                                     0        0.0000010       -0.09353646    0.00000000
                                                     2        0.1200000        0.31768975    0.00000000
                                                     2        0.2000000       -0.71747951    0.00000000
                                                     2        0.4000000        0.65752308    0.00000000
                                                     2        1.7000000        2.94052587    0.00000000
                                      D - F
                                                     0        0.0000010       -0.04491202    0.00000000
                                                     2        0.1200000       -0.02862031    0.00000000
                                                     2        0.1800000       -0.21515263    0.00000000
                                                     2        0.3000000        0.80560647    0.00000000
                                                     2        0.4000000        0.47351754    0.00000000
                                                     2        0.7000000       -4.57051794    0.00000000
                                                     2        1.6000000       18.53737826    0.00000000
    4          1            1
                                      F and up 
                                                     0        0.0000010        0.00072061    0.00000000
                                                     2        0.1200000        0.03832357    0.00000000
                                                     2        0.1400000       -0.08683256    0.00000000
                                                     2        0.1800000        0.09312970    0.00000000
                                                     2        0.2800000       -0.02532572    0.00000000
                                                     2        0.4000000       -0.09430787    0.00000000
                                                     2        0.7000000        0.42710831    0.00000000
                                                     2        1.2000000       -2.11746981    0.00000000
                                      S - F
                                                     0        0.0000010        0.14449603    0.00000000
                                                     2        0.1200000       -0.56378993    0.00000000
                                                     2        0.1400000        0.63941249    0.00000000
                                                     2        0.2600000       -0.58461015    0.00000000
                                                     2        0.5000000        1.00157293    0.00000000
                                                     2        1.8000000       -0.14135838    0.00000000
                                      P - F
                                                     0        0.0000010       -0.09353646    0.00000000
                                                     2        0.1200000        0.31768975    0.00000000
                                                     2        0.2000000       -0.71747951    0.00000000
                                                     2        0.4000000        0.65752308    0.00000000
                                                     2        1.7000000        2.94052587    0.00000000
                                      D - F
                                                     0        0.0000010       -0.04491202    0.00000000
                                                     2        0.1200000       -0.02862031    0.00000000
                                                     2        0.1800000       -0.21515263    0.00000000
                                                     2        0.3000000        0.80560647    0.00000000
                                                     2        0.4000000        0.47351754    0.00000000
                                                     2        0.7000000       -4.57051794    0.00000000
                                                     2        1.6000000       18.53737826    0.00000000
    5         17           17
                                      G and up 
                                                     0        0.0000010        0.00409650    0.00000000
                                                     2        0.1200000        0.06945192    0.00000000
                                                     2        0.1400000       -0.06660574    0.00000000
                                                     2        0.2200000        0.15305308    0.00000000
                                      S - G
                                                     0        0.0000010        0.00555482    0.00000000
                                                     2        0.2000000       -0.53060378    0.00000000
                                      P - G
                                                     0        0.0000010       -0.16962542    0.00000000
                                                     2        0.1200000        0.15585357    0.00000000
                                                     2        0.1800000       -0.79460714    0.00000000
                                                     2        0.5000000        1.36495881    0.00000000
                                      D - G
                                                     0        0.0000010        0.91266089    0.00000000
                                                     2        0.2400000       -1.50552862    0.00000000
                                      F - G
                                                     0        0.0000010       -0.76620800    0.00000000
                                                     2        0.1200000       -0.23737626    0.00000000
                                                     2        0.1800000        0.28531204    0.00000000
    6         17           17
                                      G and up 
                                                     0        0.0000010        0.00409650    0.00000000
                                                     2        0.1200000        0.06945192    0.00000000
                                                     2        0.1400000       -0.06660574    0.00000000
                                                     2        0.2200000        0.15305308    0.00000000
                                      S - G
                                                     0        0.0000010        0.00555482    0.00000000
                                                     2        0.2000000       -0.53060378    0.00000000
                                      P - G
                                                     0        0.0000010       -0.16962542    0.00000000
                                                     2        0.1200000        0.15585357    0.00000000
                                                     2        0.1800000       -0.79460714    0.00000000
                                                     2        0.5000000        1.36495881    0.00000000
                                      D - G
                                                     0        0.0000010        0.91266089    0.00000000
                                                     2        0.2400000       -1.50552862    0.00000000
                                      F - G
                                                     0        0.0000010       -0.76620800    0.00000000
                                                     2        0.1200000       -0.23737626    0.00000000
                                                     2        0.1800000        0.28531204    0.00000000
 ======================================================================================================
   118 basis functions,   270 primitive gaussians,   126 cartesian basis functions
    24 alpha electrons       24 beta electrons
       nuclear repulsion energy       189.3842156336 Hartrees.
 NAtoms=    6 NActive=    6 NUniq=    4 SFac= 2.25D+00 NAtFMM=   60 NAOKFM=F Big=F
   4 Symmetry operations used in ECPInt.
 ECPInt:  NShTT=    1275 NPrTT=   11071 LenC2=    1273 LenP2D=    8056.
 LDataN:  DoStor=T MaxTD1= 6 Len=  172
 Initial guess from the checkpoint file:  "1-1-dichloroethene.chk"
 B after Tr=    -0.000000   -0.000000   -0.000000
         Rot=    1.000000    0.000000   -0.000000   -0.000000 Ang=   0.00 deg.
 Initial guess orbital symmetries:
       Occupied  (B2) (A1) (A1) (A1) (B2) (A1) (B2) (A1) (B2) (A1)
                 (A2) (B1) (A1) (B2) (A1) (A1) (B2) (A1) (B1) (B2)
                 (A1) (A2) (B2) (B1)
       Virtual   (A1) (B2) (A1) (B1) (B2) (A1) (A1) (B1) (B1) (A2)
                 (A1) (B2) (B2) (A1) (B2) (B1) (A1) (A1) (B2) (A1)
                 (A1) (A2) (B2) (B2) (A1) (B1) (B2) (A1) (B1) (A2)
                 (A1) (A1) (B2) (A2) (B2) (B2) (A1) (A1) (B1) (B1)
                 (B2) (A2) (A1) (A1) (A1) (B1) (B2) (A1) (B1) (A2)
                 (B2) (A1) (A1) (B1) (B2) (B1) (A2) (B2) (A1) (B2)
                 (A2) (B1) (A1) (B2) (A1) (B1) (A2) (A1) (B2) (B2)
                 (A1) (B2) (A1) (B1) (A2) (A1) (B2) (A1) (A2) (A1)
                 (B1) (B2) (B2) (A1) (B2) (B1) (A1) (A2) (A1) (A1)
                 (B2) (A1) (B2) (A1)
 >>>>>>>>>> Convergence criterion not met.
 SCF Done:  E(RHF) =  -996.742679645     A.U. after    2 cycles
            NFock=  1  Conv=0.26D+00     -V/T= 1.9948

 **********************************************************************

            Population analysis using the SCF Density.

 **********************************************************************

 Orbital symmetries:
       Occupied  (A1) (B2) (A1) (A1) (A1) (B2) (B2) (A1) (B2) (A1)
                 (A2) (B1) (A1) (B2) (A1) (A1) (B2) (A1) (B1) (B2)
                 (A2) (A1) (B2) (B1)
       Virtual   (A1) (A1) (B2) (B1) (B2) (A1) (A1) (B1) (B2) (A1)
                 (A2) (B1) (A1) (B2) (A1) (B2) (A1) (B1) (B2) (A1)
                 (A2) (A1) (B1) (B2) (B2) (A1) (A1) (A2) (A2) (B2)
                 (B2) (B1) (A1) (A1) (B2) (B2) (B1) (A1) (A1) (B2)
                 (B1) (A2) (A1) (A1) (B1) (A1) (B2) (A1) (A2) (B2)
                 (B1) (A1) (B2) (A1) (B1) (A2) (B2) (B1) (B2) (A1)
                 (A2) (B1) (A1) (A2) (B1) (A1) (B2) (B2) (A1) (B2)
                 (A1) (B2) (A1) (B1) (A2) (A1) (B2) (A1) (A2) (B2)
                 (A1) (B1) (B2) (B2) (A1) (A1) (B1) (A2) (A1) (B2)
                 (A1) (A1) (A1) (B2)
 The electronic state is 1-A1.
 Alpha  occ. eigenvalues --  -99.91511 -99.91505 -11.49875 -11.41203 -10.49063
 Alpha  occ. eigenvalues --  -10.48773  -9.68879  -9.68667  -9.67958  -9.67871
 Alpha  occ. eigenvalues --   -9.67834  -9.67789  -1.42634  -1.30300  -1.11779
 Alpha  occ. eigenvalues --   -0.85469  -0.70815  -0.66050  -0.61452  -0.56238
 Alpha  occ. eigenvalues --   -0.53321  -0.53037  -0.50790  -0.38310
 Alpha virt. eigenvalues --    0.03178   0.04745   0.06112   0.07736   0.07783
 Alpha virt. eigenvalues --    0.07902   0.11901   0.13711   0.14345   0.14355
 Alpha virt. eigenvalues --    0.15400   0.16345   0.16850   0.18479   0.18939
 Alpha virt. eigenvalues --    0.19277   0.20350   0.21283   0.22681   0.24322
 Alpha virt. eigenvalues --    0.27323   0.27787   0.28986   0.29998   0.32377
 Alpha virt. eigenvalues --    0.33522   0.37401   0.38818   0.39369   0.41874
 Alpha virt. eigenvalues --    0.43095   0.43147   0.43736   0.46781   0.52136
 Alpha virt. eigenvalues --    0.56295   0.56439   0.58670   0.59941   0.61802
 Alpha virt. eigenvalues --    0.63289   0.64872   0.67745   0.69446   0.74716
 Alpha virt. eigenvalues --    0.76737   0.77940   0.79643   0.84514   0.88109
 Alpha virt. eigenvalues --    0.93196   0.96219   0.98678   1.00632   1.03333
 Alpha virt. eigenvalues --    1.03827   1.19952   1.21762   1.22296   1.24253
 Alpha virt. eigenvalues --    1.24384   1.24482   1.28604   1.28827   1.30213
 Alpha virt. eigenvalues --    1.31258   1.31604   1.34435   1.36312   1.40152
 Alpha virt. eigenvalues --    1.47732   1.58001   1.72591   1.74029   1.76174
 Alpha virt. eigenvalues --    1.80965   1.84893   2.01324   2.02317   2.02993
 Alpha virt. eigenvalues --    2.07883   2.09526   2.22006   2.30393   2.31957
 Alpha virt. eigenvalues --    2.40591   2.43342   2.47996   2.63198   2.93285
 Alpha virt. eigenvalues --    2.95600   3.05143   3.71246   3.81121
          Condensed to atoms (all electrons):
 Mulliken charges:
               1
     1  C   -1.270743
     2  C   -1.263725
     3  H    1.495537
     4  H    1.495537
     5  Cl  -0.228302
     6  Cl  -0.228302
 Sum of Mulliken charges =  -0.00000
 Mulliken charges with hydrogens summed into heavy atoms:
               1
     1  C    1.720330
     2  C   -1.263725
     5  Cl  -0.228302
     6  Cl  -0.228302
 Electronic spatial extent (au):  <R**2>=            487.9487
 Charge=              0.0000 electrons
 Dipole moment (field-independent basis, Debye):
    X=             -0.0000    Y=              0.0000    Z=              2.0576  Tot=              2.0576

 Test job not archived.
 1\1\GINC-SE041\SP\RHF\Aug-CC-pVDZ\C2H2Cl2\OHZDE\06-Apr-2025\0\\#t hf a
 ug-cc-pvdz iop(5/13=1,5/36=2,99/5=2) pseudo=read geom=check guess=(rea
 d,tcheck) scf=(maxcycle=1)\\title\\0,1\C,0,0.,0.,1.747016\C,0,0.,0.,0.
 425505\H,0,0.,0.930182,2.293878\H,0,0.,-0.930182,2.293878\Cl,0,0.,1.45
 9069,-0.51832\Cl,0,0.,-1.459069,-0.51832\\Version=ES64L-G16RevC.01\Sta
 te=1-A1\HF=-996.7426796\RMSD=2.577e-01\Dipole=0.,0.,0.8095152\Quadrupo
 le=-2.7968549,0.2626335,2.5342213,0.,0.,0.\PG=C02V [C2(C1C1),SGV(H2Cl2
 )]\\@


 Cherishing children is the mark of a civilized society.
 -- Joan Ganz Cooney
 Job cpu time:       0 days  0 hours  0 minutes 20.0 seconds.
 Elapsed time:       0 days  0 hours  0 minutes  2.0 seconds.
 File lengths (MBytes):  RWF=      6 Int=      0 D2E=      0 Chk=      3 Scr=      1
 Normal termination of Gaussian 16 at Sun Apr  6 07:37:31 2025.
