 Entering Gaussian System, Link 0=g16
 Input=1-1-1-trifluoroethane.gjf
 Output=1-1-1-trifluoroethane.log
 Initial command:
 /arc/software/Gaussian/g16.c01/l1.exe "/tmp/slurm/4818833/Gau-3759499.inp" -scrdir="/tmp/slurm/4818833/"
 Entering Link 1 = /arc/software/Gaussian/g16.c01/l1.exe PID=   3759512.
  
 Copyright (c) 1988-2019, Gaussian, Inc.  All Rights Reserved.
  
 This is part of the Gaussian(R) 16 program.  It is based on
 the Gaussian(R) 09 system (copyright 2009, Gaussian, Inc.),
 the Gaussian(R) 03 system (copyright 2003, Gaussian, Inc.),
 the Gaussian(R) 98 system (copyright 1998, Gaussian, Inc.),
 the Gaussian(R) 94 system (copyright 1995, Gaussian, Inc.),
 the Gaussian 92(TM) system (copyright 1992, Gaussian, Inc.),
 the Gaussian 90(TM) system (copyright 1990, Gaussian, Inc.),
 the Gaussian 88(TM) system (copyright 1988, Gaussian, Inc.),
 the Gaussian 86(TM) system (copyright 1986, Carnegie Mellon
 University), and the Gaussian 82(TM) system (copyright 1983,
 Carnegie Mellon University). Gaussian is a federally registered
 trademark of Gaussian, Inc.
  
 This software contains proprietary and confidential information,
 including trade secrets, belonging to Gaussian, Inc.
  
 This software is provided under written license and may be
 used, copied, transmitted, or stored only in accord with that
 written license.
  
 The following legend is applicable only to US Government
 contracts under FAR:
  
                    RESTRICTED RIGHTS LEGEND
  
 Use, reproduction and disclosure by the US Government is
 subject to restrictions as set forth in subparagraphs (a)
 and (c) of the Commercial Computer Software - Restricted
 Rights clause in FAR 52.227-19.
  
 Gaussian, Inc.
 340 Quinnipiac St., Bldg. 40, Wallingford CT 06492
  
  
 ---------------------------------------------------------------
 Warning -- This program may not be used in any manner that
 competes with the business of Gaussian, Inc. or will provide
 assistance to any competitor of Gaussian, Inc.  The licensee
 of this program is prohibited from giving any competitor of
 Gaussian, Inc. access to this program.  By using this program,
 the user acknowledges that Gaussian, Inc. is engaged in the
 business of creating and licensing software in the field of
 computational chemistry and represents and warrants to the
 licensee that it is not a competitor of Gaussian, Inc. and that
 it will not use this program in any manner prohibited above.
 ---------------------------------------------------------------
  

 Cite this work as:
 Gaussian 16, Revision C.01,
 M. J. Frisch, G. W. Trucks, H. B. Schlegel, G. E. Scuseria, 
 M. A. Robb, J. R. Cheeseman, G. Scalmani, V. Barone, 
 G. A. Petersson, H. Nakatsuji, X. Li, M. Caricato, A. V. Marenich, 
 J. Bloino, B. G. Janesko, R. Gomperts, B. Mennucci, H. P. Hratchian, 
 J. V. Ortiz, A. F. Izmaylov, J. L. Sonnenberg, D. Williams-Young, 
 F. Ding, F. Lipparini, F. Egidi, J. Goings, B. Peng, A. Petrone, 
 T. Henderson, D. Ranasinghe, V. G. Zakrzewski, J. Gao, N. Rega, 
 G. Zheng, W. Liang, M. Hada, M. Ehara, K. Toyota, R. Fukuda, 
 J. Hasegawa, M. Ishida, T. Nakajima, Y. Honda, O. Kitao, H. Nakai, 
 T. Vreven, K. Throssell, J. A. Montgomery, Jr., J. E. Peralta, 
 F. Ogliaro, M. J. Bearpark, J. J. Heyd, E. N. Brothers, K. N. Kudin, 
 V. N. Staroverov, T. A. Keith, R. Kobayashi, J. Normand, 
 K. Raghavachari, A. P. Rendell, J. C. Burant, S. S. Iyengar, 
 J. Tomasi, M. Cossi, J. M. Millam, M. Klene, C. Adamo, R. Cammi, 
 J. W. Ochterski, R. L. Martin, K. Morokuma, O. Farkas, 
 J. B. Foresman, and D. J. Fox, Gaussian, Inc., Wallingford CT, 2019.
 
 ******************************************
 Gaussian 16:  ES64L-G16RevC.01  3-Jul-2019
                 6-Apr-2025 
 ******************************************
 %nprocs=16
 Will use up to   16 processors via shared memory.
 %mem=30GB
 %chk=1-1-1-trifluoroethane.chk
 ----------------------------------------------------------------------
 #t hf aug-cc-pvdz symm=none int=(grid=ultrafine) guess=(read,tcheck) s
 table=(opt,rrhf)
 ----------------------------------------------------------------------
 -----
 title
 -----
 Symbolic Z-matrix:
 Charge =  0 Multiplicity = 1
 C                     0.        0.        1.47857 
 C                     0.        0.       -0.02347 
 H                     0.       -1.02622   1.83815 
 H                     0.88874   0.51311   1.83815 
 H                    -0.88874   0.51311   1.83815 
 F                     0.        1.25397  -0.5276 
 F                    -1.08597  -0.62699  -0.5276 
 F                     1.08597  -0.62699  -0.5276 
 
                    Distance matrix (angstroms):
                    1          2          3          4          5
     1  C    0.000000
     2  C    1.502045   0.000000
     3  H    1.087398   2.125742   0.000000
     4  H    1.087398   2.125742   1.777473   0.000000
     5  H    1.087398   2.125742   1.777473   1.777474   0.000000
     6  F    2.365831   1.351513   3.285735   2.633530   2.633530
     7  F    2.365832   1.351514   2.633530   3.285736   2.633530
     8  F    2.365832   1.351514   2.633530   2.633530   3.285736
                    6          7          8
     6  F    0.000000
     7  F    2.171946   0.000000
     8  F    2.171946   2.171946   0.000000
 Symmetry turned off by external request.
 Rotational constants (GHZ):           5.4455294           5.1499541           5.1499530
   142 basis functions,   248 primitive gaussians,   152 cartesian basis functions
    21 alpha electrons       21 beta electrons
       nuclear repulsion energy       200.8861802928 Hartrees.
 NAtoms=    8 NActive=    8 NUniq=    8 SFac= 1.00D+00 NAtFMM=   60 NAOKFM=F Big=F
 ExpMin= 2.97D-02 ExpMax= 1.47D+04 ExpMxC= 5.03D+02 IAcc=3 IRadAn=         5 AccDes= 0.00D+00
 Harris functional with IExCor=  205 and IRadAn=       5 diagonalized for initial guess.
 HarFok:  IExCor=  205 AccDes= 0.00D+00 IRadAn=         5 IDoV= 1 UseB2=F ITyADJ=14
 ICtDFT=  3500011 ScaDFX=  1.000000  1.000000  1.000000  1.000000
 FoFCou: FMM=F IPFlag=           0 FMFlag=      100000 FMFlg1=           0
         NFxFlg=           0 DoJE=T BraDBF=F KetDBF=T FulRan=T
         wScrn=  0.000000 ICntrl=       500 IOpCl=  0 I1Cent=   200000004 NGrid=           0
         NMat0=    1 NMatS0=      1 NMatT0=    0 NMatD0=    1 NMtDS0=    0 NMtDT0=    0
 Symmetry not used in FoFCou.
 SCF Done:  E(RHF) =  -375.866638507     A.U. after   11 cycles
            NFock= 11  Conv=0.44D-08     -V/T= 2.0013

 **********************************************************************

            Population analysis using the SCF Density.

 **********************************************************************

 Alpha  occ. eigenvalues --  -26.34653 -26.34653 -26.34649 -11.51549 -11.26803
 Alpha  occ. eigenvalues --   -1.72624  -1.63229  -1.63229  -1.07361  -0.92492
 Alpha  occ. eigenvalues --   -0.81892  -0.81892  -0.77688  -0.70683  -0.70683
 Alpha  occ. eigenvalues --   -0.65959  -0.65959  -0.64350  -0.58990  -0.58990
 Alpha  occ. eigenvalues --   -0.56828
 Alpha virt. eigenvalues --    0.03291   0.05542   0.05542   0.08031   0.11487
 Alpha virt. eigenvalues --    0.11798   0.11798   0.14956   0.14956   0.16289
 Alpha virt. eigenvalues --    0.20783   0.23922   0.23922   0.28410   0.28410
 Alpha virt. eigenvalues --    0.28843   0.31710   0.31710   0.33406   0.33406
 Alpha virt. eigenvalues --    0.34540   0.35183   0.39359   0.39359   0.40350
 Alpha virt. eigenvalues --    0.41213   0.42908   0.42908   0.46644   0.50683
 Alpha virt. eigenvalues --    0.50683   0.52445   0.52675   0.53365   0.53365
 Alpha virt. eigenvalues --    0.56288   0.59602   0.59602   0.64290   0.65716
 Alpha virt. eigenvalues --    0.65716   0.66700   0.70008   0.77442   0.77442
 Alpha virt. eigenvalues --    0.82353   0.82353   0.84932   0.84932   0.95863
 Alpha virt. eigenvalues --    1.07361   1.07361   1.08557   1.14442   1.14442
 Alpha virt. eigenvalues --    1.19893   1.28971   1.28971   1.45589   1.47255
 Alpha virt. eigenvalues --    1.47255   1.49758   1.51553   1.51553   1.54075
 Alpha virt. eigenvalues --    1.54075   1.57905   1.59872   1.66988   1.66988
 Alpha virt. eigenvalues --    1.72440   1.73145   1.73145   1.79386   1.79386
 Alpha virt. eigenvalues --    1.86065   1.90475   1.95205   1.95205   1.99491
 Alpha virt. eigenvalues --    1.99491   2.07711   2.09438   2.18070   2.18070
 Alpha virt. eigenvalues --    2.18515   2.23741   2.23741   2.27860   2.27860
 Alpha virt. eigenvalues --    2.34822   2.48518   2.56729   2.56729   2.63874
 Alpha virt. eigenvalues --    2.71864   2.71864   2.77805   2.77805   2.83708
 Alpha virt. eigenvalues --    2.86448   3.03805   3.03805   3.64566   3.64566
 Alpha virt. eigenvalues --    3.73531   4.91653   4.93983   4.93983   4.96878
 Alpha virt. eigenvalues --    4.96878   4.98812   5.01710   5.02403   5.02403
 Alpha virt. eigenvalues --    5.09358   5.09358   5.14112   5.18802   5.28258
 Alpha virt. eigenvalues --    5.28258
          Condensed to atoms (all electrons):
 Mulliken charges:
               1
     1  C    0.043122
     2  C    1.805064
     3  H    0.008518
     4  H    0.008518
     5  H    0.008518
     6  F   -0.624580
     7  F   -0.624580
     8  F   -0.624580
 Sum of Mulliken charges =  -0.00000
 Mulliken charges with hydrogens summed into heavy atoms:
               1
     1  C    0.068676
     2  C    1.805064
     6  F   -0.624580
     7  F   -0.624580
     8  F   -0.624580
 Electronic spatial extent (au):  <R**2>=            334.4676
 Charge=             -0.0000 electrons
 Dipole moment (field-independent basis, Debye):
    X=             -0.0000    Y=              0.0000    Z=              2.6217  Tot=              2.6217
 NROrb=    142 NOA=    21 NOB=    21 NVA=   121 NVB=   121

 **** Warning!!: The largest alpha MO coefficient is  0.32989871D+02

    12 initial guesses have been made.
 Iteration     1 Dimension    12 NMult     0 NNew     12
 Iteration     2 Dimension    24 NMult    12 NNew     12
 New state      1 was old state      2
 Iteration     3 Dimension    27 NMult    24 NNew      3
 Iteration     4 Dimension    30 NMult    27 NNew      3
 Iteration     5 Dimension    33 NMult    30 NNew      3
 Iteration     6 Dimension    36 NMult    33 NNew      3
 Iteration     7 Dimension    39 NMult    36 NNew      3
 Iteration     8 Dimension    42 NMult    39 NNew      3
 Iteration     9 Dimension    45 NMult    42 NNew      3
 ***********************************************************************
 Stability analysis using <AA,BB:AA,BB> singles matrix:
 ***********************************************************************
 Ground to excited state transition densities written to RWF  633

 Eigenvectors of the stability matrix:
 
 Excited state symmetry could not be determined.
 Eigenvector   1:      Singlet-?Sym  Eigenvalue= 0.4500316  <S**2>=0.000
      19 -> 23        -0.11006
      20 -> 22         0.59134
      20 -> 24        -0.11007
      20 -> 31        -0.25888
 The wavefunction is stable under the perturbations considered.
 The wavefunction is already stable.

 **********************************************************************

            Population analysis using the SCF Density.

 **********************************************************************

 Alpha  occ. eigenvalues --  -26.34653 -26.34653 -26.34649 -11.51549 -11.26803
 Alpha  occ. eigenvalues --   -1.72624  -1.63229  -1.63229  -1.07361  -0.92492
 Alpha  occ. eigenvalues --   -0.81892  -0.81892  -0.77688  -0.70683  -0.70683
 Alpha  occ. eigenvalues --   -0.65959  -0.65959  -0.64350  -0.58990  -0.58990
 Alpha  occ. eigenvalues --   -0.56828
 Alpha virt. eigenvalues --    0.03291   0.05542   0.05542   0.08031   0.11487
 Alpha virt. eigenvalues --    0.11798   0.11798   0.14956   0.14956   0.16289
 Alpha virt. eigenvalues --    0.20783   0.23922   0.23922   0.28410   0.28410
 Alpha virt. eigenvalues --    0.28843   0.31710   0.31710   0.33406   0.33406
 Alpha virt. eigenvalues --    0.34540   0.35183   0.39359   0.39359   0.40350
 Alpha virt. eigenvalues --    0.41213   0.42908   0.42908   0.46644   0.50683
 Alpha virt. eigenvalues --    0.50683   0.52445   0.52675   0.53365   0.53365
 Alpha virt. eigenvalues --    0.56288   0.59602   0.59602   0.64290   0.65716
 Alpha virt. eigenvalues --    0.65716   0.66700   0.70008   0.77442   0.77442
 Alpha virt. eigenvalues --    0.82353   0.82353   0.84932   0.84932   0.95863
 Alpha virt. eigenvalues --    1.07361   1.07361   1.08557   1.14442   1.14442
 Alpha virt. eigenvalues --    1.19893   1.28971   1.28971   1.45589   1.47255
 Alpha virt. eigenvalues --    1.47255   1.49758   1.51553   1.51553   1.54075
 Alpha virt. eigenvalues --    1.54075   1.57905   1.59872   1.66988   1.66988
 Alpha virt. eigenvalues --    1.72440   1.73145   1.73145   1.79386   1.79386
 Alpha virt. eigenvalues --    1.86065   1.90475   1.95205   1.95205   1.99491
 Alpha virt. eigenvalues --    1.99491   2.07711   2.09438   2.18070   2.18070
 Alpha virt. eigenvalues --    2.18515   2.23741   2.23741   2.27860   2.27860
 Alpha virt. eigenvalues --    2.34822   2.48518   2.56729   2.56729   2.63874
 Alpha virt. eigenvalues --    2.71864   2.71864   2.77805   2.77805   2.83708
 Alpha virt. eigenvalues --    2.86448   3.03805   3.03805   3.64566   3.64566
 Alpha virt. eigenvalues --    3.73531   4.91653   4.93983   4.93983   4.96878
 Alpha virt. eigenvalues --    4.96878   4.98812   5.01710   5.02403   5.02403
 Alpha virt. eigenvalues --    5.09358   5.09358   5.14112   5.18802   5.28258
 Alpha virt. eigenvalues --    5.28258
          Condensed to atoms (all electrons):
 Mulliken charges:
               1
     1  C    0.043122
     2  C    1.805064
     3  H    0.008518
     4  H    0.008518
     5  H    0.008518
     6  F   -0.624580
     7  F   -0.624580
     8  F   -0.624580
 Sum of Mulliken charges =  -0.00000
 Mulliken charges with hydrogens summed into heavy atoms:
               1
     1  C    0.068676
     2  C    1.805064
     6  F   -0.624580
     7  F   -0.624580
     8  F   -0.624580
 Electronic spatial extent (au):  <R**2>=            334.4676
 Charge=             -0.0000 electrons
 Dipole moment (field-independent basis, Debye):
    X=             -0.0000    Y=              0.0000    Z=              2.6217  Tot=              2.6217
 Unable to Open any file for archive entry.
 1\1\GINC-SE046\Stability\RHF\Aug-CC-pVDZ\C2H3F3\OHZDE\06-Apr-2025\0\\#
 t hf aug-cc-pvdz symm=none int=(grid=ultrafine) guess=(read,tcheck) st
 able=(opt,rrhf)\\title\\0,1\C,0,0.,0.,1.478573\C,0,0.,0.,-0.023472\H,0
 ,0.,-1.026225,1.838151\H,0,0.888737,0.513112,1.838151\H,0,-0.888737,0.
 513112,1.838151\F,0,0.,1.253973,-0.527595\F,0,-1.085973,-0.626987,-0.5
 27595\F,0,1.085973,-0.626987,-0.527595\\Version=ES64L-G16RevC.01\HF=-3
 75.8666385\RMSD=4.355e-09\Dipole=0.,0.0000013,1.0314401\Quadrupole=-0.
 8450473,-0.8450459,1.6900932,0.,0.,-0.0000022\PG=Unknown\\@
 The archive entry for this job was punched.


 WAR ES EIN GOTT DER DIESE ZEICHEN SCHRIEB?
          - LUDWIG BOLTZMANN, QUOTING GOETHE, ABOUT MAXWELL'S EQUATIONS.
 Job cpu time:       0 days  0 hours  0 minutes 42.6 seconds.
 Elapsed time:       0 days  0 hours  0 minutes 38.8 seconds.
 File lengths (MBytes):  RWF=    133 Int=      0 D2E=      0 Chk=      4 Scr=      1
 Normal termination of Gaussian 16 at Sun Apr  6 07:10:36 2025.
 Initial command:
 /arc/software/Gaussian/g16.c01/l1.exe "/tmp/slurm/4818833/Gau-3759499.inp" -scrdir="/tmp/slurm/4818833/"
 Entering Link 1 = /arc/software/Gaussian/g16.c01/l1.exe PID=   3759855.
  
 Copyright (c) 1988-2019, Gaussian, Inc.  All Rights Reserved.
  
 This is part of the Gaussian(R) 16 program.  It is based on
 the Gaussian(R) 09 system (copyright 2009, Gaussian, Inc.),
 the Gaussian(R) 03 system (copyright 2003, Gaussian, Inc.),
 the Gaussian(R) 98 system (copyright 1998, Gaussian, Inc.),
 the Gaussian(R) 94 system (copyright 1995, Gaussian, Inc.),
 the Gaussian 92(TM) system (copyright 1992, Gaussian, Inc.),
 the Gaussian 90(TM) system (copyright 1990, Gaussian, Inc.),
 the Gaussian 88(TM) system (copyright 1988, Gaussian, Inc.),
 the Gaussian 86(TM) system (copyright 1986, Carnegie Mellon
 University), and the Gaussian 82(TM) system (copyright 1983,
 Carnegie Mellon University). Gaussian is a federally registered
 trademark of Gaussian, Inc.
  
 This software contains proprietary and confidential information,
 including trade secrets, belonging to Gaussian, Inc.
  
 This software is provided under written license and may be
 used, copied, transmitted, or stored only in accord with that
 written license.
  
 The following legend is applicable only to US Government
 contracts under FAR:
  
                    RESTRICTED RIGHTS LEGEND
  
 Use, reproduction and disclosure by the US Government is
 subject to restrictions as set forth in subparagraphs (a)
 and (c) of the Commercial Computer Software - Restricted
 Rights clause in FAR 52.227-19.
  
 Gaussian, Inc.
 340 Quinnipiac St., Bldg. 40, Wallingford CT 06492
  
  
 ---------------------------------------------------------------
 Warning -- This program may not be used in any manner that
 competes with the business of Gaussian, Inc. or will provide
 assistance to any competitor of Gaussian, Inc.  The licensee
 of this program is prohibited from giving any competitor of
 Gaussian, Inc. access to this program.  By using this program,
 the user acknowledges that Gaussian, Inc. is engaged in the
 business of creating and licensing software in the field of
 computational chemistry and represents and warrants to the
 licensee that it is not a competitor of Gaussian, Inc. and that
 it will not use this program in any manner prohibited above.
 ---------------------------------------------------------------
  

 Cite this work as:
 Gaussian 16, Revision C.01,
 M. J. Frisch, G. W. Trucks, H. B. Schlegel, G. E. Scuseria, 
 M. A. Robb, J. R. Cheeseman, G. Scalmani, V. Barone, 
 G. A. Petersson, H. Nakatsuji, X. Li, M. Caricato, A. V. Marenich, 
 J. Bloino, B. G. Janesko, R. Gomperts, B. Mennucci, H. P. Hratchian, 
 J. V. Ortiz, A. F. Izmaylov, J. L. Sonnenberg, D. Williams-Young, 
 F. Ding, F. Lipparini, F. Egidi, J. Goings, B. Peng, A. Petrone, 
 T. Henderson, D. Ranasinghe, V. G. Zakrzewski, J. Gao, N. Rega, 
 G. Zheng, W. Liang, M. Hada, M. Ehara, K. Toyota, R. Fukuda, 
 J. Hasegawa, M. Ishida, T. Nakajima, Y. Honda, O. Kitao, H. Nakai, 
 T. Vreven, K. Throssell, J. A. Montgomery, Jr., J. E. Peralta, 
 F. Ogliaro, M. J. Bearpark, J. J. Heyd, E. N. Brothers, K. N. Kudin, 
 V. N. Staroverov, T. A. Keith, R. Kobayashi, J. Normand, 
 K. Raghavachari, A. P. Rendell, J. C. Burant, S. S. Iyengar, 
 J. Tomasi, M. Cossi, J. M. Millam, M. Klene, C. Adamo, R. Cammi, 
 J. W. Ochterski, R. L. Martin, K. Morokuma, O. Farkas, 
 J. B. Foresman, and D. J. Fox, Gaussian, Inc., Wallingford CT, 2019.
 
 ******************************************
 Gaussian 16:  ES64L-G16RevC.01  3-Jul-2019
                 6-Apr-2025 
 ******************************************
 %nprocs=16
 Will use up to   16 processors via shared memory.
 %mem=30GB
 %chk=1-1-1-trifluoroethane.chk
 ----------------------------------------------------------------------
 #t hf aug-cc-pvdz iop(5/13=1,5/36=2,99/5=2) pseudo=read geom=check gue
 ss=(read,tcheck) scf=(maxcycle=1)
 ----------------------------------------------------------------------
 -----
 title
 -----
 Structure from the checkpoint file:  "1-1-1-trifluoroethane.chk"
 Charge =  0 Multiplicity = 1
 Z-Matrix found in chk file.
 C,0,0.,0.,1.478573
 C,0,0.,0.,-0.023472
 H,0,0.,-1.026225,1.838151
 H,0,0.888737,0.513112,1.838151
 H,0,-0.888737,0.513112,1.838151
 F,0,0.,1.253973,-0.527595
 F,0,-1.085973,-0.626987,-0.527595
 F,0,1.085973,-0.626987,-0.527595
 Recover connectivity data from disk.
                    Distance matrix (angstroms):
                    1          2          3          4          5
     1  C    0.000000
     2  C    1.502045   0.000000
     3  H    1.087398   2.125742   0.000000
     4  H    1.087398   2.125742   1.777473   0.000000
     5  H    1.087398   2.125742   1.777473   1.777474   0.000000
     6  F    2.365831   1.351513   3.285735   2.633530   2.633530
     7  F    2.365832   1.351514   2.633530   3.285736   2.633530
     8  F    2.365832   1.351514   2.633530   2.633530   3.285736
                    6          7          8
     6  F    0.000000
     7  F    2.171946   0.000000
     8  F    2.171946   2.171946   0.000000
 Framework group  CS[SG(C2HF),X(H2F2)]
 Deg. of freedom    11
                         Standard orientation:                         
 ---------------------------------------------------------------------
 Center     Atomic      Atomic             Coordinates (Angstroms)
 Number     Number       Type             X           Y           Z
 ---------------------------------------------------------------------
      1          6           0       -1.478573    0.000000    0.000000
      2          6           0        0.023472    0.000000   -0.000000
      3          1           0       -1.838151   -1.026225    0.000000
      4          1           0       -1.838151    0.513112    0.888737
      5          1           0       -1.838151    0.513112   -0.888737
      6          9           0        0.527595    1.253973   -0.000000
      7          9           0        0.527595   -0.626987   -1.085973
      8          9           0        0.527595   -0.626987    1.085973
 ---------------------------------------------------------------------
 Rotational constants (GHZ):           5.4455294           5.1499541           5.1499530
 ======================================================================================================
                                       Pseudopotential Parameters
 ======================================================================================================
  Center     Atomic      Valence      Angular      Power
  Number     Number     Electrons     Momentum     of R      Exponent        Coefficient   SO-Coeffient
 ======================================================================================================
    1          6            6
                                      G and up 
                                                     0        0.0000010       -0.00286759    0.00000000
                                                     2        0.1200000        0.03193960    0.00000000
                                                     2        0.1600000       -0.04027782    0.00000000
                                                     2        0.2600000        0.24782456    0.00000000
                                                     2        0.4000000       -0.62266671    0.00000000
                                                     2        0.7000000        0.35695227    0.00000000
                                      S - G
                                                     0        0.0000010       -0.06602313    0.00000000
                                                     2        0.1200000        1.47277455    0.00000000
                                                     2        0.1600000       -4.06924166    0.00000000
                                                     2        0.3000000        5.02952802    0.00000000
                                                     2        0.7000000       -5.65856978    0.00000000
                                                     2        1.7000000        8.57604414    0.00000000
                                      P - G
                                                     0        0.0000010        0.49434425    0.00000000
                                                     2        0.1200000       -1.37391547    0.00000000
                                                     2        0.1600000        3.65411806    0.00000000
                                                     2        0.2800000       -7.36479843    0.00000000
                                                     2        0.6000000       17.22091285    0.00000000
                                                     2        1.1000000      -23.50107827    0.00000000
                                                     2        3.0000000       16.29464063    0.00000000
                                      D - G
                                                     0        0.0000010       -0.28693103    0.00000000
                                                     2        0.1200000        0.12273044    0.00000000
                                                     2        0.3000000       -0.43416384    0.00000000
                                                     2        0.7000000        2.23358493    0.00000000
                                      F - G
                                                     0        0.0000010        0.07263570    0.00000000
                                                     2        0.1400000       -0.76152861    0.00000000
                                                     2        0.2200000        1.98045593    0.00000000
                                                     2        0.4000000       -2.42426427    0.00000000
                                                     2        0.7000000        0.52335237    0.00000000
    2          6            6
                                      G and up 
                                                     0        0.0000010       -0.00286759    0.00000000
                                                     2        0.1200000        0.03193960    0.00000000
                                                     2        0.1600000       -0.04027782    0.00000000
                                                     2        0.2600000        0.24782456    0.00000000
                                                     2        0.4000000       -0.62266671    0.00000000
                                                     2        0.7000000        0.35695227    0.00000000
                                      S - G
                                                     0        0.0000010       -0.06602313    0.00000000
                                                     2        0.1200000        1.47277455    0.00000000
                                                     2        0.1600000       -4.06924166    0.00000000
                                                     2        0.3000000        5.02952802    0.00000000
                                                     2        0.7000000       -5.65856978    0.00000000
                                                     2        1.7000000        8.57604414    0.00000000
                                      P - G
                                                     0        0.0000010        0.49434425    0.00000000
                                                     2        0.1200000       -1.37391547    0.00000000
                                                     2        0.1600000        3.65411806    0.00000000
                                                     2        0.2800000       -7.36479843    0.00000000
                                                     2        0.6000000       17.22091285    0.00000000
                                                     2        1.1000000      -23.50107827    0.00000000
                                                     2        3.0000000       16.29464063    0.00000000
                                      D - G
                                                     0        0.0000010       -0.28693103    0.00000000
                                                     2        0.1200000        0.12273044    0.00000000
                                                     2        0.3000000       -0.43416384    0.00000000
                                                     2        0.7000000        2.23358493    0.00000000
                                      F - G
                                                     0        0.0000010        0.07263570    0.00000000
                                                     2        0.1400000       -0.76152861    0.00000000
                                                     2        0.2200000        1.98045593    0.00000000
                                                     2        0.4000000       -2.42426427    0.00000000
                                                     2        0.7000000        0.52335237    0.00000000
    3          1            1
                                      F and up 
                                                     0        0.0000010        0.00072061    0.00000000
                                                     2        0.1200000        0.03832357    0.00000000
                                                     2        0.1400000       -0.08683256    0.00000000
                                                     2        0.1800000        0.09312970    0.00000000
                                                     2        0.2800000       -0.02532572    0.00000000
                                                     2        0.4000000       -0.09430787    0.00000000
                                                     2        0.7000000        0.42710831    0.00000000
                                                     2        1.2000000       -2.11746981    0.00000000
                                      S - F
                                                     0        0.0000010        0.14449603    0.00000000
                                                     2        0.1200000       -0.56378993    0.00000000
                                                     2        0.1400000        0.63941249    0.00000000
                                                     2        0.2600000       -0.58461015    0.00000000
                                                     2        0.5000000        1.00157293    0.00000000
                                                     2        1.8000000       -0.14135838    0.00000000
                                      P - F
                                                     0        0.0000010       -0.09353646    0.00000000
                                                     2        0.1200000        0.31768975    0.00000000
                                                     2        0.2000000       -0.71747951    0.00000000
                                                     2        0.4000000        0.65752308    0.00000000
                                                     2        1.7000000        2.94052587    0.00000000
                                      D - F
                                                     0        0.0000010       -0.04491202    0.00000000
                                                     2        0.1200000       -0.02862031    0.00000000
                                                     2        0.1800000       -0.21515263    0.00000000
                                                     2        0.3000000        0.80560647    0.00000000
                                                     2        0.4000000        0.47351754    0.00000000
                                                     2        0.7000000       -4.57051794    0.00000000
                                                     2        1.6000000       18.53737826    0.00000000
    4          1            1
                                      F and up 
                                                     0        0.0000010        0.00072061    0.00000000
                                                     2        0.1200000        0.03832357    0.00000000
                                                     2        0.1400000       -0.08683256    0.00000000
                                                     2        0.1800000        0.09312970    0.00000000
                                                     2        0.2800000       -0.02532572    0.00000000
                                                     2        0.4000000       -0.09430787    0.00000000
                                                     2        0.7000000        0.42710831    0.00000000
                                                     2        1.2000000       -2.11746981    0.00000000
                                      S - F
                                                     0        0.0000010        0.14449603    0.00000000
                                                     2        0.1200000       -0.56378993    0.00000000
                                                     2        0.1400000        0.63941249    0.00000000
                                                     2        0.2600000       -0.58461015    0.00000000
                                                     2        0.5000000        1.00157293    0.00000000
                                                     2        1.8000000       -0.14135838    0.00000000
                                      P - F
                                                     0        0.0000010       -0.09353646    0.00000000
                                                     2        0.1200000        0.31768975    0.00000000
                                                     2        0.2000000       -0.71747951    0.00000000
                                                     2        0.4000000        0.65752308    0.00000000
                                                     2        1.7000000        2.94052587    0.00000000
                                      D - F
                                                     0        0.0000010       -0.04491202    0.00000000
                                                     2        0.1200000       -0.02862031    0.00000000
                                                     2        0.1800000       -0.21515263    0.00000000
                                                     2        0.3000000        0.80560647    0.00000000
                                                     2        0.4000000        0.47351754    0.00000000
                                                     2        0.7000000       -4.57051794    0.00000000
                                                     2        1.6000000       18.53737826    0.00000000
    5          1            1
                                      F and up 
                                                     0        0.0000010        0.00072061    0.00000000
                                                     2        0.1200000        0.03832357    0.00000000
                                                     2        0.1400000       -0.08683256    0.00000000
                                                     2        0.1800000        0.09312970    0.00000000
                                                     2        0.2800000       -0.02532572    0.00000000
                                                     2        0.4000000       -0.09430787    0.00000000
                                                     2        0.7000000        0.42710831    0.00000000
                                                     2        1.2000000       -2.11746981    0.00000000
                                      S - F
                                                     0        0.0000010        0.14449603    0.00000000
                                                     2        0.1200000       -0.56378993    0.00000000
                                                     2        0.1400000        0.63941249    0.00000000
                                                     2        0.2600000       -0.58461015    0.00000000
                                                     2        0.5000000        1.00157293    0.00000000
                                                     2        1.8000000       -0.14135838    0.00000000
                                      P - F
                                                     0        0.0000010       -0.09353646    0.00000000
                                                     2        0.1200000        0.31768975    0.00000000
                                                     2        0.2000000       -0.71747951    0.00000000
                                                     2        0.4000000        0.65752308    0.00000000
                                                     2        1.7000000        2.94052587    0.00000000
                                      D - F
                                                     0        0.0000010       -0.04491202    0.00000000
                                                     2        0.1200000       -0.02862031    0.00000000
                                                     2        0.1800000       -0.21515263    0.00000000
                                                     2        0.3000000        0.80560647    0.00000000
                                                     2        0.4000000        0.47351754    0.00000000
                                                     2        0.7000000       -4.57051794    0.00000000
                                                     2        1.6000000       18.53737826    0.00000000
    6          9            9
                                      G and up 
                                                     0        0.0000010       -0.00152163    0.00000000
                                                     2        0.1200000       -0.09043016    0.00000000
                                                     2        0.1400000        0.25628512    0.00000000
                                                     2        0.2000000       -0.31987377    0.00000000
                                                     2        0.3000000        0.48912429    0.00000000
                                                     2        0.4000000        0.12183688    0.00000000
                                                     2        0.6000000       -0.79963093    0.00000000
                                                     2        1.3000000        1.98943307    0.00000000
                                      S - G
                                                     0        0.0000010       -0.05404402    0.00000000
                                                     2        0.1200000        1.31674577    0.00000000
                                                     2        0.2400000       -4.28550771    0.00000000
                                                     2        0.8000000        7.13027769    0.00000000
                                      P - G
                                                     0        0.0000010       -0.03280113    0.00000000
                                                     2        0.1200000       -0.11684768    0.00000000
                                                     2        0.2200000       -0.54710751    0.00000000
                                                     2        0.6000000        1.00412264    0.00000000
                                      D - G
                                                     0        0.0000010       -0.09872413    0.00000000
                                                     2        0.1600000        0.32020158    0.00000000
                                                     2        0.5000000       -3.54424892    0.00000000
                                      F - G
                                                     0        0.0000010        0.17152509    0.00000000
                                                     2        0.1200000       -0.51731546    0.00000000
                                                     2        0.4000000        2.52461867    0.00000000
    7          9            9
                                      G and up 
                                                     0        0.0000010       -0.00152163    0.00000000
                                                     2        0.1200000       -0.09043016    0.00000000
                                                     2        0.1400000        0.25628512    0.00000000
                                                     2        0.2000000       -0.31987377    0.00000000
                                                     2        0.3000000        0.48912429    0.00000000
                                                     2        0.4000000        0.12183688    0.00000000
                                                     2        0.6000000       -0.79963093    0.00000000
                                                     2        1.3000000        1.98943307    0.00000000
                                      S - G
                                                     0        0.0000010       -0.05404402    0.00000000
                                                     2        0.1200000        1.31674577    0.00000000
                                                     2        0.2400000       -4.28550771    0.00000000
                                                     2        0.8000000        7.13027769    0.00000000
                                      P - G
                                                     0        0.0000010       -0.03280113    0.00000000
                                                     2        0.1200000       -0.11684768    0.00000000
                                                     2        0.2200000       -0.54710751    0.00000000
                                                     2        0.6000000        1.00412264    0.00000000
                                      D - G
                                                     0        0.0000010       -0.09872413    0.00000000
                                                     2        0.1600000        0.32020158    0.00000000
                                                     2        0.5000000       -3.54424892    0.00000000
                                      F - G
                                                     0        0.0000010        0.17152509    0.00000000
                                                     2        0.1200000       -0.51731546    0.00000000
                                                     2        0.4000000        2.52461867    0.00000000
    8          9            9
                                      G and up 
                                                     0        0.0000010       -0.00152163    0.00000000
                                                     2        0.1200000       -0.09043016    0.00000000
                                                     2        0.1400000        0.25628512    0.00000000
                                                     2        0.2000000       -0.31987377    0.00000000
                                                     2        0.3000000        0.48912429    0.00000000
                                                     2        0.4000000        0.12183688    0.00000000
                                                     2        0.6000000       -0.79963093    0.00000000
                                                     2        1.3000000        1.98943307    0.00000000
                                      S - G
                                                     0        0.0000010       -0.05404402    0.00000000
                                                     2        0.1200000        1.31674577    0.00000000
                                                     2        0.2400000       -4.28550771    0.00000000
                                                     2        0.8000000        7.13027769    0.00000000
                                      P - G
                                                     0        0.0000010       -0.03280113    0.00000000
                                                     2        0.1200000       -0.11684768    0.00000000
                                                     2        0.2200000       -0.54710751    0.00000000
                                                     2        0.6000000        1.00412264    0.00000000
                                      D - G
                                                     0        0.0000010       -0.09872413    0.00000000
                                                     2        0.1600000        0.32020158    0.00000000
                                                     2        0.5000000       -3.54424892    0.00000000
                                      F - G
                                                     0        0.0000010        0.17152509    0.00000000
                                                     2        0.1200000       -0.51731546    0.00000000
                                                     2        0.4000000        2.52461867    0.00000000
 ======================================================================================================
   142 basis functions,   248 primitive gaussians,   152 cartesian basis functions
    21 alpha electrons       21 beta electrons
       nuclear repulsion energy       200.8861802928 Hartrees.
 NAtoms=    8 NActive=    8 NUniq=    6 SFac= 1.78D+00 NAtFMM=   60 NAOKFM=F Big=F
   2 Symmetry operations used in ECPInt.
 ECPInt:  NShTT=    1830 NPrTT=    9550 LenC2=    1831 LenP2D=    7592.
 LDataN:  DoStor=T MaxTD1= 6 Len=  172
 Initial guess from the checkpoint file:  "1-1-1-trifluoroethane.chk"
 B after Tr=    -0.000000    0.000000    0.000000
         Rot=    0.707107   -0.000000    0.707107   -0.000000 Ang=  90.00 deg.
 Initial guess orbital symmetries:
       Occupied  (A') (A") (A') (A') (A') (A') (A') (A") (A') (A')
                 (A') (A") (A') (A') (A") (A') (A") (A") (A") (A')
                 (A')
       Virtual   (A') (A") (A') (A') (A') (A') (A") (A') (A") (A')
                 (A') (A") (A') (A') (A") (A') (A") (A') (A") (A')
                 (A') (A") (A") (A') (A') (A') (A') (A") (A') (A")
                 (A') (A') (A") (A') (A") (A') (A') (A") (A') (A")
                 (A') (A') (A') (A') (A") (A") (A') (A") (A') (A')
                 (A") (A') (A') (A') (A") (A') (A') (A") (A") (A')
                 (A") (A') (A") (A') (A') (A") (A') (A") (A') (A")
                 (A') (A") (A') (A') (A") (A") (A') (A") (A') (A')
                 (A") (A') (A") (A") (A') (A') (A") (A') (A') (A")
                 (A') (A') (A") (A') (A') (A") (A') (A") (A') (A')
                 (A') (A') (A") (A') (A") (A') (A") (A') (A") (A')
                 (A") (A') (A') (A") (A') (A') (A") (A') (A") (A')
                 (A")
 >>>>>>>>>> Convergence criterion not met.
 SCF Done:  E(RHF) =  -377.256022575     A.U. after    2 cycles
            NFock=  1  Conv=0.19D+00     -V/T= 2.0883

 **********************************************************************

            Population analysis using the SCF Density.

 **********************************************************************

 Orbital symmetries:
       Occupied  (A') (A") (A') (A') (A') (A') (A') (A') (A") (A')
                 (A") (A') (A') (A") (A') (A') (A") (A') (A') (A")
                 (A")
       Virtual   (A') (A") (A') (A') (A') (A") (A') (A') (A') (A")
                 (A') (A") (A') (A') (A') (A") (A') (A') (A") (A")
                 (A") (A') (A') (A") (A') (A') (A') (A") (A') (A")
                 (A') (A") (A') (A') (A") (A') (A') (A") (A") (A')
                 (A') (A') (A') (A") (A') (A') (A") (A") (A') (A")
                 (A') (A") (A") (A') (A') (A") (A') (A") (A') (A')
                 (A") (A') (A") (A') (A') (A") (A') (A') (A') (A")
                 (A') (A") (A') (A") (A') (A") (A') (A') (A") (A")
                 (A') (A') (A") (A") (A') (A') (A") (A') (A') (A")
                 (A') (A') (A') (A") (A') (A") (A') (A') (A") (A')
                 (A') (A') (A") (A") (A") (A') (A') (A") (A') (A')
                 (A') (A") (A') (A") (A") (A') (A") (A') (A') (A")
                 (A')
 The electronic state is 1-A'.
 Alpha  occ. eigenvalues --  -29.30187 -29.30187 -29.30117 -11.59547 -11.40818
 Alpha  occ. eigenvalues --   -1.42458  -1.06692  -0.87740  -0.87740  -0.70158
 Alpha  occ. eigenvalues --   -0.58744  -0.58744  -0.47545  -0.42969  -0.42969
 Alpha  occ. eigenvalues --   -0.35414  -0.35414  -0.30310  -0.24694  -0.24694
 Alpha  occ. eigenvalues --   -0.20807
 Alpha virt. eigenvalues --    0.04109   0.06016   0.06016   0.10408   0.10902
 Alpha virt. eigenvalues --    0.12725   0.12725   0.16519   0.16738   0.16738
 Alpha virt. eigenvalues --    0.22365   0.23696   0.23696   0.26494   0.26775
 Alpha virt. eigenvalues --    0.26775   0.30757   0.31163   0.31163   0.34719
 Alpha virt. eigenvalues --    0.36716   0.36716   0.38973   0.39007   0.39007
 Alpha virt. eigenvalues --    0.42730   0.45317   0.45317   0.47908   0.50604
 Alpha virt. eigenvalues --    0.50829   0.50913   0.50913   0.56512   0.56512
 Alpha virt. eigenvalues --    0.58002   0.60502   0.60502   0.60945   0.60945
 Alpha virt. eigenvalues --    0.65209   0.66537   0.68370   0.68370   0.70408
 Alpha virt. eigenvalues --    0.72614   0.72614   0.74886   0.74886   0.84461
 Alpha virt. eigenvalues --    0.87197   0.87197   0.95618   0.95618   0.97088
 Alpha virt. eigenvalues --    1.02791   1.02791   1.05175   1.06934   1.11796
 Alpha virt. eigenvalues --    1.11796   1.18570   1.26094   1.26094   1.29157
 Alpha virt. eigenvalues --    1.38409   1.38409   1.63439   1.68849   1.68849
 Alpha virt. eigenvalues --    1.74856   1.74856   1.82137   1.93034   1.99147
 Alpha virt. eigenvalues --    1.99147   2.12556   2.15935   2.15935   2.28629
 Alpha virt. eigenvalues --    2.34392   2.39627   2.39627   2.43764   2.43764
 Alpha virt. eigenvalues --    2.47049   2.53265   2.53265   2.54137   2.54137
 Alpha virt. eigenvalues --    2.63066   2.73763   2.83955   2.91208   2.91208
 Alpha virt. eigenvalues --    3.11454   3.11454   3.12344   3.21746   3.21746
 Alpha virt. eigenvalues --    3.33651   3.60502   3.60502   3.60990   3.65212
 Alpha virt. eigenvalues --    3.65212   3.71056   3.71056   3.71691   3.77129
 Alpha virt. eigenvalues --    3.79690   3.79690   3.88253   3.88253   3.98142
 Alpha virt. eigenvalues --    3.99941   4.18752   4.18752   4.89180   4.93027
 Alpha virt. eigenvalues --    4.93027
          Condensed to atoms (all electrons):
 Mulliken charges:
               1
     1  C   -4.301050
     2  C   -0.385106
     3  H    1.151740
     4  H    1.151740
     5  H    1.151740
     6  F    0.410313
     7  F    0.410311
     8  F    0.410311
 Sum of Mulliken charges =  -0.00000
 Mulliken charges with hydrogens summed into heavy atoms:
               1
     1  C   -0.845829
     2  C   -0.385106
     6  F    0.410313
     7  F    0.410311
     8  F    0.410311
 Electronic spatial extent (au):  <R**2>=            368.1200
 Charge=             -0.0000 electrons
 Dipole moment (field-independent basis, Debye):
    X=              0.9709    Y=              0.0000    Z=              0.0000  Tot=              0.9709

 Test job not archived.
 1\1\GINC-SE046\SP\RHF\Aug-CC-pVDZ\C2H3F3\OHZDE\06-Apr-2025\0\\#t hf au
 g-cc-pvdz iop(5/13=1,5/36=2,99/5=2) pseudo=read geom=check guess=(read
 ,tcheck) scf=(maxcycle=1)\\title\\0,1\C,0,0.,0.,1.478573\C,0,0.,0.,-0.
 023472\H,0,0.,-1.026225,1.838151\H,0,0.888737,0.513112,1.838151\H,0,-0
 .888737,0.513112,1.838151\F,0,0.,1.253973,-0.527595\F,0,-1.085973,-0.6
 26987,-0.527595\F,0,1.085973,-0.626987,-0.527595\\Version=ES64L-G16Rev
 C.01\State=1-A'\HF=-377.2560226\RMSD=1.912e-01\Dipole=0.,0.0000003,-0.
 3819732\Quadrupole=0.1082422,0.1082434,-0.2164857,0.,0.,-0.0000009\PG=
 CS [SG(C2H1F1),X(H2F2)]\\@


 THE UNDERLYING PHYSICAL LAWS NECESSARY FOR THE 
 MATHEMATICAL THEORY OF A LARGE PART OF PHYSICS AND THE
 WHOLE OF CHEMISTRY ARE THUS COMPLETELY KNOWN, AND THE
 DIFFICULTY IS ONLY THAT THE EXACT APPLICATION OF THESE
 LAWS LEADS TO EQUATIONS MUCH TOO COMPLICATED 
 TO BE SOLUBLE.

                                        -- P. A. M. DIRAC, 1929
 Job cpu time:       0 days  0 hours  0 minutes 16.6 seconds.
 Elapsed time:       0 days  0 hours  0 minutes  1.8 seconds.
 File lengths (MBytes):  RWF=      6 Int=      0 D2E=      0 Chk=      4 Scr=      1
 Normal termination of Gaussian 16 at Sun Apr  6 07:11:49 2025.
