 Entering Gaussian System, Link 0=g16
 Input=1-2-3-thiadiazole-23H-carbonitrile.gjf
 Output=1-2-3-thiadiazole-23H-carbonitrile.log
 Initial command:
 /arc/software/Gaussian/g16.c01/l1.exe "/tmp/slurm/4819142/Gau-4133470.inp" -scrdir="/tmp/slurm/4819142/"
 Entering Link 1 = /arc/software/Gaussian/g16.c01/l1.exe PID=   4133471.
  
 Copyright (c) 1988-2019, Gaussian, Inc.  All Rights Reserved.
  
 This is part of the Gaussian(R) 16 program.  It is based on
 the Gaussian(R) 09 system (copyright 2009, Gaussian, Inc.),
 the Gaussian(R) 03 system (copyright 2003, Gaussian, Inc.),
 the Gaussian(R) 98 system (copyright 1998, Gaussian, Inc.),
 the Gaussian(R) 94 system (copyright 1995, Gaussian, Inc.),
 the Gaussian 92(TM) system (copyright 1992, Gaussian, Inc.),
 the Gaussian 90(TM) system (copyright 1990, Gaussian, Inc.),
 the Gaussian 88(TM) system (copyright 1988, Gaussian, Inc.),
 the Gaussian 86(TM) system (copyright 1986, Carnegie Mellon
 University), and the Gaussian 82(TM) system (copyright 1983,
 Carnegie Mellon University). Gaussian is a federally registered
 trademark of Gaussian, Inc.
  
 This software contains proprietary and confidential information,
 including trade secrets, belonging to Gaussian, Inc.
  
 This software is provided under written license and may be
 used, copied, transmitted, or stored only in accord with that
 written license.
  
 The following legend is applicable only to US Government
 contracts under FAR:
  
                    RESTRICTED RIGHTS LEGEND
  
 Use, reproduction and disclosure by the US Government is
 subject to restrictions as set forth in subparagraphs (a)
 and (c) of the Commercial Computer Software - Restricted
 Rights clause in FAR 52.227-19.
  
 Gaussian, Inc.
 340 Quinnipiac St., Bldg. 40, Wallingford CT 06492
  
  
 ---------------------------------------------------------------
 Warning -- This program may not be used in any manner that
 competes with the business of Gaussian, Inc. or will provide
 assistance to any competitor of Gaussian, Inc.  The licensee
 of this program is prohibited from giving any competitor of
 Gaussian, Inc. access to this program.  By using this program,
 the user acknowledges that Gaussian, Inc. is engaged in the
 business of creating and licensing software in the field of
 computational chemistry and represents and warrants to the
 licensee that it is not a competitor of Gaussian, Inc. and that
 it will not use this program in any manner prohibited above.
 ---------------------------------------------------------------
  

 Cite this work as:
 Gaussian 16, Revision C.01,
 M. J. Frisch, G. W. Trucks, H. B. Schlegel, G. E. Scuseria, 
 M. A. Robb, J. R. Cheeseman, G. Scalmani, V. Barone, 
 G. A. Petersson, H. Nakatsuji, X. Li, M. Caricato, A. V. Marenich, 
 J. Bloino, B. G. Janesko, R. Gomperts, B. Mennucci, H. P. Hratchian, 
 J. V. Ortiz, A. F. Izmaylov, J. L. Sonnenberg, D. Williams-Young, 
 F. Ding, F. Lipparini, F. Egidi, J. Goings, B. Peng, A. Petrone, 
 T. Henderson, D. Ranasinghe, V. G. Zakrzewski, J. Gao, N. Rega, 
 G. Zheng, W. Liang, M. Hada, M. Ehara, K. Toyota, R. Fukuda, 
 J. Hasegawa, M. Ishida, T. Nakajima, Y. Honda, O. Kitao, H. Nakai, 
 T. Vreven, K. Throssell, J. A. Montgomery, Jr., J. E. Peralta, 
 F. Ogliaro, M. J. Bearpark, J. J. Heyd, E. N. Brothers, K. N. Kudin, 
 V. N. Staroverov, T. A. Keith, R. Kobayashi, J. Normand, 
 K. Raghavachari, A. P. Rendell, J. C. Burant, S. S. Iyengar, 
 J. Tomasi, M. Cossi, J. M. Millam, M. Klene, C. Adamo, R. Cammi, 
 J. W. Ochterski, R. L. Martin, K. Morokuma, O. Farkas, 
 J. B. Foresman, and D. J. Fox, Gaussian, Inc., Wallingford CT, 2019.
 
 ******************************************
 Gaussian 16:  ES64L-G16RevC.01  3-Jul-2019
                 6-Apr-2025 
 ******************************************
 %nprocs=16
 Will use up to   16 processors via shared memory.
 %mem=30GB
 %chk=1-2-3-thiadiazole-23H-carbonitrile.chk
 ----------------------------------------------------------------------
 #t hf aug-cc-pvdz symm=none int=(grid=ultrafine) guess=(read,tcheck) s
 table=(opt,rrhf)
 ----------------------------------------------------------------------
 -----
 title
 -----
 Symbolic Z-matrix:
 Charge =  0 Multiplicity = 1
 S                     0.5965   -1.25431  -0.21591 
 N                    -0.52149   0.07846  -0.63067 
 N                     0.16163   1.33542  -0.52198 
 N                    -2.6901    0.00743   0.61765 
 C                     1.60036  -0.0837    0.65574 
 C                     1.26905   1.16926   0.36354 
 C                    -1.66784   0.05667   0.08361 
 H                     0.45065   1.61846  -1.45532 
 H                     2.39264  -0.41272   1.30678 
 H                     1.75297   2.06073   0.73073 
 
                    Distance matrix (angstroms):
                    1          2          3          4          5
     1  S    0.000000
     2  N    1.788356   0.000000
     3  N    2.643763   1.434711   0.000000
     4  N    3.617810   2.503241   3.345846   0.000000
     5  C    1.771395   2.486645   2.338991   4.291601   0.000000
     6  C    2.581038   2.320409   1.427630   4.133921   1.328553
     7  C    2.633553   1.350843   2.312763   1.154404   3.320866
     8  H    3.132129   1.999173   1.017236   4.093524   2.945469
     9  H    2.500595   3.533711   3.373090   5.146427   1.076941
    10  H    3.636349   3.309974   2.151211   4.895887   2.151162
                    6          7          8          9         10
     6  C    0.000000
     7  C    3.153013   0.000000
     8  H    2.044458   3.048846   0.000000
     9  H    2.157497   4.266608   3.940329   0.000000
    10  H    1.078764   4.017076   2.582720   2.618960   0.000000
 Symmetry turned off by external request.
 Rotational constants (GHZ):           4.0064242           2.1347990           1.6397744
   192 basis functions,   372 primitive gaussians,   206 cartesian basis functions
    29 alpha electrons       29 beta electrons
       nuclear repulsion energy       337.2162431384 Hartrees.
 NAtoms=   10 NActive=   10 NUniq=   10 SFac= 1.00D+00 NAtFMM=   60 NAOKFM=F Big=F
 ExpMin= 2.97D-02 ExpMax= 1.11D+05 ExpMxC= 1.07D+03 IAcc=3 IRadAn=         5 AccDes= 0.00D+00
 Harris functional with IExCor=  205 and IRadAn=       5 diagonalized for initial guess.
 HarFok:  IExCor=  205 AccDes= 0.00D+00 IRadAn=         5 IDoV= 1 UseB2=F ITyADJ=14
 ICtDFT=  3500011 ScaDFX=  1.000000  1.000000  1.000000  1.000000
 FoFCou: FMM=F IPFlag=           0 FMFlag=      100000 FMFlg1=           0
         NFxFlg=           0 DoJE=T BraDBF=F KetDBF=T FulRan=T
         wScrn=  0.000000 ICntrl=       500 IOpCl=  0 I1Cent=   200000004 NGrid=           0
         NMat0=    1 NMatS0=      1 NMatT0=    0 NMatD0=    1 NMtDS0=    0 NMtDT0=    0
 Symmetry not used in FoFCou.
 SCF Done:  E(RHF) =  -676.149699419     A.U. after   16 cycles
            NFock= 16  Conv=0.55D-08     -V/T= 2.0007

 **********************************************************************

            Population analysis using the SCF Density.

 **********************************************************************

 Alpha  occ. eigenvalues --  -92.03135 -15.68873 -15.65259 -15.57813 -11.31382
 Alpha  occ. eigenvalues --  -11.31206 -11.29950  -9.02947  -6.71118  -6.70966
 Alpha  occ. eigenvalues --   -6.70696  -1.38455  -1.22889  -1.14889  -1.10275
 Alpha  occ. eigenvalues --   -0.94168  -0.82373  -0.77186  -0.72908  -0.67361
 Alpha  occ. eigenvalues --   -0.62609  -0.57722  -0.55972  -0.53800  -0.50500
 Alpha  occ. eigenvalues --   -0.46626  -0.44777  -0.41812  -0.34243
 Alpha virt. eigenvalues --    0.02487   0.03651   0.04478   0.06839   0.07397
 Alpha virt. eigenvalues --    0.08473   0.09497   0.10885   0.11555   0.11767
 Alpha virt. eigenvalues --    0.12632   0.13235   0.14055   0.14598   0.15324
 Alpha virt. eigenvalues --    0.15679   0.16301   0.17935   0.18482   0.19650
 Alpha virt. eigenvalues --    0.20276   0.20296   0.21448   0.22883   0.24469
 Alpha virt. eigenvalues --    0.24783   0.25641   0.27044   0.28554   0.29241
 Alpha virt. eigenvalues --    0.29431   0.30724   0.32262   0.33568   0.34494
 Alpha virt. eigenvalues --    0.35403   0.36540   0.37888   0.38388   0.40600
 Alpha virt. eigenvalues --    0.41691   0.42762   0.43804   0.44649   0.45827
 Alpha virt. eigenvalues --    0.48594   0.48958   0.49526   0.50633   0.52673
 Alpha virt. eigenvalues --    0.53012   0.55026   0.55648   0.57751   0.58443
 Alpha virt. eigenvalues --    0.60394   0.62225   0.63194   0.65009   0.66218
 Alpha virt. eigenvalues --    0.67161   0.69577   0.70050   0.71365   0.72637
 Alpha virt. eigenvalues --    0.73825   0.74769   0.75734   0.77736   0.78508
 Alpha virt. eigenvalues --    0.81307   0.83367   0.84733   0.85300   0.87009
 Alpha virt. eigenvalues --    0.88556   0.89859   0.91720   0.94279   0.94752
 Alpha virt. eigenvalues --    0.95959   0.97530   1.00310   1.01650   1.04374
 Alpha virt. eigenvalues --    1.04465   1.07376   1.08189   1.08456   1.09861
 Alpha virt. eigenvalues --    1.13935   1.14259   1.18389   1.19414   1.21430
 Alpha virt. eigenvalues --    1.23067   1.24570   1.27835   1.29470   1.32250
 Alpha virt. eigenvalues --    1.34724   1.38532   1.43087   1.44915   1.46781
 Alpha virt. eigenvalues --    1.50739   1.52622   1.53292   1.58096   1.60100
 Alpha virt. eigenvalues --    1.63278   1.64382   1.67558   1.69753   1.72684
 Alpha virt. eigenvalues --    1.76296   1.78140   1.78935   1.81458   1.82328
 Alpha virt. eigenvalues --    1.87322   1.93405   1.94440   1.99795   2.02141
 Alpha virt. eigenvalues --    2.05016   2.07309   2.09027   2.11167   2.13960
 Alpha virt. eigenvalues --    2.19060   2.22644   2.28041   2.34376   2.37850
 Alpha virt. eigenvalues --    2.44078   2.46557   2.49920   2.51277   2.55496
 Alpha virt. eigenvalues --    2.57843   2.62862   2.64093   2.65788   2.67564
 Alpha virt. eigenvalues --    2.69995   2.71636   2.75236   2.75772   2.78434
 Alpha virt. eigenvalues --    2.86413   2.93016   2.95316   3.05420   3.10871
 Alpha virt. eigenvalues --    3.15911   3.22709   3.29639   3.46977   3.54796
 Alpha virt. eigenvalues --    3.61826   3.69149   3.92229
          Condensed to atoms (all electrons):
 Mulliken charges:
               1
     1  S    0.586421
     2  N   -0.532172
     3  N   -0.394093
     4  N   -0.370612
     5  C    0.162592
     6  C    0.717534
     7  C    0.320235
     8  H    0.087034
     9  H   -0.355259
    10  H   -0.221681
 Sum of Mulliken charges =  -0.00000
 Mulliken charges with hydrogens summed into heavy atoms:
               1
     1  S    0.586421
     2  N   -0.532172
     3  N   -0.307059
     4  N   -0.370612
     5  C   -0.192667
     6  C    0.495853
     7  C    0.320235
 Electronic spatial extent (au):  <R**2>=            745.5337
 Charge=             -0.0000 electrons
 Dipole moment (field-independent basis, Debye):
    X=              5.7300    Y=              1.0480    Z=             -1.0228  Tot=              5.9142
 NROrb=    192 NOA=    29 NOB=    29 NVA=   163 NVB=   163

 **** Warning!!: The largest alpha MO coefficient is  0.39058342D+02

    12 initial guesses have been made.
 Iteration     1 Dimension    12 NMult     0 NNew     12
 Iteration     2 Dimension    24 NMult    12 NNew     12
 Iteration     3 Dimension    27 NMult    24 NNew      3
 Iteration     4 Dimension    30 NMult    27 NNew      3
 Iteration     5 Dimension    33 NMult    30 NNew      3
 Iteration     6 Dimension    36 NMult    33 NNew      3
 Iteration     7 Dimension    39 NMult    36 NNew      3
 ***********************************************************************
 Stability analysis using <AA,BB:AA,BB> singles matrix:
 ***********************************************************************
 Ground to excited state transition densities written to RWF  633

 Eigenvectors of the stability matrix:
 
 Excited state symmetry could not be determined.
 Eigenvector   1:      Singlet-?Sym  Eigenvalue= 0.1632316  <S**2>=0.000
      27 -> 33         0.11346
      29 -> 31        -0.17709
      29 -> 33         0.47559
      29 -> 34         0.18853
      29 -> 35        -0.15024
      29 -> 38        -0.15491
      29 -> 39         0.10764
      29 -> 43         0.16234
      29 -> 44        -0.12230
 The wavefunction is stable under the perturbations considered.
 The wavefunction is already stable.

 **********************************************************************

            Population analysis using the SCF Density.

 **********************************************************************

 Alpha  occ. eigenvalues --  -92.03135 -15.68873 -15.65259 -15.57813 -11.31382
 Alpha  occ. eigenvalues --  -11.31206 -11.29950  -9.02947  -6.71118  -6.70966
 Alpha  occ. eigenvalues --   -6.70696  -1.38455  -1.22889  -1.14889  -1.10275
 Alpha  occ. eigenvalues --   -0.94168  -0.82373  -0.77186  -0.72908  -0.67361
 Alpha  occ. eigenvalues --   -0.62609  -0.57722  -0.55972  -0.53800  -0.50500
 Alpha  occ. eigenvalues --   -0.46626  -0.44777  -0.41812  -0.34243
 Alpha virt. eigenvalues --    0.02487   0.03651   0.04478   0.06839   0.07397
 Alpha virt. eigenvalues --    0.08473   0.09497   0.10885   0.11555   0.11767
 Alpha virt. eigenvalues --    0.12632   0.13235   0.14055   0.14598   0.15324
 Alpha virt. eigenvalues --    0.15679   0.16301   0.17935   0.18482   0.19650
 Alpha virt. eigenvalues --    0.20276   0.20296   0.21448   0.22883   0.24469
 Alpha virt. eigenvalues --    0.24783   0.25641   0.27044   0.28554   0.29241
 Alpha virt. eigenvalues --    0.29431   0.30724   0.32262   0.33568   0.34494
 Alpha virt. eigenvalues --    0.35403   0.36540   0.37888   0.38388   0.40600
 Alpha virt. eigenvalues --    0.41691   0.42762   0.43804   0.44649   0.45827
 Alpha virt. eigenvalues --    0.48594   0.48958   0.49526   0.50633   0.52673
 Alpha virt. eigenvalues --    0.53012   0.55026   0.55648   0.57751   0.58443
 Alpha virt. eigenvalues --    0.60394   0.62225   0.63194   0.65009   0.66218
 Alpha virt. eigenvalues --    0.67161   0.69577   0.70050   0.71365   0.72637
 Alpha virt. eigenvalues --    0.73825   0.74769   0.75734   0.77736   0.78508
 Alpha virt. eigenvalues --    0.81307   0.83367   0.84733   0.85300   0.87009
 Alpha virt. eigenvalues --    0.88556   0.89859   0.91720   0.94279   0.94752
 Alpha virt. eigenvalues --    0.95959   0.97530   1.00310   1.01650   1.04374
 Alpha virt. eigenvalues --    1.04465   1.07376   1.08189   1.08456   1.09861
 Alpha virt. eigenvalues --    1.13935   1.14259   1.18389   1.19414   1.21430
 Alpha virt. eigenvalues --    1.23067   1.24570   1.27835   1.29470   1.32250
 Alpha virt. eigenvalues --    1.34724   1.38532   1.43087   1.44915   1.46781
 Alpha virt. eigenvalues --    1.50739   1.52622   1.53292   1.58096   1.60100
 Alpha virt. eigenvalues --    1.63278   1.64382   1.67558   1.69753   1.72684
 Alpha virt. eigenvalues --    1.76296   1.78140   1.78935   1.81458   1.82328
 Alpha virt. eigenvalues --    1.87322   1.93405   1.94440   1.99795   2.02141
 Alpha virt. eigenvalues --    2.05016   2.07309   2.09027   2.11167   2.13960
 Alpha virt. eigenvalues --    2.19060   2.22644   2.28041   2.34376   2.37850
 Alpha virt. eigenvalues --    2.44078   2.46557   2.49920   2.51277   2.55496
 Alpha virt. eigenvalues --    2.57843   2.62862   2.64093   2.65788   2.67564
 Alpha virt. eigenvalues --    2.69995   2.71636   2.75236   2.75772   2.78434
 Alpha virt. eigenvalues --    2.86413   2.93016   2.95316   3.05420   3.10871
 Alpha virt. eigenvalues --    3.15911   3.22709   3.29639   3.46977   3.54796
 Alpha virt. eigenvalues --    3.61826   3.69149   3.92229
          Condensed to atoms (all electrons):
 Mulliken charges:
               1
     1  S    0.586421
     2  N   -0.532172
     3  N   -0.394093
     4  N   -0.370612
     5  C    0.162592
     6  C    0.717534
     7  C    0.320235
     8  H    0.087034
     9  H   -0.355259
    10  H   -0.221681
 Sum of Mulliken charges =  -0.00000
 Mulliken charges with hydrogens summed into heavy atoms:
               1
     1  S    0.586421
     2  N   -0.532172
     3  N   -0.307059
     4  N   -0.370612
     5  C   -0.192667
     6  C    0.495853
     7  C    0.320235
 Electronic spatial extent (au):  <R**2>=            745.5337
 Charge=             -0.0000 electrons
 Dipole moment (field-independent basis, Debye):
    X=              5.7300    Y=              1.0480    Z=             -1.0228  Tot=              5.9142
 Unable to Open any file for archive entry.
 1\1\GINC-SE177\Stability\RHF\Aug-CC-pVDZ\C3H3N3S1\OHZDE\06-Apr-2025\0\
 \#t hf aug-cc-pvdz symm=none int=(grid=ultrafine) guess=(read,tcheck) 
 stable=(opt,rrhf)\\title\\0,1\S,0,0.596501,-1.254311,-0.215908\N,0,-0.
 521489,0.078464,-0.630668\N,0,0.16163,1.335417,-0.52198\N,0,-2.690102,
 0.007425,0.617646\C,0,1.600362,-0.083701,0.655744\C,0,1.269049,1.16925
 6,0.363538\C,0,-1.667835,0.056671,0.08361\H,0,0.450648,1.618461,-1.455
 32\H,0,2.392643,-0.412715,1.306776\H,0,1.752966,2.060731,0.730728\\Ver
 sion=ES64L-G16RevC.01\HF=-676.1496994\RMSD=5.532e-09\Dipole=2.25437,0.
 412301,-0.4024109\Quadrupole=-4.8766625,3.4218205,1.454842,1.5450121,4
 .5501113,-1.5177973\PG=Unknown\\@
 The archive entry for this job was punched.


 Sorry, no quote for you today!
 Job cpu time:       0 days  0 hours  2 minutes  8.0 seconds.
 Elapsed time:       0 days  0 hours  0 minutes 16.4 seconds.
 File lengths (MBytes):  RWF=    212 Int=      0 D2E=      0 Chk=      6 Scr=      1
 Normal termination of Gaussian 16 at Sun Apr  6 07:57:00 2025.
 Initial command:
 /arc/software/Gaussian/g16.c01/l1.exe "/tmp/slurm/4819142/Gau-4133470.inp" -scrdir="/tmp/slurm/4819142/"
 Entering Link 1 = /arc/software/Gaussian/g16.c01/l1.exe PID=   4133682.
  
 Copyright (c) 1988-2019, Gaussian, Inc.  All Rights Reserved.
  
 This is part of the Gaussian(R) 16 program.  It is based on
 the Gaussian(R) 09 system (copyright 2009, Gaussian, Inc.),
 the Gaussian(R) 03 system (copyright 2003, Gaussian, Inc.),
 the Gaussian(R) 98 system (copyright 1998, Gaussian, Inc.),
 the Gaussian(R) 94 system (copyright 1995, Gaussian, Inc.),
 the Gaussian 92(TM) system (copyright 1992, Gaussian, Inc.),
 the Gaussian 90(TM) system (copyright 1990, Gaussian, Inc.),
 the Gaussian 88(TM) system (copyright 1988, Gaussian, Inc.),
 the Gaussian 86(TM) system (copyright 1986, Carnegie Mellon
 University), and the Gaussian 82(TM) system (copyright 1983,
 Carnegie Mellon University). Gaussian is a federally registered
 trademark of Gaussian, Inc.
  
 This software contains proprietary and confidential information,
 including trade secrets, belonging to Gaussian, Inc.
  
 This software is provided under written license and may be
 used, copied, transmitted, or stored only in accord with that
 written license.
  
 The following legend is applicable only to US Government
 contracts under FAR:
  
                    RESTRICTED RIGHTS LEGEND
  
 Use, reproduction and disclosure by the US Government is
 subject to restrictions as set forth in subparagraphs (a)
 and (c) of the Commercial Computer Software - Restricted
 Rights clause in FAR 52.227-19.
  
 Gaussian, Inc.
 340 Quinnipiac St., Bldg. 40, Wallingford CT 06492
  
  
 ---------------------------------------------------------------
 Warning -- This program may not be used in any manner that
 competes with the business of Gaussian, Inc. or will provide
 assistance to any competitor of Gaussian, Inc.  The licensee
 of this program is prohibited from giving any competitor of
 Gaussian, Inc. access to this program.  By using this program,
 the user acknowledges that Gaussian, Inc. is engaged in the
 business of creating and licensing software in the field of
 computational chemistry and represents and warrants to the
 licensee that it is not a competitor of Gaussian, Inc. and that
 it will not use this program in any manner prohibited above.
 ---------------------------------------------------------------
  

 Cite this work as:
 Gaussian 16, Revision C.01,
 M. J. Frisch, G. W. Trucks, H. B. Schlegel, G. E. Scuseria, 
 M. A. Robb, J. R. Cheeseman, G. Scalmani, V. Barone, 
 G. A. Petersson, H. Nakatsuji, X. Li, M. Caricato, A. V. Marenich, 
 J. Bloino, B. G. Janesko, R. Gomperts, B. Mennucci, H. P. Hratchian, 
 J. V. Ortiz, A. F. Izmaylov, J. L. Sonnenberg, D. Williams-Young, 
 F. Ding, F. Lipparini, F. Egidi, J. Goings, B. Peng, A. Petrone, 
 T. Henderson, D. Ranasinghe, V. G. Zakrzewski, J. Gao, N. Rega, 
 G. Zheng, W. Liang, M. Hada, M. Ehara, K. Toyota, R. Fukuda, 
 J. Hasegawa, M. Ishida, T. Nakajima, Y. Honda, O. Kitao, H. Nakai, 
 T. Vreven, K. Throssell, J. A. Montgomery, Jr., J. E. Peralta, 
 F. Ogliaro, M. J. Bearpark, J. J. Heyd, E. N. Brothers, K. N. Kudin, 
 V. N. Staroverov, T. A. Keith, R. Kobayashi, J. Normand, 
 K. Raghavachari, A. P. Rendell, J. C. Burant, S. S. Iyengar, 
 J. Tomasi, M. Cossi, J. M. Millam, M. Klene, C. Adamo, R. Cammi, 
 J. W. Ochterski, R. L. Martin, K. Morokuma, O. Farkas, 
 J. B. Foresman, and D. J. Fox, Gaussian, Inc., Wallingford CT, 2019.
 
 ******************************************
 Gaussian 16:  ES64L-G16RevC.01  3-Jul-2019
                 6-Apr-2025 
 ******************************************
 %nprocs=16
 Will use up to   16 processors via shared memory.
 %mem=30GB
 %chk=1-2-3-thiadiazole-23H-carbonitrile.chk
 ----------------------------------------------------------------------
 #t hf aug-cc-pvdz iop(5/13=1,5/36=2,99/5=2) pseudo=read geom=check gue
 ss=(read,tcheck) scf=(maxcycle=1)
 ----------------------------------------------------------------------
 -----
 title
 -----
 Structure from the checkpoint file:  "1-2-3-thiadiazole-23H-carbonitrile.chk"
 Charge =  0 Multiplicity = 1
 Z-Matrix found in chk file.
 S,0,0.596501,-1.254311,-0.215908
 N,0,-0.521489,0.078464,-0.630668
 N,0,0.16163,1.335417,-0.52198
 N,0,-2.690102,0.007425,0.617646
 C,0,1.600362,-0.083701,0.655744
 C,0,1.269049,1.169256,0.363538
 C,0,-1.667835,0.056671,0.08361
 H,0,0.450648,1.618461,-1.45532
 H,0,2.392643,-0.412715,1.306776
 H,0,1.752966,2.060731,0.730728
 Recover connectivity data from disk.
                    Distance matrix (angstroms):
                    1          2          3          4          5
     1  S    0.000000
     2  N    1.788356   0.000000
     3  N    2.643763   1.434711   0.000000
     4  N    3.617810   2.503241   3.345846   0.000000
     5  C    1.771395   2.486645   2.338991   4.291601   0.000000
     6  C    2.581038   2.320409   1.427630   4.133921   1.328553
     7  C    2.633553   1.350843   2.312763   1.154404   3.320866
     8  H    3.132129   1.999173   1.017236   4.093524   2.945469
     9  H    2.500595   3.533711   3.373090   5.146427   1.076941
    10  H    3.636349   3.309974   2.151211   4.895887   2.151162
                    6          7          8          9         10
     6  C    0.000000
     7  C    3.153013   0.000000
     8  H    2.044458   3.048846   0.000000
     9  H    2.157497   4.266608   3.940329   0.000000
    10  H    1.078764   4.017076   2.582720   2.618960   0.000000
 Framework group  C1[X(C3H3N3S)]
 Deg. of freedom    24
                         Standard orientation:                         
 ---------------------------------------------------------------------
 Center     Atomic      Atomic             Coordinates (Angstroms)
 Number     Number       Type             X           Y           Z
 ---------------------------------------------------------------------
      1         16           0        0.596501   -1.254311   -0.215908
      2          7           0       -0.521489    0.078464   -0.630668
      3          7           0        0.161630    1.335417   -0.521980
      4          7           0       -2.690102    0.007425    0.617646
      5          6           0        1.600362   -0.083701    0.655744
      6          6           0        1.269049    1.169256    0.363538
      7          6           0       -1.667835    0.056671    0.083610
      8          1           0        0.450648    1.618461   -1.455320
      9          1           0        2.392643   -0.412715    1.306776
     10          1           0        1.752966    2.060731    0.730728
 ---------------------------------------------------------------------
 Rotational constants (GHZ):           4.0064242           2.1347990           1.6397744
 ======================================================================================================
                                       Pseudopotential Parameters
 ======================================================================================================
  Center     Atomic      Valence      Angular      Power
  Number     Number     Electrons     Momentum     of R      Exponent        Coefficient   SO-Coeffient
 ======================================================================================================
    1         16           16
                                      G and up 
                                                     0        0.0000010       -0.00444167    0.00000000
                                                     2        0.1200000        0.11677988    0.00000000
                                                     2        0.1400000       -0.22050378    0.00000000
                                                     2        0.1800000        0.26452031    0.00000000
                                                     2        0.2800000       -0.04353316    0.00000000
                                                     2        0.5000000       -1.18567514    0.00000000
                                      S - G
                                                     0        0.0000010        0.03992419    0.00000000
                                                     2        0.1200000       -0.56926432    0.00000000
                                                     2        0.3000000        0.88393965    0.00000000
                                      P - G
                                                     0        0.0000010       -0.92181603    0.00000000
                                                     2        0.1200000        1.30681810    0.00000000
                                                     2        0.2000000       -1.50828653    0.00000000
                                                     2        0.2400000       -2.25148793    0.00000000
                                                     2        0.6000000       10.10218731    0.00000000
                                      D - G
                                                     0        0.0000010        0.72039481    0.00000000
                                                     2        0.1200000       -0.56105075    0.00000000
                                                     2        0.2000000        0.42910414    0.00000000
                                                     2        0.8000000        0.44203418    0.00000000
                                      F - G
                                                     2        0.1200000       -0.62623060    0.00000000
                                                     2        0.1800000        0.89777932    0.00000000
                                                     2        0.5000000       -1.32991832    0.00000000
    2          7            7
                                      G and up 
                                                     0        0.0000010        0.00420138    0.00000000
                                                     2        0.1200000        0.05872431    0.00000000
                                                     2        0.1400000       -0.08436978    0.00000000
                                                     2        0.2000000        0.05409159    0.00000000
                                                     2        0.2600000        0.14199713    0.00000000
                                                     2        0.6000000       -0.79062770    0.00000000
                                                     2        0.7000000       -0.14441060    0.00000000
                                                     2        1.5000000        0.73772979    0.00000000
                                      S - G
                                                     0        0.0000010       -0.03094411    0.00000000
                                                     2        0.1200000        0.65332522    0.00000000
                                                     2        0.1800000       -1.38149133    0.00000000
                                                     2        1.3000000        3.29267299    0.00000000
                                      P - G
                                                     0        0.0000010        0.07303105    0.00000000
                                                     2        0.1200000        0.23145115    0.00000000
                                                     2        0.2000000       -1.20679699    0.00000000
                                                     2        0.4000000        1.75088447    0.00000000
                                                     2        1.2000000       -0.67486559    0.00000000
                                      D - G
                                                     0        0.0000010        0.07560739    0.00000000
                                                     2        0.3000000       -0.68679114    0.00000000
                                                     2        0.9000000        3.60133241    0.00000000
                                      F - G
                                                     0        0.0000010       -0.18221184    0.00000000
                                                     2        0.1200000       -0.39369067    0.00000000
                                                     2        0.1800000        0.72091725    0.00000000
                                                     2        0.6000000        0.15946111    0.00000000
    3          7            7
                                      G and up 
                                                     0        0.0000010        0.00420138    0.00000000
                                                     2        0.1200000        0.05872431    0.00000000
                                                     2        0.1400000       -0.08436978    0.00000000
                                                     2        0.2000000        0.05409159    0.00000000
                                                     2        0.2600000        0.14199713    0.00000000
                                                     2        0.6000000       -0.79062770    0.00000000
                                                     2        0.7000000       -0.14441060    0.00000000
                                                     2        1.5000000        0.73772979    0.00000000
                                      S - G
                                                     0        0.0000010       -0.03094411    0.00000000
                                                     2        0.1200000        0.65332522    0.00000000
                                                     2        0.1800000       -1.38149133    0.00000000
                                                     2        1.3000000        3.29267299    0.00000000
                                      P - G
                                                     0        0.0000010        0.07303105    0.00000000
                                                     2        0.1200000        0.23145115    0.00000000
                                                     2        0.2000000       -1.20679699    0.00000000
                                                     2        0.4000000        1.75088447    0.00000000
                                                     2        1.2000000       -0.67486559    0.00000000
                                      D - G
                                                     0        0.0000010        0.07560739    0.00000000
                                                     2        0.3000000       -0.68679114    0.00000000
                                                     2        0.9000000        3.60133241    0.00000000
                                      F - G
                                                     0        0.0000010       -0.18221184    0.00000000
                                                     2        0.1200000       -0.39369067    0.00000000
                                                     2        0.1800000        0.72091725    0.00000000
                                                     2        0.6000000        0.15946111    0.00000000
    4          7            7
                                      G and up 
                                                     0        0.0000010        0.00420138    0.00000000
                                                     2        0.1200000        0.05872431    0.00000000
                                                     2        0.1400000       -0.08436978    0.00000000
                                                     2        0.2000000        0.05409159    0.00000000
                                                     2        0.2600000        0.14199713    0.00000000
                                                     2        0.6000000       -0.79062770    0.00000000
                                                     2        0.7000000       -0.14441060    0.00000000
                                                     2        1.5000000        0.73772979    0.00000000
                                      S - G
                                                     0        0.0000010       -0.03094411    0.00000000
                                                     2        0.1200000        0.65332522    0.00000000
                                                     2        0.1800000       -1.38149133    0.00000000
                                                     2        1.3000000        3.29267299    0.00000000
                                      P - G
                                                     0        0.0000010        0.07303105    0.00000000
                                                     2        0.1200000        0.23145115    0.00000000
                                                     2        0.2000000       -1.20679699    0.00000000
                                                     2        0.4000000        1.75088447    0.00000000
                                                     2        1.2000000       -0.67486559    0.00000000
                                      D - G
                                                     0        0.0000010        0.07560739    0.00000000
                                                     2        0.3000000       -0.68679114    0.00000000
                                                     2        0.9000000        3.60133241    0.00000000
                                      F - G
                                                     0        0.0000010       -0.18221184    0.00000000
                                                     2        0.1200000       -0.39369067    0.00000000
                                                     2        0.1800000        0.72091725    0.00000000
                                                     2        0.6000000        0.15946111    0.00000000
    5          6            6
                                      G and up 
                                                     0        0.0000010       -0.00286759    0.00000000
                                                     2        0.1200000        0.03193960    0.00000000
                                                     2        0.1600000       -0.04027782    0.00000000
                                                     2        0.2600000        0.24782456    0.00000000
                                                     2        0.4000000       -0.62266671    0.00000000
                                                     2        0.7000000        0.35695227    0.00000000
                                      S - G
                                                     0        0.0000010       -0.06602313    0.00000000
                                                     2        0.1200000        1.47277455    0.00000000
                                                     2        0.1600000       -4.06924166    0.00000000
                                                     2        0.3000000        5.02952802    0.00000000
                                                     2        0.7000000       -5.65856978    0.00000000
                                                     2        1.7000000        8.57604414    0.00000000
                                      P - G
                                                     0        0.0000010        0.49434425    0.00000000
                                                     2        0.1200000       -1.37391547    0.00000000
                                                     2        0.1600000        3.65411806    0.00000000
                                                     2        0.2800000       -7.36479843    0.00000000
                                                     2        0.6000000       17.22091285    0.00000000
                                                     2        1.1000000      -23.50107827    0.00000000
                                                     2        3.0000000       16.29464063    0.00000000
                                      D - G
                                                     0        0.0000010       -0.28693103    0.00000000
                                                     2        0.1200000        0.12273044    0.00000000
                                                     2        0.3000000       -0.43416384    0.00000000
                                                     2        0.7000000        2.23358493    0.00000000
                                      F - G
                                                     0        0.0000010        0.07263570    0.00000000
                                                     2        0.1400000       -0.76152861    0.00000000
                                                     2        0.2200000        1.98045593    0.00000000
                                                     2        0.4000000       -2.42426427    0.00000000
                                                     2        0.7000000        0.52335237    0.00000000
    6          6            6
                                      G and up 
                                                     0        0.0000010       -0.00286759    0.00000000
                                                     2        0.1200000        0.03193960    0.00000000
                                                     2        0.1600000       -0.04027782    0.00000000
                                                     2        0.2600000        0.24782456    0.00000000
                                                     2        0.4000000       -0.62266671    0.00000000
                                                     2        0.7000000        0.35695227    0.00000000
                                      S - G
                                                     0        0.0000010       -0.06602313    0.00000000
                                                     2        0.1200000        1.47277455    0.00000000
                                                     2        0.1600000       -4.06924166    0.00000000
                                                     2        0.3000000        5.02952802    0.00000000
                                                     2        0.7000000       -5.65856978    0.00000000
                                                     2        1.7000000        8.57604414    0.00000000
                                      P - G
                                                     0        0.0000010        0.49434425    0.00000000
                                                     2        0.1200000       -1.37391547    0.00000000
                                                     2        0.1600000        3.65411806    0.00000000
                                                     2        0.2800000       -7.36479843    0.00000000
                                                     2        0.6000000       17.22091285    0.00000000
                                                     2        1.1000000      -23.50107827    0.00000000
                                                     2        3.0000000       16.29464063    0.00000000
                                      D - G
                                                     0        0.0000010       -0.28693103    0.00000000
                                                     2        0.1200000        0.12273044    0.00000000
                                                     2        0.3000000       -0.43416384    0.00000000
                                                     2        0.7000000        2.23358493    0.00000000
                                      F - G
                                                     0        0.0000010        0.07263570    0.00000000
                                                     2        0.1400000       -0.76152861    0.00000000
                                                     2        0.2200000        1.98045593    0.00000000
                                                     2        0.4000000       -2.42426427    0.00000000
                                                     2        0.7000000        0.52335237    0.00000000
    7          6            6
                                      G and up 
                                                     0        0.0000010       -0.00286759    0.00000000
                                                     2        0.1200000        0.03193960    0.00000000
                                                     2        0.1600000       -0.04027782    0.00000000
                                                     2        0.2600000        0.24782456    0.00000000
                                                     2        0.4000000       -0.62266671    0.00000000
                                                     2        0.7000000        0.35695227    0.00000000
                                      S - G
                                                     0        0.0000010       -0.06602313    0.00000000
                                                     2        0.1200000        1.47277455    0.00000000
                                                     2        0.1600000       -4.06924166    0.00000000
                                                     2        0.3000000        5.02952802    0.00000000
                                                     2        0.7000000       -5.65856978    0.00000000
                                                     2        1.7000000        8.57604414    0.00000000
                                      P - G
                                                     0        0.0000010        0.49434425    0.00000000
                                                     2        0.1200000       -1.37391547    0.00000000
                                                     2        0.1600000        3.65411806    0.00000000
                                                     2        0.2800000       -7.36479843    0.00000000
                                                     2        0.6000000       17.22091285    0.00000000
                                                     2        1.1000000      -23.50107827    0.00000000
                                                     2        3.0000000       16.29464063    0.00000000
                                      D - G
                                                     0        0.0000010       -0.28693103    0.00000000
                                                     2        0.1200000        0.12273044    0.00000000
                                                     2        0.3000000       -0.43416384    0.00000000
                                                     2        0.7000000        2.23358493    0.00000000
                                      F - G
                                                     0        0.0000010        0.07263570    0.00000000
                                                     2        0.1400000       -0.76152861    0.00000000
                                                     2        0.2200000        1.98045593    0.00000000
                                                     2        0.4000000       -2.42426427    0.00000000
                                                     2        0.7000000        0.52335237    0.00000000
    8          1            1
                                      F and up 
                                                     0        0.0000010        0.00072061    0.00000000
                                                     2        0.1200000        0.03832357    0.00000000
                                                     2        0.1400000       -0.08683256    0.00000000
                                                     2        0.1800000        0.09312970    0.00000000
                                                     2        0.2800000       -0.02532572    0.00000000
                                                     2        0.4000000       -0.09430787    0.00000000
                                                     2        0.7000000        0.42710831    0.00000000
                                                     2        1.2000000       -2.11746981    0.00000000
                                      S - F
                                                     0        0.0000010        0.14449603    0.00000000
                                                     2        0.1200000       -0.56378993    0.00000000
                                                     2        0.1400000        0.63941249    0.00000000
                                                     2        0.2600000       -0.58461015    0.00000000
                                                     2        0.5000000        1.00157293    0.00000000
                                                     2        1.8000000       -0.14135838    0.00000000
                                      P - F
                                                     0        0.0000010       -0.09353646    0.00000000
                                                     2        0.1200000        0.31768975    0.00000000
                                                     2        0.2000000       -0.71747951    0.00000000
                                                     2        0.4000000        0.65752308    0.00000000
                                                     2        1.7000000        2.94052587    0.00000000
                                      D - F
                                                     0        0.0000010       -0.04491202    0.00000000
                                                     2        0.1200000       -0.02862031    0.00000000
                                                     2        0.1800000       -0.21515263    0.00000000
                                                     2        0.3000000        0.80560647    0.00000000
                                                     2        0.4000000        0.47351754    0.00000000
                                                     2        0.7000000       -4.57051794    0.00000000
                                                     2        1.6000000       18.53737826    0.00000000
    9          1            1
                                      F and up 
                                                     0        0.0000010        0.00072061    0.00000000
                                                     2        0.1200000        0.03832357    0.00000000
                                                     2        0.1400000       -0.08683256    0.00000000
                                                     2        0.1800000        0.09312970    0.00000000
                                                     2        0.2800000       -0.02532572    0.00000000
                                                     2        0.4000000       -0.09430787    0.00000000
                                                     2        0.7000000        0.42710831    0.00000000
                                                     2        1.2000000       -2.11746981    0.00000000
                                      S - F
                                                     0        0.0000010        0.14449603    0.00000000
                                                     2        0.1200000       -0.56378993    0.00000000
                                                     2        0.1400000        0.63941249    0.00000000
                                                     2        0.2600000       -0.58461015    0.00000000
                                                     2        0.5000000        1.00157293    0.00000000
                                                     2        1.8000000       -0.14135838    0.00000000
                                      P - F
                                                     0        0.0000010       -0.09353646    0.00000000
                                                     2        0.1200000        0.31768975    0.00000000
                                                     2        0.2000000       -0.71747951    0.00000000
                                                     2        0.4000000        0.65752308    0.00000000
                                                     2        1.7000000        2.94052587    0.00000000
                                      D - F
                                                     0        0.0000010       -0.04491202    0.00000000
                                                     2        0.1200000       -0.02862031    0.00000000
                                                     2        0.1800000       -0.21515263    0.00000000
                                                     2        0.3000000        0.80560647    0.00000000
                                                     2        0.4000000        0.47351754    0.00000000
                                                     2        0.7000000       -4.57051794    0.00000000
                                                     2        1.6000000       18.53737826    0.00000000
   10          1            1
                                      F and up 
                                                     0        0.0000010        0.00072061    0.00000000
                                                     2        0.1200000        0.03832357    0.00000000
                                                     2        0.1400000       -0.08683256    0.00000000
                                                     2        0.1800000        0.09312970    0.00000000
                                                     2        0.2800000       -0.02532572    0.00000000
                                                     2        0.4000000       -0.09430787    0.00000000
                                                     2        0.7000000        0.42710831    0.00000000
                                                     2        1.2000000       -2.11746981    0.00000000
                                      S - F
                                                     0        0.0000010        0.14449603    0.00000000
                                                     2        0.1200000       -0.56378993    0.00000000
                                                     2        0.1400000        0.63941249    0.00000000
                                                     2        0.2600000       -0.58461015    0.00000000
                                                     2        0.5000000        1.00157293    0.00000000
                                                     2        1.8000000       -0.14135838    0.00000000
                                      P - F
                                                     0        0.0000010       -0.09353646    0.00000000
                                                     2        0.1200000        0.31768975    0.00000000
                                                     2        0.2000000       -0.71747951    0.00000000
                                                     2        0.4000000        0.65752308    0.00000000
                                                     2        1.7000000        2.94052587    0.00000000
                                      D - F
                                                     0        0.0000010       -0.04491202    0.00000000
                                                     2        0.1200000       -0.02862031    0.00000000
                                                     2        0.1800000       -0.21515263    0.00000000
                                                     2        0.3000000        0.80560647    0.00000000
                                                     2        0.4000000        0.47351754    0.00000000
                                                     2        0.7000000       -4.57051794    0.00000000
                                                     2        1.6000000       18.53737826    0.00000000
 ======================================================================================================
   192 basis functions,   372 primitive gaussians,   206 cartesian basis functions
    29 alpha electrons       29 beta electrons
       nuclear repulsion energy       337.2162431384 Hartrees.
 NAtoms=   10 NActive=   10 NUniq=   10 SFac= 1.00D+00 NAtFMM=   60 NAOKFM=F Big=F
   1 Symmetry operations used in ECPInt.
 ECPInt:  NShTT=    3240 NPrTT=   20904 LenC2=    3234 LenP2D=   15221.
 LDataN:  DoStor=T MaxTD1= 6 Len=  172
 Initial guess from the checkpoint file:  "1-2-3-thiadiazole-23H-carbonitrile.chk"
 B after Tr=    -0.000000    0.000000    0.000000
         Rot=    1.000000   -0.000000    0.000000    0.000000 Ang=   0.00 deg.
 >>>>>>>>>> Convergence criterion not met.
 SCF Done:  E(RHF) =  -677.627915350     A.U. after    2 cycles
            NFock=  1  Conv=0.54D+00     -V/T= 1.9973

 **********************************************************************

            Population analysis using the SCF Density.

 **********************************************************************

 Orbital symmetries:
       Occupied  (A) (A) (A) (A) (A) (A) (A) (A) (A) (A) (A) (A)
                 (A) (A) (A) (A) (A) (A) (A) (A) (A) (A) (A) (A)
                 (A) (A) (A) (A) (A)
       Virtual   (A) (A) (A) (A) (A) (A) (A) (A) (A) (A) (A) (A)
                 (A) (A) (A) (A) (A) (A) (A) (A) (A) (A) (A) (A)
                 (A) (A) (A) (A) (A) (A) (A) (A) (A) (A) (A) (A)
                 (A) (A) (A) (A) (A) (A) (A) (A) (A) (A) (A) (A)
                 (A) (A) (A) (A) (A) (A) (A) (A) (A) (A) (A) (A)
                 (A) (A) (A) (A) (A) (A) (A) (A) (A) (A) (A) (A)
                 (A) (A) (A) (A) (A) (A) (A) (A) (A) (A) (A) (A)
                 (A) (A) (A) (A) (A) (A) (A) (A) (A) (A) (A) (A)
                 (A) (A) (A) (A) (A) (A) (A) (A) (A) (A) (A) (A)
                 (A) (A) (A) (A) (A) (A) (A) (A) (A) (A) (A) (A)
                 (A) (A) (A) (A) (A) (A) (A) (A) (A) (A) (A) (A)
                 (A) (A) (A) (A) (A) (A) (A) (A) (A) (A) (A) (A)
                 (A) (A) (A) (A) (A) (A) (A) (A) (A) (A) (A) (A)
                 (A) (A) (A) (A) (A) (A) (A)
 The electronic state is 1-A.
 Alpha  occ. eigenvalues --  -75.75159 -15.82870 -15.80648 -15.75447 -13.19600
 Alpha  occ. eigenvalues --  -13.17597 -13.09287 -11.48097 -11.45326 -11.42563
 Alpha  occ. eigenvalues --   -8.09170  -1.60747  -1.32533  -1.23736  -1.21455
 Alpha  occ. eigenvalues --   -0.99434  -0.85018  -0.77297  -0.71994  -0.66111
 Alpha  occ. eigenvalues --   -0.59597  -0.54846  -0.52766  -0.49409  -0.45284
 Alpha  occ. eigenvalues --   -0.42602  -0.38449  -0.36266  -0.24746
 Alpha virt. eigenvalues --    0.02302   0.04179   0.05160   0.06411   0.08182
 Alpha virt. eigenvalues --    0.09255   0.09946   0.10438   0.12407   0.12682
 Alpha virt. eigenvalues --    0.13146   0.13270   0.13921   0.15264   0.15576
 Alpha virt. eigenvalues --    0.16026   0.17029   0.18414   0.18875   0.19230
 Alpha virt. eigenvalues --    0.19989   0.20854   0.21751   0.23257   0.24444
 Alpha virt. eigenvalues --    0.24583   0.25694   0.26228   0.28154   0.28972
 Alpha virt. eigenvalues --    0.30388   0.32148   0.33777   0.34584   0.35677
 Alpha virt. eigenvalues --    0.36202   0.37267   0.37464   0.38986   0.40582
 Alpha virt. eigenvalues --    0.41934   0.42383   0.43078   0.44998   0.46572
 Alpha virt. eigenvalues --    0.46937   0.49349   0.50484   0.51260   0.51324
 Alpha virt. eigenvalues --    0.54274   0.55482   0.56482   0.57701   0.58966
 Alpha virt. eigenvalues --    0.61900   0.63430   0.63811   0.64979   0.67211
 Alpha virt. eigenvalues --    0.67773   0.68323   0.69983   0.71691   0.73332
 Alpha virt. eigenvalues --    0.74561   0.76628   0.77528   0.78965   0.80573
 Alpha virt. eigenvalues --    0.82068   0.83425   0.85184   0.87071   0.90237
 Alpha virt. eigenvalues --    0.90630   0.91793   0.93452   0.94916   0.98415
 Alpha virt. eigenvalues --    0.99436   1.01084   1.05004   1.07722   1.09964
 Alpha virt. eigenvalues --    1.10418   1.11684   1.16818   1.19157   1.19809
 Alpha virt. eigenvalues --    1.21827   1.22990   1.25829   1.28254   1.30469
 Alpha virt. eigenvalues --    1.32107   1.35377   1.38422   1.39843   1.40794
 Alpha virt. eigenvalues --    1.46146   1.48616   1.55513   1.59074   1.61456
 Alpha virt. eigenvalues --    1.67899   1.69883   1.73824   1.74362   1.78386
 Alpha virt. eigenvalues --    1.81218   1.82996   1.84967   1.87352   1.90481
 Alpha virt. eigenvalues --    1.92952   1.94715   1.95827   1.97548   1.98371
 Alpha virt. eigenvalues --    2.05972   2.08677   2.12376   2.18063   2.22537
 Alpha virt. eigenvalues --    2.23172   2.26707   2.28294   2.30365   2.35091
 Alpha virt. eigenvalues --    2.40096   2.41636   2.51089   2.56110   2.62605
 Alpha virt. eigenvalues --    2.66412   2.70262   2.73651   2.79462   2.84760
 Alpha virt. eigenvalues --    2.92331   2.95239   2.99074   3.00362   3.02139
 Alpha virt. eigenvalues --    3.04114   3.07520   3.13065   3.14592   3.16838
 Alpha virt. eigenvalues --    3.26225   3.33999   3.39747   3.46085   3.52893
 Alpha virt. eigenvalues --    3.61494   3.65897   3.73738   3.88985   4.02669
 Alpha virt. eigenvalues --    4.20749   4.28064   4.34808
          Condensed to atoms (all electrons):
 Mulliken charges:
               1
     1  S    1.015432
     2  N   -1.482423
     3  N   -2.062034
     4  N   -2.874640
     5  C   -1.478740
     6  C   -0.271299
     7  C    3.952450
     8  H    0.632916
     9  H    1.243934
    10  H    1.324402
 Sum of Mulliken charges =  -0.00000
 Mulliken charges with hydrogens summed into heavy atoms:
               1
     1  S    1.015432
     2  N   -1.482423
     3  N   -1.429118
     4  N   -2.874640
     5  C   -0.234806
     6  C    1.053103
     7  C    3.952450
 Electronic spatial extent (au):  <R**2>=            766.6719
 Charge=             -0.0000 electrons
 Dipole moment (field-independent basis, Debye):
    X=              4.8604    Y=             -0.8545    Z=             -1.4329  Tot=              5.1388

 Test job not archived.
 1\1\GINC-SE177\SP\RHF\Aug-CC-pVDZ\C3H3N3S1\OHZDE\06-Apr-2025\0\\#t hf 
 aug-cc-pvdz iop(5/13=1,5/36=2,99/5=2) pseudo=read geom=check guess=(re
 ad,tcheck) scf=(maxcycle=1)\\title\\0,1\S,0,0.596501,-1.254311,-0.2159
 08\N,0,-0.521489,0.078464,-0.630668\N,0,0.16163,1.335417,-0.52198\N,0,
 -2.690102,0.007425,0.617646\C,0,1.600362,-0.083701,0.655744\C,0,1.2690
 49,1.169256,0.363538\C,0,-1.667835,0.056671,0.08361\H,0,0.450648,1.618
 461,-1.45532\H,0,2.392643,-0.412715,1.306776\H,0,1.752966,2.060731,0.7
 30728\\Version=ES64L-G16RevC.01\State=1-A\HF=-677.6279154\RMSD=5.441e-
 01\Dipole=1.9122442,-0.336199,-0.5637567\Quadrupole=-5.3171245,4.99800
 17,0.3191228,0.4227555,4.0994224,-0.9225579\PG=C01 [X(C3H3N3S1)]\\@


 ALMOST ANYTHING IS EASIER TO GET INTO THAN OUT OF.

                         -- AGNES ALLEN'S LAW FROM
                PAUL DICKSON'S "THE OFFICIAL RULES"
 Job cpu time:       0 days  0 hours  0 minutes 52.7 seconds.
 Elapsed time:       0 days  0 hours  0 minutes  4.8 seconds.
 File lengths (MBytes):  RWF=     10 Int=      0 D2E=      0 Chk=      6 Scr=      1
 Normal termination of Gaussian 16 at Sun Apr  6 07:57:05 2025.
