 Entering Gaussian System, Link 0=g16
 Input=1-3-dioxolan-2-one.gjf
 Output=1-3-dioxolan-2-one.log
 Initial command:
 /arc/software/Gaussian/g16.c01/l1.exe "/tmp/slurm/4819230/Gau-74696.inp" -scrdir="/tmp/slurm/4819230/"
 Entering Link 1 = /arc/software/Gaussian/g16.c01/l1.exe PID=     74713.
  
 Copyright (c) 1988-2019, Gaussian, Inc.  All Rights Reserved.
  
 This is part of the Gaussian(R) 16 program.  It is based on
 the Gaussian(R) 09 system (copyright 2009, Gaussian, Inc.),
 the Gaussian(R) 03 system (copyright 2003, Gaussian, Inc.),
 the Gaussian(R) 98 system (copyright 1998, Gaussian, Inc.),
 the Gaussian(R) 94 system (copyright 1995, Gaussian, Inc.),
 the Gaussian 92(TM) system (copyright 1992, Gaussian, Inc.),
 the Gaussian 90(TM) system (copyright 1990, Gaussian, Inc.),
 the Gaussian 88(TM) system (copyright 1988, Gaussian, Inc.),
 the Gaussian 86(TM) system (copyright 1986, Carnegie Mellon
 University), and the Gaussian 82(TM) system (copyright 1983,
 Carnegie Mellon University). Gaussian is a federally registered
 trademark of Gaussian, Inc.
  
 This software contains proprietary and confidential information,
 including trade secrets, belonging to Gaussian, Inc.
  
 This software is provided under written license and may be
 used, copied, transmitted, or stored only in accord with that
 written license.
  
 The following legend is applicable only to US Government
 contracts under FAR:
  
                    RESTRICTED RIGHTS LEGEND
  
 Use, reproduction and disclosure by the US Government is
 subject to restrictions as set forth in subparagraphs (a)
 and (c) of the Commercial Computer Software - Restricted
 Rights clause in FAR 52.227-19.
  
 Gaussian, Inc.
 340 Quinnipiac St., Bldg. 40, Wallingford CT 06492
  
  
 ---------------------------------------------------------------
 Warning -- This program may not be used in any manner that
 competes with the business of Gaussian, Inc. or will provide
 assistance to any competitor of Gaussian, Inc.  The licensee
 of this program is prohibited from giving any competitor of
 Gaussian, Inc. access to this program.  By using this program,
 the user acknowledges that Gaussian, Inc. is engaged in the
 business of creating and licensing software in the field of
 computational chemistry and represents and warrants to the
 licensee that it is not a competitor of Gaussian, Inc. and that
 it will not use this program in any manner prohibited above.
 ---------------------------------------------------------------
  

 Cite this work as:
 Gaussian 16, Revision C.01,
 M. J. Frisch, G. W. Trucks, H. B. Schlegel, G. E. Scuseria, 
 M. A. Robb, J. R. Cheeseman, G. Scalmani, V. Barone, 
 G. A. Petersson, H. Nakatsuji, X. Li, M. Caricato, A. V. Marenich, 
 J. Bloino, B. G. Janesko, R. Gomperts, B. Mennucci, H. P. Hratchian, 
 J. V. Ortiz, A. F. Izmaylov, J. L. Sonnenberg, D. Williams-Young, 
 F. Ding, F. Lipparini, F. Egidi, J. Goings, B. Peng, A. Petrone, 
 T. Henderson, D. Ranasinghe, V. G. Zakrzewski, J. Gao, N. Rega, 
 G. Zheng, W. Liang, M. Hada, M. Ehara, K. Toyota, R. Fukuda, 
 J. Hasegawa, M. Ishida, T. Nakajima, Y. Honda, O. Kitao, H. Nakai, 
 T. Vreven, K. Throssell, J. A. Montgomery, Jr., J. E. Peralta, 
 F. Ogliaro, M. J. Bearpark, J. J. Heyd, E. N. Brothers, K. N. Kudin, 
 V. N. Staroverov, T. A. Keith, R. Kobayashi, J. Normand, 
 K. Raghavachari, A. P. Rendell, J. C. Burant, S. S. Iyengar, 
 J. Tomasi, M. Cossi, J. M. Millam, M. Klene, C. Adamo, R. Cammi, 
 J. W. Ochterski, R. L. Martin, K. Morokuma, O. Farkas, 
 J. B. Foresman, and D. J. Fox, Gaussian, Inc., Wallingford CT, 2019.
 
 ******************************************
 Gaussian 16:  ES64L-G16RevC.01  3-Jul-2019
                 6-Apr-2025 
 ******************************************
 %nprocs=16
 Will use up to   16 processors via shared memory.
 %mem=30GB
 %chk=1-3-dioxolan-2-one.chk
 ----------------------------------------------------------------------
 #t hf aug-cc-pvdz symm=none int=(grid=ultrafine) guess=(read,tcheck) s
 table=(opt,rrhf)
 ----------------------------------------------------------------------
 -----
 title
 -----
 Symbolic Z-matrix:
 Charge =  0 Multiplicity = 1
 C                     0.        0.        0.85199 
 C                    -0.16898   0.74597  -1.3018 
 C                     0.16898  -0.74597  -1.3018 
 O                     0.        0.        2.03976 
 O                     0.        1.11446   0.07456 
 O                     0.       -1.11446   0.07456 
 H                     0.50401   1.34592  -1.90847 
 H                    -1.20113   0.94405  -1.59219 
 H                    -0.50401  -1.34592  -1.90847 
 H                     1.20113  -0.94405  -1.59219 
 
                    Distance matrix (angstroms):
                    1          2          3          4          5
     1  C    0.000000
     2  C    2.285575   0.000000
     3  C    2.285575   1.529737   0.000000
     4  O    1.187764   3.427978   3.427978   0.000000
     5  O    1.358830   1.434817   2.320365   2.259209   0.000000
     6  O    1.358830   2.320365   1.434817   2.259209   2.228912
     7  H    3.112185   1.086698   2.203699   4.201672   2.059128
     8  H    2.882353   1.090362   2.194928   3.940172   2.061501
     9  H    3.112185   2.203699   1.086698   4.201672   3.199982
    10  H    2.882353   2.194928   1.090362   3.940172   2.908299
                    6          7          8          9         10
     6  O    0.000000
     7  H    3.199982   0.000000
     8  H    2.908299   1.780180   0.000000
     9  H    2.059128   2.874387   2.414537   0.000000
    10  H    2.061501   2.414537   3.055456   1.780180   0.000000
 Symmetry turned off by external request.
 Rotational constants (GHZ):           8.0679741           3.8334053           2.7049712
   174 basis functions,   302 primitive gaussians,   186 cartesian basis functions
    23 alpha electrons       23 beta electrons
       nuclear repulsion energy       246.2054040103 Hartrees.
 NAtoms=   10 NActive=   10 NUniq=   10 SFac= 1.00D+00 NAtFMM=   60 NAOKFM=F Big=F
 ExpMin= 2.97D-02 ExpMax= 1.17D+04 ExpMxC= 4.01D+02 IAcc=3 IRadAn=         5 AccDes= 0.00D+00
 Harris functional with IExCor=  205 and IRadAn=       5 diagonalized for initial guess.
 HarFok:  IExCor=  205 AccDes= 0.00D+00 IRadAn=         5 IDoV= 1 UseB2=F ITyADJ=14
 ICtDFT=  3500011 ScaDFX=  1.000000  1.000000  1.000000  1.000000
 FoFCou: FMM=F IPFlag=           0 FMFlag=      100000 FMFlg1=           0
         NFxFlg=           0 DoJE=T BraDBF=F KetDBF=T FulRan=T
         wScrn=  0.000000 ICntrl=       500 IOpCl=  0 I1Cent=   200000004 NGrid=           0
         NMat0=    1 NMatS0=      1 NMatT0=    0 NMatD0=    1 NMtDS0=    0 NMtDT0=    0
 Symmetry not used in FoFCou.
 SCF Done:  E(RHF) =  -340.581042747     A.U. after   13 cycles
            NFock= 13  Conv=0.48D-08     -V/T= 2.0015

 **********************************************************************

            Population analysis using the SCF Density.

 **********************************************************************

 Alpha  occ. eigenvalues --  -20.63611 -20.63607 -20.55957 -11.44743 -11.33220
 Alpha  occ. eigenvalues --  -11.33159  -1.53020  -1.40177  -1.39524  -1.06179
 Alpha  occ. eigenvalues --   -0.91899  -0.83935  -0.75108  -0.72788  -0.69758
 Alpha  occ. eigenvalues --   -0.64187  -0.63278  -0.61942  -0.57110  -0.54803
 Alpha  occ. eigenvalues --   -0.48434  -0.48041  -0.47176
 Alpha virt. eigenvalues --    0.02444   0.03999   0.04270   0.05964   0.07387
 Alpha virt. eigenvalues --    0.10498   0.10901   0.11487   0.11736   0.13691
 Alpha virt. eigenvalues --    0.14223   0.14714   0.15554   0.17017   0.18387
 Alpha virt. eigenvalues --    0.18963   0.21229   0.22851   0.25585   0.26105
 Alpha virt. eigenvalues --    0.26999   0.27125   0.30645   0.31381   0.31928
 Alpha virt. eigenvalues --    0.32062   0.32979   0.33566   0.34673   0.35527
 Alpha virt. eigenvalues --    0.37738   0.38027   0.39481   0.39800   0.41203
 Alpha virt. eigenvalues --    0.42768   0.43555   0.46150   0.47206   0.48361
 Alpha virt. eigenvalues --    0.50416   0.51902   0.52812   0.54757   0.56454
 Alpha virt. eigenvalues --    0.58029   0.59180   0.61177   0.63885   0.63934
 Alpha virt. eigenvalues --    0.65592   0.65936   0.66864   0.68261   0.71473
 Alpha virt. eigenvalues --    0.72488   0.74194   0.75285   0.78958   0.79688
 Alpha virt. eigenvalues --    0.79785   0.80042   0.84066   0.86514   0.87769
 Alpha virt. eigenvalues --    0.88379   0.89866   0.93993   0.97777   1.02304
 Alpha virt. eigenvalues --    1.04255   1.06761   1.09066   1.13691   1.14747
 Alpha virt. eigenvalues --    1.15302   1.16641   1.16786   1.19600   1.26982
 Alpha virt. eigenvalues --    1.27363   1.31093   1.31553   1.33040   1.38334
 Alpha virt. eigenvalues --    1.38502   1.46614   1.51200   1.51870   1.56598
 Alpha virt. eigenvalues --    1.61508   1.63399   1.63726   1.72882   1.75469
 Alpha virt. eigenvalues --    1.76972   1.78981   1.79969   1.82033   1.85017
 Alpha virt. eigenvalues --    1.86701   1.88074   1.89935   1.92779   1.95994
 Alpha virt. eigenvalues --    2.00512   2.01167   2.07347   2.10174   2.11173
 Alpha virt. eigenvalues --    2.12845   2.23096   2.25058   2.27468   2.29909
 Alpha virt. eigenvalues --    2.32112   2.36164   2.42433   2.46976   2.47836
 Alpha virt. eigenvalues --    2.51764   2.53159   2.62530   2.68010   2.76684
 Alpha virt. eigenvalues --    2.78795   2.79221   2.86102   2.87733   2.95718
 Alpha virt. eigenvalues --    2.97164   3.05641   3.09469   3.23598   3.40875
 Alpha virt. eigenvalues --    3.44608   3.69936   3.71647   3.74117   3.74403
 Alpha virt. eigenvalues --    3.74850   3.77266   3.82930   3.88266   3.89758
 Alpha virt. eigenvalues --    3.90646   3.97534   4.02781   4.07091   4.19594
 Alpha virt. eigenvalues --    4.32971
          Condensed to atoms (all electrons):
 Mulliken charges:
               1
     1  C    1.305478
     2  C    0.841027
     3  C    0.841027
     4  O   -0.661778
     5  O   -0.815326
     6  O   -0.815326
     7  H   -0.152335
     8  H   -0.195216
     9  H   -0.152335
    10  H   -0.195216
 Sum of Mulliken charges =  -0.00000
 Mulliken charges with hydrogens summed into heavy atoms:
               1
     1  C    1.305478
     2  C    0.493476
     3  C    0.493476
     4  O   -0.661778
     5  O   -0.815326
     6  O   -0.815326
 Electronic spatial extent (au):  <R**2>=            457.4381
 Charge=             -0.0000 electrons
 Dipole moment (field-independent basis, Debye):
    X=             -0.0000    Y=              0.0000    Z=             -5.9714  Tot=              5.9714
 NROrb=    174 NOA=    23 NOB=    23 NVA=   151 NVB=   151

 **** Warning!!: The largest alpha MO coefficient is  0.31589323D+02

    12 initial guesses have been made.
 Iteration     1 Dimension    12 NMult     0 NNew     12
 New state      1 was old state      3
 Iteration     2 Dimension    24 NMult    12 NNew     12
 Iteration     3 Dimension    27 NMult    24 NNew      3
 Iteration     4 Dimension    30 NMult    27 NNew      3
 Iteration     5 Dimension    33 NMult    30 NNew      3
 Iteration     6 Dimension    36 NMult    33 NNew      3
 ***********************************************************************
 Stability analysis using <AA,BB:AA,BB> singles matrix:
 ***********************************************************************
 Ground to excited state transition densities written to RWF  633

 Eigenvectors of the stability matrix:
 
 Excited state symmetry could not be determined.
 Eigenvector   1:      Singlet-?Sym  Eigenvalue= 0.2916703  <S**2>=0.000
      22 -> 36        -0.14397
      22 -> 38        -0.17803
      22 -> 40         0.51524
      22 -> 45         0.12057
      23 -> 40        -0.26538
 The wavefunction is stable under the perturbations considered.
 The wavefunction is already stable.

 **********************************************************************

            Population analysis using the SCF Density.

 **********************************************************************

 Alpha  occ. eigenvalues --  -20.63611 -20.63607 -20.55957 -11.44743 -11.33220
 Alpha  occ. eigenvalues --  -11.33159  -1.53020  -1.40177  -1.39524  -1.06179
 Alpha  occ. eigenvalues --   -0.91899  -0.83935  -0.75108  -0.72788  -0.69758
 Alpha  occ. eigenvalues --   -0.64187  -0.63278  -0.61942  -0.57110  -0.54803
 Alpha  occ. eigenvalues --   -0.48434  -0.48041  -0.47176
 Alpha virt. eigenvalues --    0.02444   0.03999   0.04270   0.05964   0.07387
 Alpha virt. eigenvalues --    0.10498   0.10901   0.11487   0.11736   0.13691
 Alpha virt. eigenvalues --    0.14223   0.14714   0.15554   0.17017   0.18387
 Alpha virt. eigenvalues --    0.18963   0.21229   0.22851   0.25585   0.26105
 Alpha virt. eigenvalues --    0.26999   0.27125   0.30645   0.31381   0.31928
 Alpha virt. eigenvalues --    0.32062   0.32979   0.33566   0.34673   0.35527
 Alpha virt. eigenvalues --    0.37738   0.38027   0.39481   0.39800   0.41203
 Alpha virt. eigenvalues --    0.42768   0.43555   0.46150   0.47206   0.48361
 Alpha virt. eigenvalues --    0.50416   0.51902   0.52812   0.54757   0.56454
 Alpha virt. eigenvalues --    0.58029   0.59180   0.61177   0.63885   0.63934
 Alpha virt. eigenvalues --    0.65592   0.65936   0.66864   0.68261   0.71473
 Alpha virt. eigenvalues --    0.72488   0.74194   0.75285   0.78958   0.79688
 Alpha virt. eigenvalues --    0.79785   0.80042   0.84066   0.86514   0.87769
 Alpha virt. eigenvalues --    0.88379   0.89866   0.93993   0.97777   1.02304
 Alpha virt. eigenvalues --    1.04255   1.06761   1.09066   1.13691   1.14747
 Alpha virt. eigenvalues --    1.15302   1.16641   1.16786   1.19600   1.26982
 Alpha virt. eigenvalues --    1.27363   1.31093   1.31553   1.33040   1.38334
 Alpha virt. eigenvalues --    1.38502   1.46614   1.51200   1.51870   1.56598
 Alpha virt. eigenvalues --    1.61508   1.63399   1.63726   1.72882   1.75469
 Alpha virt. eigenvalues --    1.76972   1.78981   1.79969   1.82033   1.85017
 Alpha virt. eigenvalues --    1.86701   1.88074   1.89935   1.92779   1.95994
 Alpha virt. eigenvalues --    2.00512   2.01167   2.07347   2.10174   2.11173
 Alpha virt. eigenvalues --    2.12845   2.23096   2.25058   2.27468   2.29909
 Alpha virt. eigenvalues --    2.32112   2.36164   2.42433   2.46976   2.47836
 Alpha virt. eigenvalues --    2.51764   2.53159   2.62530   2.68010   2.76684
 Alpha virt. eigenvalues --    2.78795   2.79221   2.86102   2.87733   2.95718
 Alpha virt. eigenvalues --    2.97164   3.05641   3.09469   3.23598   3.40875
 Alpha virt. eigenvalues --    3.44608   3.69936   3.71647   3.74117   3.74403
 Alpha virt. eigenvalues --    3.74850   3.77266   3.82930   3.88266   3.89758
 Alpha virt. eigenvalues --    3.90646   3.97534   4.02781   4.07091   4.19594
 Alpha virt. eigenvalues --    4.32971
          Condensed to atoms (all electrons):
 Mulliken charges:
               1
     1  C    1.305478
     2  C    0.841027
     3  C    0.841027
     4  O   -0.661778
     5  O   -0.815326
     6  O   -0.815326
     7  H   -0.152335
     8  H   -0.195216
     9  H   -0.152335
    10  H   -0.195216
 Sum of Mulliken charges =  -0.00000
 Mulliken charges with hydrogens summed into heavy atoms:
               1
     1  C    1.305478
     2  C    0.493476
     3  C    0.493476
     4  O   -0.661778
     5  O   -0.815326
     6  O   -0.815326
 Electronic spatial extent (au):  <R**2>=            457.4381
 Charge=             -0.0000 electrons
 Dipole moment (field-independent basis, Debye):
    X=             -0.0000    Y=              0.0000    Z=             -5.9714  Tot=              5.9714
 Unable to Open any file for archive entry.
 1\1\GINC-SE412\Stability\RHF\Aug-CC-pVDZ\C3H4O3\OHZDE\06-Apr-2025\0\\#
 t hf aug-cc-pvdz symm=none int=(grid=ultrafine) guess=(read,tcheck) st
 able=(opt,rrhf)\\title\\0,1\C,0,0.,0.,0.851993\C,0,-0.168984,0.745968,
 -1.301801\C,0,0.168984,-0.745968,-1.301801\O,0,0.,0.,2.039757\O,0,0.,1
 .114456,0.074557\O,0,0.,-1.114456,0.074557\H,0,0.504009,1.34592,-1.908
 473\H,0,-1.201132,0.944052,-1.592185\H,0,-0.504009,-1.34592,-1.908473\
 H,0,1.201132,-0.944052,-1.592185\\Version=ES64L-G16RevC.01\HF=-340.581
 0427\RMSD=4.818e-09\Dipole=0.,0.,-2.3493468\Quadrupole=2.2405536,-0.97
 52561,-1.2652975,-0.22511,0.,0.\PG=Unknown\\@
 The archive entry for this job was punched.


 MANHOOD BEGINS BY TRYING TO SHAVE FACE,
 AND ENDS BY TRYING TO SAVE FACE.
 Job cpu time:       0 days  0 hours  1 minutes  4.6 seconds.
 Elapsed time:       0 days  0 hours  0 minutes  7.4 seconds.
 File lengths (MBytes):  RWF=    166 Int=      0 D2E=      0 Chk=      5 Scr=      1
 Normal termination of Gaussian 16 at Sun Apr  6 07:57:57 2025.
 Initial command:
 /arc/software/Gaussian/g16.c01/l1.exe "/tmp/slurm/4819230/Gau-74696.inp" -scrdir="/tmp/slurm/4819230/"
 Entering Link 1 = /arc/software/Gaussian/g16.c01/l1.exe PID=     75196.
  
 Copyright (c) 1988-2019, Gaussian, Inc.  All Rights Reserved.
  
 This is part of the Gaussian(R) 16 program.  It is based on
 the Gaussian(R) 09 system (copyright 2009, Gaussian, Inc.),
 the Gaussian(R) 03 system (copyright 2003, Gaussian, Inc.),
 the Gaussian(R) 98 system (copyright 1998, Gaussian, Inc.),
 the Gaussian(R) 94 system (copyright 1995, Gaussian, Inc.),
 the Gaussian 92(TM) system (copyright 1992, Gaussian, Inc.),
 the Gaussian 90(TM) system (copyright 1990, Gaussian, Inc.),
 the Gaussian 88(TM) system (copyright 1988, Gaussian, Inc.),
 the Gaussian 86(TM) system (copyright 1986, Carnegie Mellon
 University), and the Gaussian 82(TM) system (copyright 1983,
 Carnegie Mellon University). Gaussian is a federally registered
 trademark of Gaussian, Inc.
  
 This software contains proprietary and confidential information,
 including trade secrets, belonging to Gaussian, Inc.
  
 This software is provided under written license and may be
 used, copied, transmitted, or stored only in accord with that
 written license.
  
 The following legend is applicable only to US Government
 contracts under FAR:
  
                    RESTRICTED RIGHTS LEGEND
  
 Use, reproduction and disclosure by the US Government is
 subject to restrictions as set forth in subparagraphs (a)
 and (c) of the Commercial Computer Software - Restricted
 Rights clause in FAR 52.227-19.
  
 Gaussian, Inc.
 340 Quinnipiac St., Bldg. 40, Wallingford CT 06492
  
  
 ---------------------------------------------------------------
 Warning -- This program may not be used in any manner that
 competes with the business of Gaussian, Inc. or will provide
 assistance to any competitor of Gaussian, Inc.  The licensee
 of this program is prohibited from giving any competitor of
 Gaussian, Inc. access to this program.  By using this program,
 the user acknowledges that Gaussian, Inc. is engaged in the
 business of creating and licensing software in the field of
 computational chemistry and represents and warrants to the
 licensee that it is not a competitor of Gaussian, Inc. and that
 it will not use this program in any manner prohibited above.
 ---------------------------------------------------------------
  

 Cite this work as:
 Gaussian 16, Revision C.01,
 M. J. Frisch, G. W. Trucks, H. B. Schlegel, G. E. Scuseria, 
 M. A. Robb, J. R. Cheeseman, G. Scalmani, V. Barone, 
 G. A. Petersson, H. Nakatsuji, X. Li, M. Caricato, A. V. Marenich, 
 J. Bloino, B. G. Janesko, R. Gomperts, B. Mennucci, H. P. Hratchian, 
 J. V. Ortiz, A. F. Izmaylov, J. L. Sonnenberg, D. Williams-Young, 
 F. Ding, F. Lipparini, F. Egidi, J. Goings, B. Peng, A. Petrone, 
 T. Henderson, D. Ranasinghe, V. G. Zakrzewski, J. Gao, N. Rega, 
 G. Zheng, W. Liang, M. Hada, M. Ehara, K. Toyota, R. Fukuda, 
 J. Hasegawa, M. Ishida, T. Nakajima, Y. Honda, O. Kitao, H. Nakai, 
 T. Vreven, K. Throssell, J. A. Montgomery, Jr., J. E. Peralta, 
 F. Ogliaro, M. J. Bearpark, J. J. Heyd, E. N. Brothers, K. N. Kudin, 
 V. N. Staroverov, T. A. Keith, R. Kobayashi, J. Normand, 
 K. Raghavachari, A. P. Rendell, J. C. Burant, S. S. Iyengar, 
 J. Tomasi, M. Cossi, J. M. Millam, M. Klene, C. Adamo, R. Cammi, 
 J. W. Ochterski, R. L. Martin, K. Morokuma, O. Farkas, 
 J. B. Foresman, and D. J. Fox, Gaussian, Inc., Wallingford CT, 2019.
 
 ******************************************
 Gaussian 16:  ES64L-G16RevC.01  3-Jul-2019
                 6-Apr-2025 
 ******************************************
 %nprocs=16
 Will use up to   16 processors via shared memory.
 %mem=30GB
 %chk=1-3-dioxolan-2-one.chk
 ----------------------------------------------------------------------
 #t hf aug-cc-pvdz iop(5/13=1,5/36=2,99/5=2) pseudo=read geom=check gue
 ss=(read,tcheck) scf=(maxcycle=1)
 ----------------------------------------------------------------------
 -----
 title
 -----
 Structure from the checkpoint file:  "1-3-dioxolan-2-one.chk"
 Charge =  0 Multiplicity = 1
 Z-Matrix found in chk file.
 C,0,0.,0.,0.851993
 C,0,-0.168984,0.745968,-1.301801
 C,0,0.168984,-0.745968,-1.301801
 O,0,0.,0.,2.039757
 O,0,0.,1.114456,0.074557
 O,0,0.,-1.114456,0.074557
 H,0,0.504009,1.34592,-1.908473
 H,0,-1.201132,0.944052,-1.592185
 H,0,-0.504009,-1.34592,-1.908473
 H,0,1.201132,-0.944052,-1.592185
 Recover connectivity data from disk.
                    Distance matrix (angstroms):
                    1          2          3          4          5
     1  C    0.000000
     2  C    2.285575   0.000000
     3  C    2.285575   1.529737   0.000000
     4  O    1.187764   3.427978   3.427978   0.000000
     5  O    1.358830   1.434817   2.320365   2.259209   0.000000
     6  O    1.358830   2.320365   1.434817   2.259209   2.228912
     7  H    3.112185   1.086698   2.203699   4.201672   2.059128
     8  H    2.882353   1.090362   2.194928   3.940172   2.061501
     9  H    3.112185   2.203699   1.086698   4.201672   3.199982
    10  H    2.882353   2.194928   1.090362   3.940172   2.908299
                    6          7          8          9         10
     6  O    0.000000
     7  H    3.199982   0.000000
     8  H    2.908299   1.780180   0.000000
     9  H    2.059128   2.874387   2.414537   0.000000
    10  H    2.061501   2.414537   3.055456   1.780180   0.000000
 Framework group  C2[C2(CO),X(C2H4O2)]
 Deg. of freedom    12
                         Standard orientation:                         
 ---------------------------------------------------------------------
 Center     Atomic      Atomic             Coordinates (Angstroms)
 Number     Number       Type             X           Y           Z
 ---------------------------------------------------------------------
      1          6           0        0.000000    0.000000    0.851993
      2          6           0       -0.168984    0.745968   -1.301801
      3          6           0        0.168984   -0.745968   -1.301801
      4          8           0        0.000000    0.000000    2.039757
      5          8           0       -0.000000    1.114456    0.074557
      6          8           0       -0.000000   -1.114456    0.074557
      7          1           0        0.504009    1.345920   -1.908473
      8          1           0       -1.201132    0.944052   -1.592185
      9          1           0       -0.504009   -1.345920   -1.908473
     10          1           0        1.201132   -0.944052   -1.592185
 ---------------------------------------------------------------------
 Rotational constants (GHZ):           8.0679741           3.8334053           2.7049712
 ======================================================================================================
                                       Pseudopotential Parameters
 ======================================================================================================
  Center     Atomic      Valence      Angular      Power
  Number     Number     Electrons     Momentum     of R      Exponent        Coefficient   SO-Coeffient
 ======================================================================================================
    1          6            6
                                      G and up 
                                                     0        0.0000010       -0.00286759    0.00000000
                                                     2        0.1200000        0.03193960    0.00000000
                                                     2        0.1600000       -0.04027782    0.00000000
                                                     2        0.2600000        0.24782456    0.00000000
                                                     2        0.4000000       -0.62266671    0.00000000
                                                     2        0.7000000        0.35695227    0.00000000
                                      S - G
                                                     0        0.0000010       -0.06602313    0.00000000
                                                     2        0.1200000        1.47277455    0.00000000
                                                     2        0.1600000       -4.06924166    0.00000000
                                                     2        0.3000000        5.02952802    0.00000000
                                                     2        0.7000000       -5.65856978    0.00000000
                                                     2        1.7000000        8.57604414    0.00000000
                                      P - G
                                                     0        0.0000010        0.49434425    0.00000000
                                                     2        0.1200000       -1.37391547    0.00000000
                                                     2        0.1600000        3.65411806    0.00000000
                                                     2        0.2800000       -7.36479843    0.00000000
                                                     2        0.6000000       17.22091285    0.00000000
                                                     2        1.1000000      -23.50107827    0.00000000
                                                     2        3.0000000       16.29464063    0.00000000
                                      D - G
                                                     0        0.0000010       -0.28693103    0.00000000
                                                     2        0.1200000        0.12273044    0.00000000
                                                     2        0.3000000       -0.43416384    0.00000000
                                                     2        0.7000000        2.23358493    0.00000000
                                      F - G
                                                     0        0.0000010        0.07263570    0.00000000
                                                     2        0.1400000       -0.76152861    0.00000000
                                                     2        0.2200000        1.98045593    0.00000000
                                                     2        0.4000000       -2.42426427    0.00000000
                                                     2        0.7000000        0.52335237    0.00000000
    2          6            6
                                      G and up 
                                                     0        0.0000010       -0.00286759    0.00000000
                                                     2        0.1200000        0.03193960    0.00000000
                                                     2        0.1600000       -0.04027782    0.00000000
                                                     2        0.2600000        0.24782456    0.00000000
                                                     2        0.4000000       -0.62266671    0.00000000
                                                     2        0.7000000        0.35695227    0.00000000
                                      S - G
                                                     0        0.0000010       -0.06602313    0.00000000
                                                     2        0.1200000        1.47277455    0.00000000
                                                     2        0.1600000       -4.06924166    0.00000000
                                                     2        0.3000000        5.02952802    0.00000000
                                                     2        0.7000000       -5.65856978    0.00000000
                                                     2        1.7000000        8.57604414    0.00000000
                                      P - G
                                                     0        0.0000010        0.49434425    0.00000000
                                                     2        0.1200000       -1.37391547    0.00000000
                                                     2        0.1600000        3.65411806    0.00000000
                                                     2        0.2800000       -7.36479843    0.00000000
                                                     2        0.6000000       17.22091285    0.00000000
                                                     2        1.1000000      -23.50107827    0.00000000
                                                     2        3.0000000       16.29464063    0.00000000
                                      D - G
                                                     0        0.0000010       -0.28693103    0.00000000
                                                     2        0.1200000        0.12273044    0.00000000
                                                     2        0.3000000       -0.43416384    0.00000000
                                                     2        0.7000000        2.23358493    0.00000000
                                      F - G
                                                     0        0.0000010        0.07263570    0.00000000
                                                     2        0.1400000       -0.76152861    0.00000000
                                                     2        0.2200000        1.98045593    0.00000000
                                                     2        0.4000000       -2.42426427    0.00000000
                                                     2        0.7000000        0.52335237    0.00000000
    3          6            6
                                      G and up 
                                                     0        0.0000010       -0.00286759    0.00000000
                                                     2        0.1200000        0.03193960    0.00000000
                                                     2        0.1600000       -0.04027782    0.00000000
                                                     2        0.2600000        0.24782456    0.00000000
                                                     2        0.4000000       -0.62266671    0.00000000
                                                     2        0.7000000        0.35695227    0.00000000
                                      S - G
                                                     0        0.0000010       -0.06602313    0.00000000
                                                     2        0.1200000        1.47277455    0.00000000
                                                     2        0.1600000       -4.06924166    0.00000000
                                                     2        0.3000000        5.02952802    0.00000000
                                                     2        0.7000000       -5.65856978    0.00000000
                                                     2        1.7000000        8.57604414    0.00000000
                                      P - G
                                                     0        0.0000010        0.49434425    0.00000000
                                                     2        0.1200000       -1.37391547    0.00000000
                                                     2        0.1600000        3.65411806    0.00000000
                                                     2        0.2800000       -7.36479843    0.00000000
                                                     2        0.6000000       17.22091285    0.00000000
                                                     2        1.1000000      -23.50107827    0.00000000
                                                     2        3.0000000       16.29464063    0.00000000
                                      D - G
                                                     0        0.0000010       -0.28693103    0.00000000
                                                     2        0.1200000        0.12273044    0.00000000
                                                     2        0.3000000       -0.43416384    0.00000000
                                                     2        0.7000000        2.23358493    0.00000000
                                      F - G
                                                     0        0.0000010        0.07263570    0.00000000
                                                     2        0.1400000       -0.76152861    0.00000000
                                                     2        0.2200000        1.98045593    0.00000000
                                                     2        0.4000000       -2.42426427    0.00000000
                                                     2        0.7000000        0.52335237    0.00000000
    4          8            8
                                      G and up 
                                                     0        0.0000010       -0.00165251    0.00000000
                                                     2        0.1200000       -0.10937202    0.00000000
                                                     2        0.1400000        0.35668905    0.00000000
                                                     2        0.1800000       -0.51696033    0.00000000
                                                     2        0.2400000        0.52446472    0.00000000
                                                     2        0.4000000       -0.07754493    0.00000000
                                                     2        0.8000000       -1.90560988    0.00000000
                                                     2        1.7000000        0.19857963    0.00000000
                                      S - G
                                                     0        0.0000010       -0.03845181    0.00000000
                                                     2        0.1400000        0.42024558    0.00000000
                                                     2        0.4000000       -4.10467779    0.00000000
                                                     2        1.3000000        9.99571838    0.00000000
                                      P - G
                                                     0        0.0000010        0.33206183    0.00000000
                                                     2        0.1200000       -0.18708141    0.00000000
                                                     2        0.2800000       -0.18179081    0.00000000
                                                     2        0.7000000        1.18820394    0.00000000
                                      D - G
                                                     0        0.0000010       -0.57891674    0.00000000
                                                     2        0.1200000        0.60487490    0.00000000
                                                     2        0.2400000       -0.24931464    0.00000000
                                                     2        0.3000000       -2.75054612    0.00000000
                                                     2        1.0000000       15.96776040    0.00000000
                                      F - G
                                                     0        0.0000010        0.37449041    0.00000000
                                                     2        0.1200000       -0.63373642    0.00000000
                                                     2        0.1400000       -0.08412804    0.00000000
                                                     2        0.2800000        2.62321406    0.00000000
                                                     2        0.6000000       -2.68223623    0.00000000
    5          8            8
                                      G and up 
                                                     0        0.0000010       -0.00165251    0.00000000
                                                     2        0.1200000       -0.10937202    0.00000000
                                                     2        0.1400000        0.35668905    0.00000000
                                                     2        0.1800000       -0.51696033    0.00000000
                                                     2        0.2400000        0.52446472    0.00000000
                                                     2        0.4000000       -0.07754493    0.00000000
                                                     2        0.8000000       -1.90560988    0.00000000
                                                     2        1.7000000        0.19857963    0.00000000
                                      S - G
                                                     0        0.0000010       -0.03845181    0.00000000
                                                     2        0.1400000        0.42024558    0.00000000
                                                     2        0.4000000       -4.10467779    0.00000000
                                                     2        1.3000000        9.99571838    0.00000000
                                      P - G
                                                     0        0.0000010        0.33206183    0.00000000
                                                     2        0.1200000       -0.18708141    0.00000000
                                                     2        0.2800000       -0.18179081    0.00000000
                                                     2        0.7000000        1.18820394    0.00000000
                                      D - G
                                                     0        0.0000010       -0.57891674    0.00000000
                                                     2        0.1200000        0.60487490    0.00000000
                                                     2        0.2400000       -0.24931464    0.00000000
                                                     2        0.3000000       -2.75054612    0.00000000
                                                     2        1.0000000       15.96776040    0.00000000
                                      F - G
                                                     0        0.0000010        0.37449041    0.00000000
                                                     2        0.1200000       -0.63373642    0.00000000
                                                     2        0.1400000       -0.08412804    0.00000000
                                                     2        0.2800000        2.62321406    0.00000000
                                                     2        0.6000000       -2.68223623    0.00000000
    6          8            8
                                      G and up 
                                                     0        0.0000010       -0.00165251    0.00000000
                                                     2        0.1200000       -0.10937202    0.00000000
                                                     2        0.1400000        0.35668905    0.00000000
                                                     2        0.1800000       -0.51696033    0.00000000
                                                     2        0.2400000        0.52446472    0.00000000
                                                     2        0.4000000       -0.07754493    0.00000000
                                                     2        0.8000000       -1.90560988    0.00000000
                                                     2        1.7000000        0.19857963    0.00000000
                                      S - G
                                                     0        0.0000010       -0.03845181    0.00000000
                                                     2        0.1400000        0.42024558    0.00000000
                                                     2        0.4000000       -4.10467779    0.00000000
                                                     2        1.3000000        9.99571838    0.00000000
                                      P - G
                                                     0        0.0000010        0.33206183    0.00000000
                                                     2        0.1200000       -0.18708141    0.00000000
                                                     2        0.2800000       -0.18179081    0.00000000
                                                     2        0.7000000        1.18820394    0.00000000
                                      D - G
                                                     0        0.0000010       -0.57891674    0.00000000
                                                     2        0.1200000        0.60487490    0.00000000
                                                     2        0.2400000       -0.24931464    0.00000000
                                                     2        0.3000000       -2.75054612    0.00000000
                                                     2        1.0000000       15.96776040    0.00000000
                                      F - G
                                                     0        0.0000010        0.37449041    0.00000000
                                                     2        0.1200000       -0.63373642    0.00000000
                                                     2        0.1400000       -0.08412804    0.00000000
                                                     2        0.2800000        2.62321406    0.00000000
                                                     2        0.6000000       -2.68223623    0.00000000
    7          1            1
                                      F and up 
                                                     0        0.0000010        0.00072061    0.00000000
                                                     2        0.1200000        0.03832357    0.00000000
                                                     2        0.1400000       -0.08683256    0.00000000
                                                     2        0.1800000        0.09312970    0.00000000
                                                     2        0.2800000       -0.02532572    0.00000000
                                                     2        0.4000000       -0.09430787    0.00000000
                                                     2        0.7000000        0.42710831    0.00000000
                                                     2        1.2000000       -2.11746981    0.00000000
                                      S - F
                                                     0        0.0000010        0.14449603    0.00000000
                                                     2        0.1200000       -0.56378993    0.00000000
                                                     2        0.1400000        0.63941249    0.00000000
                                                     2        0.2600000       -0.58461015    0.00000000
                                                     2        0.5000000        1.00157293    0.00000000
                                                     2        1.8000000       -0.14135838    0.00000000
                                      P - F
                                                     0        0.0000010       -0.09353646    0.00000000
                                                     2        0.1200000        0.31768975    0.00000000
                                                     2        0.2000000       -0.71747951    0.00000000
                                                     2        0.4000000        0.65752308    0.00000000
                                                     2        1.7000000        2.94052587    0.00000000
                                      D - F
                                                     0        0.0000010       -0.04491202    0.00000000
                                                     2        0.1200000       -0.02862031    0.00000000
                                                     2        0.1800000       -0.21515263    0.00000000
                                                     2        0.3000000        0.80560647    0.00000000
                                                     2        0.4000000        0.47351754    0.00000000
                                                     2        0.7000000       -4.57051794    0.00000000
                                                     2        1.6000000       18.53737826    0.00000000
    8          1            1
                                      F and up 
                                                     0        0.0000010        0.00072061    0.00000000
                                                     2        0.1200000        0.03832357    0.00000000
                                                     2        0.1400000       -0.08683256    0.00000000
                                                     2        0.1800000        0.09312970    0.00000000
                                                     2        0.2800000       -0.02532572    0.00000000
                                                     2        0.4000000       -0.09430787    0.00000000
                                                     2        0.7000000        0.42710831    0.00000000
                                                     2        1.2000000       -2.11746981    0.00000000
                                      S - F
                                                     0        0.0000010        0.14449603    0.00000000
                                                     2        0.1200000       -0.56378993    0.00000000
                                                     2        0.1400000        0.63941249    0.00000000
                                                     2        0.2600000       -0.58461015    0.00000000
                                                     2        0.5000000        1.00157293    0.00000000
                                                     2        1.8000000       -0.14135838    0.00000000
                                      P - F
                                                     0        0.0000010       -0.09353646    0.00000000
                                                     2        0.1200000        0.31768975    0.00000000
                                                     2        0.2000000       -0.71747951    0.00000000
                                                     2        0.4000000        0.65752308    0.00000000
                                                     2        1.7000000        2.94052587    0.00000000
                                      D - F
                                                     0        0.0000010       -0.04491202    0.00000000
                                                     2        0.1200000       -0.02862031    0.00000000
                                                     2        0.1800000       -0.21515263    0.00000000
                                                     2        0.3000000        0.80560647    0.00000000
                                                     2        0.4000000        0.47351754    0.00000000
                                                     2        0.7000000       -4.57051794    0.00000000
                                                     2        1.6000000       18.53737826    0.00000000
    9          1            1
                                      F and up 
                                                     0        0.0000010        0.00072061    0.00000000
                                                     2        0.1200000        0.03832357    0.00000000
                                                     2        0.1400000       -0.08683256    0.00000000
                                                     2        0.1800000        0.09312970    0.00000000
                                                     2        0.2800000       -0.02532572    0.00000000
                                                     2        0.4000000       -0.09430787    0.00000000
                                                     2        0.7000000        0.42710831    0.00000000
                                                     2        1.2000000       -2.11746981    0.00000000
                                      S - F
                                                     0        0.0000010        0.14449603    0.00000000
                                                     2        0.1200000       -0.56378993    0.00000000
                                                     2        0.1400000        0.63941249    0.00000000
                                                     2        0.2600000       -0.58461015    0.00000000
                                                     2        0.5000000        1.00157293    0.00000000
                                                     2        1.8000000       -0.14135838    0.00000000
                                      P - F
                                                     0        0.0000010       -0.09353646    0.00000000
                                                     2        0.1200000        0.31768975    0.00000000
                                                     2        0.2000000       -0.71747951    0.00000000
                                                     2        0.4000000        0.65752308    0.00000000
                                                     2        1.7000000        2.94052587    0.00000000
                                      D - F
                                                     0        0.0000010       -0.04491202    0.00000000
                                                     2        0.1200000       -0.02862031    0.00000000
                                                     2        0.1800000       -0.21515263    0.00000000
                                                     2        0.3000000        0.80560647    0.00000000
                                                     2        0.4000000        0.47351754    0.00000000
                                                     2        0.7000000       -4.57051794    0.00000000
                                                     2        1.6000000       18.53737826    0.00000000
   10          1            1
                                      F and up 
                                                     0        0.0000010        0.00072061    0.00000000
                                                     2        0.1200000        0.03832357    0.00000000
                                                     2        0.1400000       -0.08683256    0.00000000
                                                     2        0.1800000        0.09312970    0.00000000
                                                     2        0.2800000       -0.02532572    0.00000000
                                                     2        0.4000000       -0.09430787    0.00000000
                                                     2        0.7000000        0.42710831    0.00000000
                                                     2        1.2000000       -2.11746981    0.00000000
                                      S - F
                                                     0        0.0000010        0.14449603    0.00000000
                                                     2        0.1200000       -0.56378993    0.00000000
                                                     2        0.1400000        0.63941249    0.00000000
                                                     2        0.2600000       -0.58461015    0.00000000
                                                     2        0.5000000        1.00157293    0.00000000
                                                     2        1.8000000       -0.14135838    0.00000000
                                      P - F
                                                     0        0.0000010       -0.09353646    0.00000000
                                                     2        0.1200000        0.31768975    0.00000000
                                                     2        0.2000000       -0.71747951    0.00000000
                                                     2        0.4000000        0.65752308    0.00000000
                                                     2        1.7000000        2.94052587    0.00000000
                                      D - F
                                                     0        0.0000010       -0.04491202    0.00000000
                                                     2        0.1200000       -0.02862031    0.00000000
                                                     2        0.1800000       -0.21515263    0.00000000
                                                     2        0.3000000        0.80560647    0.00000000
                                                     2        0.4000000        0.47351754    0.00000000
                                                     2        0.7000000       -4.57051794    0.00000000
                                                     2        1.6000000       18.53737826    0.00000000
 ======================================================================================================
   174 basis functions,   302 primitive gaussians,   186 cartesian basis functions
    23 alpha electrons       23 beta electrons
       nuclear repulsion energy       246.2054040103 Hartrees.
 NAtoms=   10 NActive=   10 NUniq=    6 SFac= 2.78D+00 NAtFMM=   60 NAOKFM=F Big=F
   2 Symmetry operations used in ECPInt.
 ECPInt:  NShTT=    2775 NPrTT=   14143 LenC2=    2774 LenP2D=   11175.
 LDataN:  DoStor=T MaxTD1= 6 Len=  172
 Initial guess from the checkpoint file:  "1-3-dioxolan-2-one.chk"
 B after Tr=    -0.000000   -0.000000    0.000000
         Rot=    1.000000   -0.000000   -0.000000    0.000000 Ang=   0.00 deg.
 Initial guess orbital symmetries:
       Occupied  (B) (A) (A) (A) (A) (B) (A) (B) (A) (A) (B) (A)
                 (B) (A) (B) (A) (A) (B) (B) (A) (A) (B) (B)
       Virtual   (A) (B) (B) (A) (A) (A) (B) (B) (A) (B) (B) (A)
                 (B) (A) (B) (A) (B) (A) (A) (B) (A) (B) (B) (A)
                 (B) (A) (B) (B) (A) (B) (B) (A) (A) (B) (A) (B)
                 (A) (B) (A) (B) (A) (A) (A) (B) (B) (B) (A) (A)
                 (B) (A) (B) (B) (A) (A) (A) (B) (B) (A) (A) (A)
                 (B) (B) (B) (B) (A) (B) (A) (B) (A) (A) (A) (B)
                 (B) (A) (A) (B) (B) (A) (A) (B) (A) (B) (A) (B)
                 (B) (A) (A) (B) (A) (B) (B) (A) (A) (A) (B) (B)
                 (A) (B) (A) (A) (B) (A) (A) (B) (B) (A) (B) (A)
                 (B) (A) (B) (B) (B) (A) (A) (A) (B) (A) (B) (B)
                 (A) (B) (A) (B) (A) (B) (A) (B) (A) (B) (B) (A)
                 (A) (A) (A) (B) (A) (B) (B) (A) (A) (B) (A) (B)
                 (A) (B) (A) (B) (A) (A) (B)
 >>>>>>>>>> Convergence criterion not met.
 SCF Done:  E(RHF) =  -342.010659390     A.U. after    2 cycles
            NFock=  1  Conv=0.23D+00     -V/T= 2.0401

 **********************************************************************

            Population analysis using the SCF Density.

 **********************************************************************

 Orbital symmetries:
       Occupied  (B) (A) (A) (A) (B) (A) (A) (B) (A) (A) (B) (A)
                 (B) (A) (B) (A) (B) (A) (A) (B) (A) (B) (B)
       Virtual   (A) (B) (B) (A) (A) (A) (B) (B) (A) (A) (B) (B)
                 (B) (A) (B) (A) (B) (A) (B) (A) (A) (B) (A) (B)
                 (B) (A) (B) (B) (A) (B) (A) (A) (B) (B) (A) (A)
                 (B) (B) (A) (B) (A) (A) (A) (B) (A) (B) (A) (B)
                 (A) (B) (A) (B) (A) (B) (A) (B) (A) (B) (B) (A)
                 (B) (A) (B) (A) (B) (A) (B) (B) (A) (A) (B) (A)
                 (A) (B) (A) (A) (B) (A) (B) (B) (A) (A) (B) (A)
                 (B) (B) (B) (A) (A) (B) (A) (B) (A) (B) (A) (A)
                 (A) (B) (A) (B) (A) (B) (B) (A) (B) (A) (A) (B)
                 (B) (A) (B) (B) (B) (A) (A) (A) (B) (B) (A) (B)
                 (A) (B) (A) (B) (B) (A) (A) (A) (B) (B) (A) (A)
                 (B) (B) (A) (A) (A) (B) (B) (A) (A) (B) (A) (B)
                 (B) (A) (A) (B) (A) (A) (B)
 The electronic state is 1-A.
 Alpha  occ. eigenvalues --  -21.11234 -21.11199 -21.05356 -11.54551 -11.50077
 Alpha  occ. eigenvalues --  -11.43689  -1.94247  -1.72591  -1.68742  -1.14007
 Alpha  occ. eigenvalues --   -0.92830  -0.80524  -0.73002  -0.70350  -0.62528
 Alpha  occ. eigenvalues --   -0.59622  -0.58068  -0.51212  -0.46649  -0.41892
 Alpha  occ. eigenvalues --   -0.35581  -0.32934  -0.31180
 Alpha virt. eigenvalues --    0.02699   0.04703   0.04934   0.05132   0.08216
 Alpha virt. eigenvalues --    0.10175   0.11544   0.12100   0.12226   0.13090
 Alpha virt. eigenvalues --    0.13330   0.14296   0.16526   0.16739   0.17692
 Alpha virt. eigenvalues --    0.18164   0.21387   0.22810   0.25627   0.25667
 Alpha virt. eigenvalues --    0.27123   0.27337   0.29425   0.30340   0.31344
 Alpha virt. eigenvalues --    0.31952   0.33720   0.34196   0.34427   0.36535
 Alpha virt. eigenvalues --    0.37508   0.38238   0.39019   0.40111   0.42126
 Alpha virt. eigenvalues --    0.42664   0.42810   0.46266   0.46312   0.48598
 Alpha virt. eigenvalues --    0.51860   0.52444   0.53774   0.54343   0.57233
 Alpha virt. eigenvalues --    0.57707   0.58659   0.62276   0.62931   0.64302
 Alpha virt. eigenvalues --    0.65646   0.66836   0.70035   0.70673   0.71316
 Alpha virt. eigenvalues --    0.74899   0.75011   0.78190   0.79929   0.81053
 Alpha virt. eigenvalues --    0.81690   0.83373   0.86411   0.86505   0.88795
 Alpha virt. eigenvalues --    0.90506   0.91195   0.96871   0.98080   1.02744
 Alpha virt. eigenvalues --    1.10257   1.11193   1.14354   1.14491   1.14873
 Alpha virt. eigenvalues --    1.18092   1.19554   1.20121   1.24814   1.32134
 Alpha virt. eigenvalues --    1.33992   1.38582   1.42571   1.44297   1.47308
 Alpha virt. eigenvalues --    1.57419   1.71184   1.73915   1.77194   1.80422
 Alpha virt. eigenvalues --    1.85736   1.89040   1.89312   1.98764   2.00059
 Alpha virt. eigenvalues --    2.00609   2.05823   2.05869   2.10019   2.10136
 Alpha virt. eigenvalues --    2.14889   2.15211   2.17436   2.23775   2.29804
 Alpha virt. eigenvalues --    2.33765   2.34981   2.35732   2.43010   2.45033
 Alpha virt. eigenvalues --    2.51041   2.54173   2.55882   2.56727   2.58026
 Alpha virt. eigenvalues --    2.64402   2.71248   2.76790   2.84058   2.88334
 Alpha virt. eigenvalues --    2.92094   2.93979   3.04772   3.06746   3.12727
 Alpha virt. eigenvalues --    3.13127   3.30059   3.35357   3.48018   3.52409
 Alpha virt. eigenvalues --    3.60795   3.68630   3.70207   3.71441   3.80335
 Alpha virt. eigenvalues --    3.83670   5.97072   5.99910   6.01542   6.01821
 Alpha virt. eigenvalues --    6.02618   6.04158   6.09875   6.15933   6.18027
 Alpha virt. eigenvalues --    6.19003   6.26047   6.28003   6.31994   6.49284
 Alpha virt. eigenvalues --    6.58329
          Condensed to atoms (all electrons):
 Mulliken charges:
               1
     1  C    6.405731
     2  C   -1.679376
     3  C   -1.679376
     4  O   -3.133678
     5  O   -2.759239
     6  O   -2.759239
     7  H    1.413658
     8  H    1.388931
     9  H    1.413658
    10  H    1.388931
 Sum of Mulliken charges =   0.00000
 Mulliken charges with hydrogens summed into heavy atoms:
               1
     1  C    6.405731
     2  C    1.123212
     3  C    1.123212
     4  O   -3.133678
     5  O   -2.759239
     6  O   -2.759239
 Electronic spatial extent (au):  <R**2>=            476.0982
 Charge=             -0.0000 electrons
 Dipole moment (field-independent basis, Debye):
    X=              0.0000    Y=              0.0000    Z=             -3.7898  Tot=              3.7898

 Test job not archived.
 1\1\GINC-SE412\SP\RHF\Aug-CC-pVDZ\C3H4O3\OHZDE\06-Apr-2025\0\\#t hf au
 g-cc-pvdz iop(5/13=1,5/36=2,99/5=2) pseudo=read geom=check guess=(read
 ,tcheck) scf=(maxcycle=1)\\title\\0,1\C,0,0.,0.,0.851993\C,0,-0.168984
 ,0.745968,-1.301801\C,0,0.168984,-0.745968,-1.301801\O,0,0.,0.,2.03975
 7\O,0,0.,1.114456,0.074557\O,0,0.,-1.114456,0.074557\H,0,0.504009,1.34
 592,-1.908473\H,0,-1.201132,0.944052,-1.592185\H,0,-0.504009,-1.34592,
 -1.908473\H,0,1.201132,-0.944052,-1.592185\\Version=ES64L-G16RevC.01\S
 tate=1-A\HF=-342.0106594\RMSD=2.316e-01\Dipole=0.,0.,-1.4910183\Quadru
 pole=1.4002653,-0.5067034,-0.8935619,-0.0670803,0.,0.\PG=C02 [C2(C1O1)
 ,X(C2H4O2)]\\@


 THEORY:  SUPPOSITION WHICH HAS SCIENTIFIC BASIS,
          BUT NOT EXPERIMENTALLY PROVEN.
 FACT:    A THEORY WHICH HAS BEEN PROVEN BY ENOUGH 
          MONEY TO PAY FOR THE EXPERIMENTS.

                          --  THE WIZARD OF ID
 Job cpu time:       0 days  0 hours  0 minutes 25.2 seconds.
 Elapsed time:       0 days  0 hours  0 minutes  2.3 seconds.
 File lengths (MBytes):  RWF=     10 Int=      0 D2E=      0 Chk=      5 Scr=      1
 Normal termination of Gaussian 16 at Sun Apr  6 07:58:00 2025.
