 Entering Gaussian System, Link 0=g16
 Input=2-nitroso-3-pyridinol.gjf
 Output=2-nitroso-3-pyridinol.log
 Initial command:
 /arc/software/Gaussian/g16.c01/l1.exe "/tmp/slurm/4819618/Gau-1737243.inp" -scrdir="/tmp/slurm/4819618/"
 Entering Link 1 = /arc/software/Gaussian/g16.c01/l1.exe PID=   1737244.
  
 Copyright (c) 1988-2019, Gaussian, Inc.  All Rights Reserved.
  
 This is part of the Gaussian(R) 16 program.  It is based on
 the Gaussian(R) 09 system (copyright 2009, Gaussian, Inc.),
 the Gaussian(R) 03 system (copyright 2003, Gaussian, Inc.),
 the Gaussian(R) 98 system (copyright 1998, Gaussian, Inc.),
 the Gaussian(R) 94 system (copyright 1995, Gaussian, Inc.),
 the Gaussian 92(TM) system (copyright 1992, Gaussian, Inc.),
 the Gaussian 90(TM) system (copyright 1990, Gaussian, Inc.),
 the Gaussian 88(TM) system (copyright 1988, Gaussian, Inc.),
 the Gaussian 86(TM) system (copyright 1986, Carnegie Mellon
 University), and the Gaussian 82(TM) system (copyright 1983,
 Carnegie Mellon University). Gaussian is a federally registered
 trademark of Gaussian, Inc.
  
 This software contains proprietary and confidential information,
 including trade secrets, belonging to Gaussian, Inc.
  
 This software is provided under written license and may be
 used, copied, transmitted, or stored only in accord with that
 written license.
  
 The following legend is applicable only to US Government
 contracts under FAR:
  
                    RESTRICTED RIGHTS LEGEND
  
 Use, reproduction and disclosure by the US Government is
 subject to restrictions as set forth in subparagraphs (a)
 and (c) of the Commercial Computer Software - Restricted
 Rights clause in FAR 52.227-19.
  
 Gaussian, Inc.
 340 Quinnipiac St., Bldg. 40, Wallingford CT 06492
  
  
 ---------------------------------------------------------------
 Warning -- This program may not be used in any manner that
 competes with the business of Gaussian, Inc. or will provide
 assistance to any competitor of Gaussian, Inc.  The licensee
 of this program is prohibited from giving any competitor of
 Gaussian, Inc. access to this program.  By using this program,
 the user acknowledges that Gaussian, Inc. is engaged in the
 business of creating and licensing software in the field of
 computational chemistry and represents and warrants to the
 licensee that it is not a competitor of Gaussian, Inc. and that
 it will not use this program in any manner prohibited above.
 ---------------------------------------------------------------
  

 Cite this work as:
 Gaussian 16, Revision C.01,
 M. J. Frisch, G. W. Trucks, H. B. Schlegel, G. E. Scuseria, 
 M. A. Robb, J. R. Cheeseman, G. Scalmani, V. Barone, 
 G. A. Petersson, H. Nakatsuji, X. Li, M. Caricato, A. V. Marenich, 
 J. Bloino, B. G. Janesko, R. Gomperts, B. Mennucci, H. P. Hratchian, 
 J. V. Ortiz, A. F. Izmaylov, J. L. Sonnenberg, D. Williams-Young, 
 F. Ding, F. Lipparini, F. Egidi, J. Goings, B. Peng, A. Petrone, 
 T. Henderson, D. Ranasinghe, V. G. Zakrzewski, J. Gao, N. Rega, 
 G. Zheng, W. Liang, M. Hada, M. Ehara, K. Toyota, R. Fukuda, 
 J. Hasegawa, M. Ishida, T. Nakajima, Y. Honda, O. Kitao, H. Nakai, 
 T. Vreven, K. Throssell, J. A. Montgomery, Jr., J. E. Peralta, 
 F. Ogliaro, M. J. Bearpark, J. J. Heyd, E. N. Brothers, K. N. Kudin, 
 V. N. Staroverov, T. A. Keith, R. Kobayashi, J. Normand, 
 K. Raghavachari, A. P. Rendell, J. C. Burant, S. S. Iyengar, 
 J. Tomasi, M. Cossi, J. M. Millam, M. Klene, C. Adamo, R. Cammi, 
 J. W. Ochterski, R. L. Martin, K. Morokuma, O. Farkas, 
 J. B. Foresman, and D. J. Fox, Gaussian, Inc., Wallingford CT, 2019.
 
 ******************************************
 Gaussian 16:  ES64L-G16RevC.01  3-Jul-2019
                 6-Apr-2025 
 ******************************************
 %nprocs=16
 Will use up to   16 processors via shared memory.
 %mem=30GB
 %chk=2-nitroso-3-pyridinol.chk
 ----------------------------------------------------------------------
 #t hf aug-cc-pvdz symm=none int=(grid=ultrafine) guess=(read,tcheck) s
 table=(opt,rrhf)
 ----------------------------------------------------------------------
 -----
 title
 -----
 Symbolic Z-matrix:
 Charge =  0 Multiplicity = 1
 O                     2.16468  -0.5392    0. 
 O                     0.08458   2.77554   0. 
 N                    -1.33158   0.475     0. 
 N                     0.72639   1.75098   0. 
 C                     0.        0.52236   0. 
 C                     0.82441  -0.61695   0. 
 C                     0.20482  -1.87018   0. 
 C                    -1.90577  -0.71096   0. 
 C                    -1.17195  -1.9108    0. 
 H                     2.40551   0.40286   0. 
 H                     0.80977  -2.76574   0. 
 H                    -2.98889  -0.73236   0. 
 H                    -1.69316  -2.85823   0. 
 
                    Distance matrix (angstroms):
                    1          2          3          4          5
     1  O    0.000000
     2  O    3.913346   0.000000
     3  N    3.640384   2.701480   0.000000
     4  N    2.704364   1.208983   2.421439   0.000000
     5  C    2.410958   2.254770   1.332421   1.427292   0.000000
     6  C    1.342518   3.472224   2.416743   2.369960   1.406298
     7  C    2.369080   4.647274   2.803637   3.658529   2.401286
     8  C    4.074072   4.014624   1.317651   3.604089   2.270033
     9  C    3.607545   4.851871   2.391133   4.124603   2.700690
    10  H    0.972351   3.319087   3.737785   2.153343   2.408476
    11  H    2.606390   5.588531   3.884296   4.517492   3.386341
    12  H    5.157183   4.663861   2.050464   4.468814   3.241570
    13  H    4.501201   5.907596   3.352781   5.205673   3.780892
                    6          7          8          9         10
     6  C    0.000000
     7  C    1.398024   0.000000
     8  C    2.731803   2.407986   0.000000
     9  C    2.378973   1.377373   1.406452   0.000000
    10  H    1.881457   3.163813   4.452838   4.260428   0.000000
    11  H    2.148840   1.080736   3.405331   2.158272   3.547732
    12  H    3.815045   3.390340   1.083325   2.165633   5.512555
    13  H    3.370681   2.139762   2.157765   1.081331   5.237726
                   11         12         13
    11  H    0.000000
    12  H    4.308643   0.000000
    13  H    2.504637   2.489618   0.000000
 Symmetry turned off by external request.
 Rotational constants (GHZ):           2.7385699           1.6854282           1.0433239
   243 basis functions,   431 primitive gaussians,   261 cartesian basis functions
    32 alpha electrons       32 beta electrons
       nuclear repulsion energy       415.6398841945 Hartrees.
 NAtoms=   13 NActive=   13 NUniq=   13 SFac= 1.00D+00 NAtFMM=   60 NAOKFM=F Big=F
 ExpMin= 2.97D-02 ExpMax= 1.17D+04 ExpMxC= 4.01D+02 IAcc=3 IRadAn=         5 AccDes= 0.00D+00
 Harris functional with IExCor=  205 and IRadAn=       5 diagonalized for initial guess.
 HarFok:  IExCor=  205 AccDes= 0.00D+00 IRadAn=         5 IDoV= 1 UseB2=F ITyADJ=14
 ICtDFT=  3500011 ScaDFX=  1.000000  1.000000  1.000000  1.000000
 FoFCou: FMM=F IPFlag=           0 FMFlag=      100000 FMFlg1=           0
         NFxFlg=           0 DoJE=T BraDBF=F KetDBF=T FulRan=T
         wScrn=  0.000000 ICntrl=       500 IOpCl=  0 I1Cent=   200000004 NGrid=           0
         NMat0=    1 NMatS0=      1 NMatT0=    0 NMatD0=    1 NMtDS0=    0 NMtDT0=    0
 Symmetry not used in FoFCou.
 SCF Done:  E(RHF) =  -450.257577457     A.U. after   16 cycles
            NFock= 16  Conv=0.89D-08     -V/T= 2.0012

 **********************************************************************

            Population analysis using the SCF Density.

 **********************************************************************

 Alpha  occ. eigenvalues --  -20.64410 -20.62704 -15.71832 -15.60723 -11.35039
 Alpha  occ. eigenvalues --  -11.31797 -11.29809 -11.28370 -11.28023  -1.52613
 Alpha  occ. eigenvalues --   -1.44681  -1.29571  -1.11838  -1.10607  -0.98952
 Alpha  occ. eigenvalues --   -0.88544  -0.85888  -0.78558  -0.74513  -0.71510
 Alpha  occ. eigenvalues --   -0.67306  -0.64765  -0.64423  -0.61632  -0.59708
 Alpha  occ. eigenvalues --   -0.59617  -0.58211  -0.53800  -0.45087  -0.41730
 Alpha  occ. eigenvalues --   -0.40427  -0.34931
 Alpha virt. eigenvalues --    0.02281   0.02762   0.03972   0.04686   0.05918
 Alpha virt. eigenvalues --    0.09057   0.09265   0.09811   0.10204   0.12491
 Alpha virt. eigenvalues --    0.12578   0.12860   0.13427   0.13658   0.14508
 Alpha virt. eigenvalues --    0.14576   0.14999   0.16046   0.16609   0.17341
 Alpha virt. eigenvalues --    0.17452   0.17824   0.18794   0.20934   0.21827
 Alpha virt. eigenvalues --    0.22838   0.23804   0.25534   0.26451   0.27193
 Alpha virt. eigenvalues --    0.28157   0.29302   0.29774   0.30298   0.30552
 Alpha virt. eigenvalues --    0.31561   0.33221   0.33401   0.34684   0.34698
 Alpha virt. eigenvalues --    0.35804   0.36574   0.37270   0.37313   0.38001
 Alpha virt. eigenvalues --    0.39254   0.39829   0.41911   0.42695   0.44472
 Alpha virt. eigenvalues --    0.44664   0.46199   0.46546   0.48905   0.50493
 Alpha virt. eigenvalues --    0.51260   0.51699   0.53963   0.55836   0.55895
 Alpha virt. eigenvalues --    0.57108   0.57938   0.58219   0.59568   0.60472
 Alpha virt. eigenvalues --    0.64284   0.64303   0.64936   0.65504   0.66002
 Alpha virt. eigenvalues --    0.67710   0.69259   0.70020   0.70056   0.70628
 Alpha virt. eigenvalues --    0.72103   0.72130   0.72435   0.76318   0.77877
 Alpha virt. eigenvalues --    0.79770   0.81424   0.83284   0.83495   0.83957
 Alpha virt. eigenvalues --    0.86754   0.88001   0.88720   0.89070   0.90360
 Alpha virt. eigenvalues --    0.90412   0.92783   0.93844   0.94320   0.95297
 Alpha virt. eigenvalues --    0.96942   0.98203   0.99686   1.02110   1.02430
 Alpha virt. eigenvalues --    1.03851   1.06166   1.07690   1.08709   1.11188
 Alpha virt. eigenvalues --    1.12246   1.13788   1.16448   1.18066   1.20801
 Alpha virt. eigenvalues --    1.22357   1.22976   1.24842   1.25741   1.26978
 Alpha virt. eigenvalues --    1.28144   1.33933   1.34018   1.35137   1.39218
 Alpha virt. eigenvalues --    1.41638   1.42758   1.46810   1.49745   1.52317
 Alpha virt. eigenvalues --    1.54157   1.54876   1.55917   1.56274   1.57553
 Alpha virt. eigenvalues --    1.59487   1.61109   1.63742   1.64859   1.65639
 Alpha virt. eigenvalues --    1.66792   1.69404   1.69445   1.72650   1.73668
 Alpha virt. eigenvalues --    1.79027   1.80336   1.82289   1.82334   1.83792
 Alpha virt. eigenvalues --    1.85019   1.86658   1.88005   1.89746   1.93735
 Alpha virt. eigenvalues --    1.97329   1.99508   2.05022   2.05658   2.09705
 Alpha virt. eigenvalues --    2.10570   2.11791   2.11940   2.15024   2.16041
 Alpha virt. eigenvalues --    2.18936   2.19931   2.23921   2.26541   2.28451
 Alpha virt. eigenvalues --    2.29597   2.30587   2.33836   2.39785   2.41844
 Alpha virt. eigenvalues --    2.45669   2.49227   2.50208   2.53296   2.55142
 Alpha virt. eigenvalues --    2.57436   2.64431   2.65231   2.65489   2.71899
 Alpha virt. eigenvalues --    2.73262   2.79704   2.80965   2.83596   2.86425
 Alpha virt. eigenvalues --    2.94179   2.98259   2.99175   3.04456   3.10849
 Alpha virt. eigenvalues --    3.13343   3.20085   3.22664   3.28199   3.29494
 Alpha virt. eigenvalues --    3.38727   3.44529   3.51404   3.63337   3.69015
 Alpha virt. eigenvalues --    3.72750   3.75714   3.80070   3.87608   3.90684
 Alpha virt. eigenvalues --    3.94288   3.97645   4.04139   4.21144   4.27729
 Alpha virt. eigenvalues --    4.40098
          Condensed to atoms (all electrons):
 Mulliken charges:
               1
     1  O   -0.936561
     2  O   -0.601740
     3  N   -0.485808
     4  N   -0.226356
     5  C    0.635745
     6  C    0.820875
     7  C    0.481273
     8  C    0.444494
     9  C    0.803926
    10  H    0.213113
    11  H   -0.416274
    12  H   -0.329700
    13  H   -0.402988
 Sum of Mulliken charges =  -0.00000
 Mulliken charges with hydrogens summed into heavy atoms:
               1
     1  O   -0.723448
     2  O   -0.601740
     3  N   -0.485808
     4  N   -0.226356
     5  C    0.635745
     6  C    0.820875
     7  C    0.064999
     8  C    0.114794
     9  C    0.400938
 Electronic spatial extent (au):  <R**2>=           1042.0664
 Charge=             -0.0000 electrons
 Dipole moment (field-independent basis, Debye):
    X=             -0.1587    Y=             -4.0246    Z=             -0.0000  Tot=              4.0278
 NROrb=    243 NOA=    32 NOB=    32 NVA=   211 NVB=   211

 **** Warning!!: The largest alpha MO coefficient is  0.78571657D+02

    12 initial guesses have been made.
 Iteration     1 Dimension    12 NMult     0 NNew     12
 New state      1 was old state      3
 Iteration     2 Dimension    24 NMult    12 NNew     12
 Iteration     3 Dimension    27 NMult    24 NNew      3
 Iteration     4 Dimension    30 NMult    27 NNew      3
 Iteration     5 Dimension    33 NMult    30 NNew      3
 Iteration     6 Dimension    36 NMult    33 NNew      3
 ***********************************************************************
 Stability analysis using <AA,BB:AA,BB> singles matrix:
 ***********************************************************************
 Ground to excited state transition densities written to RWF  633

 Eigenvectors of the stability matrix:
 
 Excited state symmetry could not be determined.
 Eigenvector   1:      Singlet-?Sym  Eigenvalue= 0.0813769  <S**2>=0.000
      30 -> 33         0.58430
      30 -> 38        -0.10736
      30 -> 42        -0.16250
      30 -> 48        -0.21127
      30 -> 55        -0.13122
 The wavefunction is stable under the perturbations considered.
 The wavefunction is already stable.

 **********************************************************************

            Population analysis using the SCF Density.

 **********************************************************************

 Alpha  occ. eigenvalues --  -20.64410 -20.62704 -15.71832 -15.60723 -11.35039
 Alpha  occ. eigenvalues --  -11.31797 -11.29809 -11.28370 -11.28023  -1.52613
 Alpha  occ. eigenvalues --   -1.44681  -1.29571  -1.11838  -1.10607  -0.98952
 Alpha  occ. eigenvalues --   -0.88544  -0.85888  -0.78558  -0.74513  -0.71510
 Alpha  occ. eigenvalues --   -0.67306  -0.64765  -0.64423  -0.61632  -0.59708
 Alpha  occ. eigenvalues --   -0.59617  -0.58211  -0.53800  -0.45087  -0.41730
 Alpha  occ. eigenvalues --   -0.40427  -0.34931
 Alpha virt. eigenvalues --    0.02281   0.02762   0.03972   0.04686   0.05918
 Alpha virt. eigenvalues --    0.09057   0.09265   0.09811   0.10204   0.12491
 Alpha virt. eigenvalues --    0.12578   0.12860   0.13427   0.13658   0.14508
 Alpha virt. eigenvalues --    0.14576   0.14999   0.16046   0.16609   0.17341
 Alpha virt. eigenvalues --    0.17452   0.17824   0.18794   0.20934   0.21827
 Alpha virt. eigenvalues --    0.22838   0.23804   0.25534   0.26451   0.27193
 Alpha virt. eigenvalues --    0.28157   0.29302   0.29774   0.30298   0.30552
 Alpha virt. eigenvalues --    0.31561   0.33221   0.33401   0.34684   0.34698
 Alpha virt. eigenvalues --    0.35804   0.36574   0.37270   0.37313   0.38001
 Alpha virt. eigenvalues --    0.39254   0.39829   0.41911   0.42695   0.44472
 Alpha virt. eigenvalues --    0.44664   0.46199   0.46546   0.48905   0.50493
 Alpha virt. eigenvalues --    0.51260   0.51699   0.53963   0.55836   0.55895
 Alpha virt. eigenvalues --    0.57108   0.57938   0.58219   0.59568   0.60472
 Alpha virt. eigenvalues --    0.64284   0.64303   0.64936   0.65504   0.66002
 Alpha virt. eigenvalues --    0.67710   0.69259   0.70020   0.70056   0.70628
 Alpha virt. eigenvalues --    0.72103   0.72130   0.72435   0.76318   0.77877
 Alpha virt. eigenvalues --    0.79770   0.81424   0.83284   0.83495   0.83957
 Alpha virt. eigenvalues --    0.86754   0.88001   0.88720   0.89070   0.90360
 Alpha virt. eigenvalues --    0.90412   0.92783   0.93844   0.94320   0.95297
 Alpha virt. eigenvalues --    0.96942   0.98203   0.99686   1.02110   1.02430
 Alpha virt. eigenvalues --    1.03851   1.06166   1.07690   1.08709   1.11188
 Alpha virt. eigenvalues --    1.12246   1.13788   1.16448   1.18066   1.20801
 Alpha virt. eigenvalues --    1.22357   1.22976   1.24842   1.25741   1.26978
 Alpha virt. eigenvalues --    1.28144   1.33933   1.34018   1.35137   1.39218
 Alpha virt. eigenvalues --    1.41638   1.42758   1.46810   1.49745   1.52317
 Alpha virt. eigenvalues --    1.54157   1.54876   1.55917   1.56274   1.57553
 Alpha virt. eigenvalues --    1.59487   1.61109   1.63742   1.64859   1.65639
 Alpha virt. eigenvalues --    1.66792   1.69404   1.69445   1.72650   1.73668
 Alpha virt. eigenvalues --    1.79027   1.80336   1.82289   1.82334   1.83792
 Alpha virt. eigenvalues --    1.85019   1.86658   1.88005   1.89746   1.93735
 Alpha virt. eigenvalues --    1.97329   1.99508   2.05022   2.05658   2.09705
 Alpha virt. eigenvalues --    2.10570   2.11791   2.11940   2.15024   2.16041
 Alpha virt. eigenvalues --    2.18936   2.19931   2.23921   2.26541   2.28451
 Alpha virt. eigenvalues --    2.29597   2.30587   2.33836   2.39785   2.41844
 Alpha virt. eigenvalues --    2.45669   2.49227   2.50208   2.53296   2.55142
 Alpha virt. eigenvalues --    2.57436   2.64431   2.65231   2.65489   2.71899
 Alpha virt. eigenvalues --    2.73262   2.79704   2.80965   2.83596   2.86425
 Alpha virt. eigenvalues --    2.94179   2.98259   2.99175   3.04456   3.10849
 Alpha virt. eigenvalues --    3.13343   3.20085   3.22664   3.28199   3.29494
 Alpha virt. eigenvalues --    3.38727   3.44529   3.51404   3.63337   3.69015
 Alpha virt. eigenvalues --    3.72750   3.75714   3.80070   3.87608   3.90684
 Alpha virt. eigenvalues --    3.94288   3.97645   4.04139   4.21144   4.27729
 Alpha virt. eigenvalues --    4.40098
          Condensed to atoms (all electrons):
 Mulliken charges:
               1
     1  O   -0.936561
     2  O   -0.601740
     3  N   -0.485808
     4  N   -0.226356
     5  C    0.635745
     6  C    0.820875
     7  C    0.481273
     8  C    0.444494
     9  C    0.803926
    10  H    0.213113
    11  H   -0.416274
    12  H   -0.329700
    13  H   -0.402988
 Sum of Mulliken charges =  -0.00000
 Mulliken charges with hydrogens summed into heavy atoms:
               1
     1  O   -0.723448
     2  O   -0.601740
     3  N   -0.485808
     4  N   -0.226356
     5  C    0.635745
     6  C    0.820875
     7  C    0.064999
     8  C    0.114794
     9  C    0.400938
 Electronic spatial extent (au):  <R**2>=           1042.0664
 Charge=             -0.0000 electrons
 Dipole moment (field-independent basis, Debye):
    X=             -0.1587    Y=             -4.0246    Z=             -0.0000  Tot=              4.0278
 Unable to Open any file for archive entry.
 1\1\GINC-SE038\Stability\RHF\Aug-CC-pVDZ\C5H4N2O2\OHZDE\06-Apr-2025\0\
 \#t hf aug-cc-pvdz symm=none int=(grid=ultrafine) guess=(read,tcheck) 
 stable=(opt,rrhf)\\title\\0,1\O,0,2.164676,-0.539196,0.\O,0,0.08458,2.
 775541,0.\N,0,-1.331579,0.475,0.\N,0,0.72639,1.750983,0.\C,0,0.,0.5223
 58,0.\C,0,0.824411,-0.616949,0.\C,0,0.204822,-1.870177,0.\C,0,-1.90577
 4,-0.710961,0.\C,0,-1.171952,-1.910799,0.\H,0,2.40551,0.402858,0.\H,0,
 0.809768,-2.765739,0.\H,0,-2.988888,-0.732364,0.\H,0,-1.693161,-2.8582
 26,0.\\Version=ES64L-G16RevC.01\HF=-450.2575775\RMSD=8.882e-09\Dipole=
 -0.0624285,-1.5834131,0.\Quadrupole=1.9102881,-1.2694187,-0.6408694,4.
 6508929,0.,0.\PG=Unknown\\@
 The archive entry for this job was punched.


 A successful marriage requires falling in love
 many times, always with the same person.
                           -- Mignon McLaughlin
 Job cpu time:       0 days  0 hours  9 minutes 49.1 seconds.
 Elapsed time:       0 days  0 hours  0 minutes 42.1 seconds.
 File lengths (MBytes):  RWF=    291 Int=      0 D2E=      0 Chk=      9 Scr=      1
 Normal termination of Gaussian 16 at Sun Apr  6 08:03:58 2025.
 Initial command:
 /arc/software/Gaussian/g16.c01/l1.exe "/tmp/slurm/4819618/Gau-1737243.inp" -scrdir="/tmp/slurm/4819618/"
 Entering Link 1 = /arc/software/Gaussian/g16.c01/l1.exe PID=   1737469.
  
 Copyright (c) 1988-2019, Gaussian, Inc.  All Rights Reserved.
  
 This is part of the Gaussian(R) 16 program.  It is based on
 the Gaussian(R) 09 system (copyright 2009, Gaussian, Inc.),
 the Gaussian(R) 03 system (copyright 2003, Gaussian, Inc.),
 the Gaussian(R) 98 system (copyright 1998, Gaussian, Inc.),
 the Gaussian(R) 94 system (copyright 1995, Gaussian, Inc.),
 the Gaussian 92(TM) system (copyright 1992, Gaussian, Inc.),
 the Gaussian 90(TM) system (copyright 1990, Gaussian, Inc.),
 the Gaussian 88(TM) system (copyright 1988, Gaussian, Inc.),
 the Gaussian 86(TM) system (copyright 1986, Carnegie Mellon
 University), and the Gaussian 82(TM) system (copyright 1983,
 Carnegie Mellon University). Gaussian is a federally registered
 trademark of Gaussian, Inc.
  
 This software contains proprietary and confidential information,
 including trade secrets, belonging to Gaussian, Inc.
  
 This software is provided under written license and may be
 used, copied, transmitted, or stored only in accord with that
 written license.
  
 The following legend is applicable only to US Government
 contracts under FAR:
  
                    RESTRICTED RIGHTS LEGEND
  
 Use, reproduction and disclosure by the US Government is
 subject to restrictions as set forth in subparagraphs (a)
 and (c) of the Commercial Computer Software - Restricted
 Rights clause in FAR 52.227-19.
  
 Gaussian, Inc.
 340 Quinnipiac St., Bldg. 40, Wallingford CT 06492
  
  
 ---------------------------------------------------------------
 Warning -- This program may not be used in any manner that
 competes with the business of Gaussian, Inc. or will provide
 assistance to any competitor of Gaussian, Inc.  The licensee
 of this program is prohibited from giving any competitor of
 Gaussian, Inc. access to this program.  By using this program,
 the user acknowledges that Gaussian, Inc. is engaged in the
 business of creating and licensing software in the field of
 computational chemistry and represents and warrants to the
 licensee that it is not a competitor of Gaussian, Inc. and that
 it will not use this program in any manner prohibited above.
 ---------------------------------------------------------------
  

 Cite this work as:
 Gaussian 16, Revision C.01,
 M. J. Frisch, G. W. Trucks, H. B. Schlegel, G. E. Scuseria, 
 M. A. Robb, J. R. Cheeseman, G. Scalmani, V. Barone, 
 G. A. Petersson, H. Nakatsuji, X. Li, M. Caricato, A. V. Marenich, 
 J. Bloino, B. G. Janesko, R. Gomperts, B. Mennucci, H. P. Hratchian, 
 J. V. Ortiz, A. F. Izmaylov, J. L. Sonnenberg, D. Williams-Young, 
 F. Ding, F. Lipparini, F. Egidi, J. Goings, B. Peng, A. Petrone, 
 T. Henderson, D. Ranasinghe, V. G. Zakrzewski, J. Gao, N. Rega, 
 G. Zheng, W. Liang, M. Hada, M. Ehara, K. Toyota, R. Fukuda, 
 J. Hasegawa, M. Ishida, T. Nakajima, Y. Honda, O. Kitao, H. Nakai, 
 T. Vreven, K. Throssell, J. A. Montgomery, Jr., J. E. Peralta, 
 F. Ogliaro, M. J. Bearpark, J. J. Heyd, E. N. Brothers, K. N. Kudin, 
 V. N. Staroverov, T. A. Keith, R. Kobayashi, J. Normand, 
 K. Raghavachari, A. P. Rendell, J. C. Burant, S. S. Iyengar, 
 J. Tomasi, M. Cossi, J. M. Millam, M. Klene, C. Adamo, R. Cammi, 
 J. W. Ochterski, R. L. Martin, K. Morokuma, O. Farkas, 
 J. B. Foresman, and D. J. Fox, Gaussian, Inc., Wallingford CT, 2019.
 
 ******************************************
 Gaussian 16:  ES64L-G16RevC.01  3-Jul-2019
                 6-Apr-2025 
 ******************************************
 %nprocs=16
 Will use up to   16 processors via shared memory.
 %mem=30GB
 %chk=2-nitroso-3-pyridinol.chk
 ----------------------------------------------------------------------
 #t hf aug-cc-pvdz iop(5/13=1,5/36=2,99/5=2) pseudo=read geom=check gue
 ss=(read,tcheck) scf=(maxcycle=1)
 ----------------------------------------------------------------------
 -----
 title
 -----
 Structure from the checkpoint file:  "2-nitroso-3-pyridinol.chk"
 Charge =  0 Multiplicity = 1
 Z-Matrix found in chk file.
 O,0,2.164676,-0.539196,0.
 O,0,0.08458,2.775541,0.
 N,0,-1.331579,0.475,0.
 N,0,0.72639,1.750983,0.
 C,0,0.,0.522358,0.
 C,0,0.824411,-0.616949,0.
 C,0,0.204822,-1.870177,0.
 C,0,-1.905774,-0.710961,0.
 C,0,-1.171952,-1.910799,0.
 H,0,2.40551,0.402858,0.
 H,0,0.809768,-2.765739,0.
 H,0,-2.988888,-0.732364,0.
 H,0,-1.693161,-2.858226,0.
 Recover connectivity data from disk.
                    Distance matrix (angstroms):
                    1          2          3          4          5
     1  O    0.000000
     2  O    3.913346   0.000000
     3  N    3.640384   2.701480   0.000000
     4  N    2.704364   1.208983   2.421439   0.000000
     5  C    2.410958   2.254770   1.332421   1.427292   0.000000
     6  C    1.342518   3.472224   2.416743   2.369960   1.406298
     7  C    2.369080   4.647274   2.803637   3.658529   2.401286
     8  C    4.074072   4.014624   1.317651   3.604089   2.270033
     9  C    3.607545   4.851871   2.391133   4.124603   2.700690
    10  H    0.972351   3.319087   3.737785   2.153343   2.408476
    11  H    2.606390   5.588531   3.884296   4.517492   3.386341
    12  H    5.157183   4.663861   2.050464   4.468814   3.241570
    13  H    4.501201   5.907596   3.352781   5.205673   3.780892
                    6          7          8          9         10
     6  C    0.000000
     7  C    1.398024   0.000000
     8  C    2.731803   2.407986   0.000000
     9  C    2.378973   1.377373   1.406452   0.000000
    10  H    1.881457   3.163813   4.452838   4.260428   0.000000
    11  H    2.148840   1.080736   3.405331   2.158272   3.547732
    12  H    3.815045   3.390340   1.083325   2.165633   5.512555
    13  H    3.370681   2.139762   2.157765   1.081331   5.237726
                   11         12         13
    11  H    0.000000
    12  H    4.308643   0.000000
    13  H    2.504637   2.489618   0.000000
 Framework group  CS[SG(C5H4N2O2)]
 Deg. of freedom    23
                         Standard orientation:                         
 ---------------------------------------------------------------------
 Center     Atomic      Atomic             Coordinates (Angstroms)
 Number     Number       Type             X           Y           Z
 ---------------------------------------------------------------------
      1          8           0        2.164676   -0.539196    0.000000
      2          8           0        0.084580    2.775541    0.000000
      3          7           0       -1.331579    0.475000   -0.000000
      4          7           0        0.726390    1.750983    0.000000
      5          6           0        0.000000    0.522358    0.000000
      6          6           0        0.824411   -0.616949    0.000000
      7          6           0        0.204822   -1.870177   -0.000000
      8          6           0       -1.905774   -0.710961   -0.000000
      9          6           0       -1.171952   -1.910799   -0.000000
     10          1           0        2.405510    0.402858    0.000000
     11          1           0        0.809768   -2.765739   -0.000000
     12          1           0       -2.988888   -0.732364   -0.000000
     13          1           0       -1.693161   -2.858226   -0.000000
 ---------------------------------------------------------------------
 Rotational constants (GHZ):           2.7385699           1.6854282           1.0433239
 ======================================================================================================
                                       Pseudopotential Parameters
 ======================================================================================================
  Center     Atomic      Valence      Angular      Power
  Number     Number     Electrons     Momentum     of R      Exponent        Coefficient   SO-Coeffient
 ======================================================================================================
    1          8            8
                                      G and up 
                                                     0        0.0000010       -0.00165251    0.00000000
                                                     2        0.1200000       -0.10937202    0.00000000
                                                     2        0.1400000        0.35668905    0.00000000
                                                     2        0.1800000       -0.51696033    0.00000000
                                                     2        0.2400000        0.52446472    0.00000000
                                                     2        0.4000000       -0.07754493    0.00000000
                                                     2        0.8000000       -1.90560988    0.00000000
                                                     2        1.7000000        0.19857963    0.00000000
                                      S - G
                                                     0        0.0000010       -0.03845181    0.00000000
                                                     2        0.1400000        0.42024558    0.00000000
                                                     2        0.4000000       -4.10467779    0.00000000
                                                     2        1.3000000        9.99571838    0.00000000
                                      P - G
                                                     0        0.0000010        0.33206183    0.00000000
                                                     2        0.1200000       -0.18708141    0.00000000
                                                     2        0.2800000       -0.18179081    0.00000000
                                                     2        0.7000000        1.18820394    0.00000000
                                      D - G
                                                     0        0.0000010       -0.57891674    0.00000000
                                                     2        0.1200000        0.60487490    0.00000000
                                                     2        0.2400000       -0.24931464    0.00000000
                                                     2        0.3000000       -2.75054612    0.00000000
                                                     2        1.0000000       15.96776040    0.00000000
                                      F - G
                                                     0        0.0000010        0.37449041    0.00000000
                                                     2        0.1200000       -0.63373642    0.00000000
                                                     2        0.1400000       -0.08412804    0.00000000
                                                     2        0.2800000        2.62321406    0.00000000
                                                     2        0.6000000       -2.68223623    0.00000000
    2          8            8
                                      G and up 
                                                     0        0.0000010       -0.00165251    0.00000000
                                                     2        0.1200000       -0.10937202    0.00000000
                                                     2        0.1400000        0.35668905    0.00000000
                                                     2        0.1800000       -0.51696033    0.00000000
                                                     2        0.2400000        0.52446472    0.00000000
                                                     2        0.4000000       -0.07754493    0.00000000
                                                     2        0.8000000       -1.90560988    0.00000000
                                                     2        1.7000000        0.19857963    0.00000000
                                      S - G
                                                     0        0.0000010       -0.03845181    0.00000000
                                                     2        0.1400000        0.42024558    0.00000000
                                                     2        0.4000000       -4.10467779    0.00000000
                                                     2        1.3000000        9.99571838    0.00000000
                                      P - G
                                                     0        0.0000010        0.33206183    0.00000000
                                                     2        0.1200000       -0.18708141    0.00000000
                                                     2        0.2800000       -0.18179081    0.00000000
                                                     2        0.7000000        1.18820394    0.00000000
                                      D - G
                                                     0        0.0000010       -0.57891674    0.00000000
                                                     2        0.1200000        0.60487490    0.00000000
                                                     2        0.2400000       -0.24931464    0.00000000
                                                     2        0.3000000       -2.75054612    0.00000000
                                                     2        1.0000000       15.96776040    0.00000000
                                      F - G
                                                     0        0.0000010        0.37449041    0.00000000
                                                     2        0.1200000       -0.63373642    0.00000000
                                                     2        0.1400000       -0.08412804    0.00000000
                                                     2        0.2800000        2.62321406    0.00000000
                                                     2        0.6000000       -2.68223623    0.00000000
    3          7            7
                                      G and up 
                                                     0        0.0000010        0.00420138    0.00000000
                                                     2        0.1200000        0.05872431    0.00000000
                                                     2        0.1400000       -0.08436978    0.00000000
                                                     2        0.2000000        0.05409159    0.00000000
                                                     2        0.2600000        0.14199713    0.00000000
                                                     2        0.6000000       -0.79062770    0.00000000
                                                     2        0.7000000       -0.14441060    0.00000000
                                                     2        1.5000000        0.73772979    0.00000000
                                      S - G
                                                     0        0.0000010       -0.03094411    0.00000000
                                                     2        0.1200000        0.65332522    0.00000000
                                                     2        0.1800000       -1.38149133    0.00000000
                                                     2        1.3000000        3.29267299    0.00000000
                                      P - G
                                                     0        0.0000010        0.07303105    0.00000000
                                                     2        0.1200000        0.23145115    0.00000000
                                                     2        0.2000000       -1.20679699    0.00000000
                                                     2        0.4000000        1.75088447    0.00000000
                                                     2        1.2000000       -0.67486559    0.00000000
                                      D - G
                                                     0        0.0000010        0.07560739    0.00000000
                                                     2        0.3000000       -0.68679114    0.00000000
                                                     2        0.9000000        3.60133241    0.00000000
                                      F - G
                                                     0        0.0000010       -0.18221184    0.00000000
                                                     2        0.1200000       -0.39369067    0.00000000
                                                     2        0.1800000        0.72091725    0.00000000
                                                     2        0.6000000        0.15946111    0.00000000
    4          7            7
                                      G and up 
                                                     0        0.0000010        0.00420138    0.00000000
                                                     2        0.1200000        0.05872431    0.00000000
                                                     2        0.1400000       -0.08436978    0.00000000
                                                     2        0.2000000        0.05409159    0.00000000
                                                     2        0.2600000        0.14199713    0.00000000
                                                     2        0.6000000       -0.79062770    0.00000000
                                                     2        0.7000000       -0.14441060    0.00000000
                                                     2        1.5000000        0.73772979    0.00000000
                                      S - G
                                                     0        0.0000010       -0.03094411    0.00000000
                                                     2        0.1200000        0.65332522    0.00000000
                                                     2        0.1800000       -1.38149133    0.00000000
                                                     2        1.3000000        3.29267299    0.00000000
                                      P - G
                                                     0        0.0000010        0.07303105    0.00000000
                                                     2        0.1200000        0.23145115    0.00000000
                                                     2        0.2000000       -1.20679699    0.00000000
                                                     2        0.4000000        1.75088447    0.00000000
                                                     2        1.2000000       -0.67486559    0.00000000
                                      D - G
                                                     0        0.0000010        0.07560739    0.00000000
                                                     2        0.3000000       -0.68679114    0.00000000
                                                     2        0.9000000        3.60133241    0.00000000
                                      F - G
                                                     0        0.0000010       -0.18221184    0.00000000
                                                     2        0.1200000       -0.39369067    0.00000000
                                                     2        0.1800000        0.72091725    0.00000000
                                                     2        0.6000000        0.15946111    0.00000000
    5          6            6
                                      G and up 
                                                     0        0.0000010       -0.00286759    0.00000000
                                                     2        0.1200000        0.03193960    0.00000000
                                                     2        0.1600000       -0.04027782    0.00000000
                                                     2        0.2600000        0.24782456    0.00000000
                                                     2        0.4000000       -0.62266671    0.00000000
                                                     2        0.7000000        0.35695227    0.00000000
                                      S - G
                                                     0        0.0000010       -0.06602313    0.00000000
                                                     2        0.1200000        1.47277455    0.00000000
                                                     2        0.1600000       -4.06924166    0.00000000
                                                     2        0.3000000        5.02952802    0.00000000
                                                     2        0.7000000       -5.65856978    0.00000000
                                                     2        1.7000000        8.57604414    0.00000000
                                      P - G
                                                     0        0.0000010        0.49434425    0.00000000
                                                     2        0.1200000       -1.37391547    0.00000000
                                                     2        0.1600000        3.65411806    0.00000000
                                                     2        0.2800000       -7.36479843    0.00000000
                                                     2        0.6000000       17.22091285    0.00000000
                                                     2        1.1000000      -23.50107827    0.00000000
                                                     2        3.0000000       16.29464063    0.00000000
                                      D - G
                                                     0        0.0000010       -0.28693103    0.00000000
                                                     2        0.1200000        0.12273044    0.00000000
                                                     2        0.3000000       -0.43416384    0.00000000
                                                     2        0.7000000        2.23358493    0.00000000
                                      F - G
                                                     0        0.0000010        0.07263570    0.00000000
                                                     2        0.1400000       -0.76152861    0.00000000
                                                     2        0.2200000        1.98045593    0.00000000
                                                     2        0.4000000       -2.42426427    0.00000000
                                                     2        0.7000000        0.52335237    0.00000000
    6          6            6
                                      G and up 
                                                     0        0.0000010       -0.00286759    0.00000000
                                                     2        0.1200000        0.03193960    0.00000000
                                                     2        0.1600000       -0.04027782    0.00000000
                                                     2        0.2600000        0.24782456    0.00000000
                                                     2        0.4000000       -0.62266671    0.00000000
                                                     2        0.7000000        0.35695227    0.00000000
                                      S - G
                                                     0        0.0000010       -0.06602313    0.00000000
                                                     2        0.1200000        1.47277455    0.00000000
                                                     2        0.1600000       -4.06924166    0.00000000
                                                     2        0.3000000        5.02952802    0.00000000
                                                     2        0.7000000       -5.65856978    0.00000000
                                                     2        1.7000000        8.57604414    0.00000000
                                      P - G
                                                     0        0.0000010        0.49434425    0.00000000
                                                     2        0.1200000       -1.37391547    0.00000000
                                                     2        0.1600000        3.65411806    0.00000000
                                                     2        0.2800000       -7.36479843    0.00000000
                                                     2        0.6000000       17.22091285    0.00000000
                                                     2        1.1000000      -23.50107827    0.00000000
                                                     2        3.0000000       16.29464063    0.00000000
                                      D - G
                                                     0        0.0000010       -0.28693103    0.00000000
                                                     2        0.1200000        0.12273044    0.00000000
                                                     2        0.3000000       -0.43416384    0.00000000
                                                     2        0.7000000        2.23358493    0.00000000
                                      F - G
                                                     0        0.0000010        0.07263570    0.00000000
                                                     2        0.1400000       -0.76152861    0.00000000
                                                     2        0.2200000        1.98045593    0.00000000
                                                     2        0.4000000       -2.42426427    0.00000000
                                                     2        0.7000000        0.52335237    0.00000000
    7          6            6
                                      G and up 
                                                     0        0.0000010       -0.00286759    0.00000000
                                                     2        0.1200000        0.03193960    0.00000000
                                                     2        0.1600000       -0.04027782    0.00000000
                                                     2        0.2600000        0.24782456    0.00000000
                                                     2        0.4000000       -0.62266671    0.00000000
                                                     2        0.7000000        0.35695227    0.00000000
                                      S - G
                                                     0        0.0000010       -0.06602313    0.00000000
                                                     2        0.1200000        1.47277455    0.00000000
                                                     2        0.1600000       -4.06924166    0.00000000
                                                     2        0.3000000        5.02952802    0.00000000
                                                     2        0.7000000       -5.65856978    0.00000000
                                                     2        1.7000000        8.57604414    0.00000000
                                      P - G
                                                     0        0.0000010        0.49434425    0.00000000
                                                     2        0.1200000       -1.37391547    0.00000000
                                                     2        0.1600000        3.65411806    0.00000000
                                                     2        0.2800000       -7.36479843    0.00000000
                                                     2        0.6000000       17.22091285    0.00000000
                                                     2        1.1000000      -23.50107827    0.00000000
                                                     2        3.0000000       16.29464063    0.00000000
                                      D - G
                                                     0        0.0000010       -0.28693103    0.00000000
                                                     2        0.1200000        0.12273044    0.00000000
                                                     2        0.3000000       -0.43416384    0.00000000
                                                     2        0.7000000        2.23358493    0.00000000
                                      F - G
                                                     0        0.0000010        0.07263570    0.00000000
                                                     2        0.1400000       -0.76152861    0.00000000
                                                     2        0.2200000        1.98045593    0.00000000
                                                     2        0.4000000       -2.42426427    0.00000000
                                                     2        0.7000000        0.52335237    0.00000000
    8          6            6
                                      G and up 
                                                     0        0.0000010       -0.00286759    0.00000000
                                                     2        0.1200000        0.03193960    0.00000000
                                                     2        0.1600000       -0.04027782    0.00000000
                                                     2        0.2600000        0.24782456    0.00000000
                                                     2        0.4000000       -0.62266671    0.00000000
                                                     2        0.7000000        0.35695227    0.00000000
                                      S - G
                                                     0        0.0000010       -0.06602313    0.00000000
                                                     2        0.1200000        1.47277455    0.00000000
                                                     2        0.1600000       -4.06924166    0.00000000
                                                     2        0.3000000        5.02952802    0.00000000
                                                     2        0.7000000       -5.65856978    0.00000000
                                                     2        1.7000000        8.57604414    0.00000000
                                      P - G
                                                     0        0.0000010        0.49434425    0.00000000
                                                     2        0.1200000       -1.37391547    0.00000000
                                                     2        0.1600000        3.65411806    0.00000000
                                                     2        0.2800000       -7.36479843    0.00000000
                                                     2        0.6000000       17.22091285    0.00000000
                                                     2        1.1000000      -23.50107827    0.00000000
                                                     2        3.0000000       16.29464063    0.00000000
                                      D - G
                                                     0        0.0000010       -0.28693103    0.00000000
                                                     2        0.1200000        0.12273044    0.00000000
                                                     2        0.3000000       -0.43416384    0.00000000
                                                     2        0.7000000        2.23358493    0.00000000
                                      F - G
                                                     0        0.0000010        0.07263570    0.00000000
                                                     2        0.1400000       -0.76152861    0.00000000
                                                     2        0.2200000        1.98045593    0.00000000
                                                     2        0.4000000       -2.42426427    0.00000000
                                                     2        0.7000000        0.52335237    0.00000000
    9          6            6
                                      G and up 
                                                     0        0.0000010       -0.00286759    0.00000000
                                                     2        0.1200000        0.03193960    0.00000000
                                                     2        0.1600000       -0.04027782    0.00000000
                                                     2        0.2600000        0.24782456    0.00000000
                                                     2        0.4000000       -0.62266671    0.00000000
                                                     2        0.7000000        0.35695227    0.00000000
                                      S - G
                                                     0        0.0000010       -0.06602313    0.00000000
                                                     2        0.1200000        1.47277455    0.00000000
                                                     2        0.1600000       -4.06924166    0.00000000
                                                     2        0.3000000        5.02952802    0.00000000
                                                     2        0.7000000       -5.65856978    0.00000000
                                                     2        1.7000000        8.57604414    0.00000000
                                      P - G
                                                     0        0.0000010        0.49434425    0.00000000
                                                     2        0.1200000       -1.37391547    0.00000000
                                                     2        0.1600000        3.65411806    0.00000000
                                                     2        0.2800000       -7.36479843    0.00000000
                                                     2        0.6000000       17.22091285    0.00000000
                                                     2        1.1000000      -23.50107827    0.00000000
                                                     2        3.0000000       16.29464063    0.00000000
                                      D - G
                                                     0        0.0000010       -0.28693103    0.00000000
                                                     2        0.1200000        0.12273044    0.00000000
                                                     2        0.3000000       -0.43416384    0.00000000
                                                     2        0.7000000        2.23358493    0.00000000
                                      F - G
                                                     0        0.0000010        0.07263570    0.00000000
                                                     2        0.1400000       -0.76152861    0.00000000
                                                     2        0.2200000        1.98045593    0.00000000
                                                     2        0.4000000       -2.42426427    0.00000000
                                                     2        0.7000000        0.52335237    0.00000000
   10          1            1
                                      F and up 
                                                     0        0.0000010        0.00072061    0.00000000
                                                     2        0.1200000        0.03832357    0.00000000
                                                     2        0.1400000       -0.08683256    0.00000000
                                                     2        0.1800000        0.09312970    0.00000000
                                                     2        0.2800000       -0.02532572    0.00000000
                                                     2        0.4000000       -0.09430787    0.00000000
                                                     2        0.7000000        0.42710831    0.00000000
                                                     2        1.2000000       -2.11746981    0.00000000
                                      S - F
                                                     0        0.0000010        0.14449603    0.00000000
                                                     2        0.1200000       -0.56378993    0.00000000
                                                     2        0.1400000        0.63941249    0.00000000
                                                     2        0.2600000       -0.58461015    0.00000000
                                                     2        0.5000000        1.00157293    0.00000000
                                                     2        1.8000000       -0.14135838    0.00000000
                                      P - F
                                                     0        0.0000010       -0.09353646    0.00000000
                                                     2        0.1200000        0.31768975    0.00000000
                                                     2        0.2000000       -0.71747951    0.00000000
                                                     2        0.4000000        0.65752308    0.00000000
                                                     2        1.7000000        2.94052587    0.00000000
                                      D - F
                                                     0        0.0000010       -0.04491202    0.00000000
                                                     2        0.1200000       -0.02862031    0.00000000
                                                     2        0.1800000       -0.21515263    0.00000000
                                                     2        0.3000000        0.80560647    0.00000000
                                                     2        0.4000000        0.47351754    0.00000000
                                                     2        0.7000000       -4.57051794    0.00000000
                                                     2        1.6000000       18.53737826    0.00000000
   11          1            1
                                      F and up 
                                                     0        0.0000010        0.00072061    0.00000000
                                                     2        0.1200000        0.03832357    0.00000000
                                                     2        0.1400000       -0.08683256    0.00000000
                                                     2        0.1800000        0.09312970    0.00000000
                                                     2        0.2800000       -0.02532572    0.00000000
                                                     2        0.4000000       -0.09430787    0.00000000
                                                     2        0.7000000        0.42710831    0.00000000
                                                     2        1.2000000       -2.11746981    0.00000000
                                      S - F
                                                     0        0.0000010        0.14449603    0.00000000
                                                     2        0.1200000       -0.56378993    0.00000000
                                                     2        0.1400000        0.63941249    0.00000000
                                                     2        0.2600000       -0.58461015    0.00000000
                                                     2        0.5000000        1.00157293    0.00000000
                                                     2        1.8000000       -0.14135838    0.00000000
                                      P - F
                                                     0        0.0000010       -0.09353646    0.00000000
                                                     2        0.1200000        0.31768975    0.00000000
                                                     2        0.2000000       -0.71747951    0.00000000
                                                     2        0.4000000        0.65752308    0.00000000
                                                     2        1.7000000        2.94052587    0.00000000
                                      D - F
                                                     0        0.0000010       -0.04491202    0.00000000
                                                     2        0.1200000       -0.02862031    0.00000000
                                                     2        0.1800000       -0.21515263    0.00000000
                                                     2        0.3000000        0.80560647    0.00000000
                                                     2        0.4000000        0.47351754    0.00000000
                                                     2        0.7000000       -4.57051794    0.00000000
                                                     2        1.6000000       18.53737826    0.00000000
   12          1            1
                                      F and up 
                                                     0        0.0000010        0.00072061    0.00000000
                                                     2        0.1200000        0.03832357    0.00000000
                                                     2        0.1400000       -0.08683256    0.00000000
                                                     2        0.1800000        0.09312970    0.00000000
                                                     2        0.2800000       -0.02532572    0.00000000
                                                     2        0.4000000       -0.09430787    0.00000000
                                                     2        0.7000000        0.42710831    0.00000000
                                                     2        1.2000000       -2.11746981    0.00000000
                                      S - F
                                                     0        0.0000010        0.14449603    0.00000000
                                                     2        0.1200000       -0.56378993    0.00000000
                                                     2        0.1400000        0.63941249    0.00000000
                                                     2        0.2600000       -0.58461015    0.00000000
                                                     2        0.5000000        1.00157293    0.00000000
                                                     2        1.8000000       -0.14135838    0.00000000
                                      P - F
                                                     0        0.0000010       -0.09353646    0.00000000
                                                     2        0.1200000        0.31768975    0.00000000
                                                     2        0.2000000       -0.71747951    0.00000000
                                                     2        0.4000000        0.65752308    0.00000000
                                                     2        1.7000000        2.94052587    0.00000000
                                      D - F
                                                     0        0.0000010       -0.04491202    0.00000000
                                                     2        0.1200000       -0.02862031    0.00000000
                                                     2        0.1800000       -0.21515263    0.00000000
                                                     2        0.3000000        0.80560647    0.00000000
                                                     2        0.4000000        0.47351754    0.00000000
                                                     2        0.7000000       -4.57051794    0.00000000
                                                     2        1.6000000       18.53737826    0.00000000
   13          1            1
                                      F and up 
                                                     0        0.0000010        0.00072061    0.00000000
                                                     2        0.1200000        0.03832357    0.00000000
                                                     2        0.1400000       -0.08683256    0.00000000
                                                     2        0.1800000        0.09312970    0.00000000
                                                     2        0.2800000       -0.02532572    0.00000000
                                                     2        0.4000000       -0.09430787    0.00000000
                                                     2        0.7000000        0.42710831    0.00000000
                                                     2        1.2000000       -2.11746981    0.00000000
                                      S - F
                                                     0        0.0000010        0.14449603    0.00000000
                                                     2        0.1200000       -0.56378993    0.00000000
                                                     2        0.1400000        0.63941249    0.00000000
                                                     2        0.2600000       -0.58461015    0.00000000
                                                     2        0.5000000        1.00157293    0.00000000
                                                     2        1.8000000       -0.14135838    0.00000000
                                      P - F
                                                     0        0.0000010       -0.09353646    0.00000000
                                                     2        0.1200000        0.31768975    0.00000000
                                                     2        0.2000000       -0.71747951    0.00000000
                                                     2        0.4000000        0.65752308    0.00000000
                                                     2        1.7000000        2.94052587    0.00000000
                                      D - F
                                                     0        0.0000010       -0.04491202    0.00000000
                                                     2        0.1200000       -0.02862031    0.00000000
                                                     2        0.1800000       -0.21515263    0.00000000
                                                     2        0.3000000        0.80560647    0.00000000
                                                     2        0.4000000        0.47351754    0.00000000
                                                     2        0.7000000       -4.57051794    0.00000000
                                                     2        1.6000000       18.53737826    0.00000000
 ======================================================================================================
   243 basis functions,   431 primitive gaussians,   261 cartesian basis functions
    32 alpha electrons       32 beta electrons
       nuclear repulsion energy       415.6398841945 Hartrees.
 NAtoms=   13 NActive=   13 NUniq=   13 SFac= 1.00D+00 NAtFMM=   60 NAOKFM=F Big=F
   2 Symmetry operations used in ECPInt.
 ECPInt:  NShTT=    5151 NPrTT=   28147 LenC2=    5129 LenP2D=   20439.
 LDataN:  DoStor=T MaxTD1= 6 Len=  172
 Initial guess from the checkpoint file:  "2-nitroso-3-pyridinol.chk"
 B after Tr=     0.000000   -0.000000   -0.000000
         Rot=    1.000000   -0.000000    0.000000   -0.000000 Ang=  -0.00 deg.
 Initial guess orbital symmetries:
       Occupied  (A') (A') (A') (A') (A') (A') (A') (A') (A') (A')
                 (A') (A') (A') (A') (A') (A') (A') (A') (A') (A')
                 (A') (A') (A") (A') (A') (A") (A') (A") (A') (A')
                 (A") (A")
       Virtual   (A") (A') (A') (A') (A') (A") (A') (A") (A') (A")
                 (A') (A') (A") (A') (A') (A") (A') (A') (A') (A")
                 (A') (A') (A") (A') (A') (A") (A') (A') (A') (A")
                 (A') (A') (A') (A") (A') (A") (A') (A') (A') (A")
                 (A') (A') (A') (A") (A') (A') (A') (A') (A') (A')
                 (A") (A') (A") (A') (A") (A') (A') (A') (A") (A')
                 (A') (A") (A') (A') (A') (A") (A') (A') (A') (A")
                 (A') (A') (A') (A") (A') (A") (A') (A') (A') (A")
                 (A') (A') (A") (A') (A') (A") (A") (A') (A') (A")
                 (A') (A") (A') (A") (A') (A') (A') (A") (A') (A")
                 (A') (A') (A") (A') (A") (A') (A') (A') (A") (A')
                 (A") (A') (A") (A') (A") (A') (A') (A") (A') (A")
                 (A') (A') (A') (A') (A") (A') (A") (A') (A') (A")
                 (A') (A') (A') (A") (A') (A") (A") (A') (A') (A')
                 (A') (A") (A") (A') (A") (A') (A') (A") (A') (A")
                 (A') (A') (A") (A') (A') (A') (A') (A") (A') (A")
                 (A") (A') (A') (A') (A') (A') (A") (A') (A') (A")
                 (A') (A") (A') (A') (A") (A') (A") (A') (A') (A')
                 (A') (A") (A') (A') (A') (A') (A") (A') (A') (A')
                 (A') (A') (A') (A') (A') (A') (A') (A') (A") (A')
                 (A") (A") (A') (A") (A') (A') (A') (A') (A') (A')
                 (A')
 >>>>>>>>>> Convergence criterion not met.
 SCF Done:  E(RHF) =  -452.225810063     A.U. after    2 cycles
            NFock=  1  Conv=0.15D+01     -V/T= 2.0232

 **********************************************************************

            Population analysis using the SCF Density.

 **********************************************************************

 Orbital symmetries:
       Occupied  (A') (A') (A') (A') (A') (A') (A') (A') (A') (A')
                 (A') (A') (A') (A') (A') (A') (A') (A') (A') (A')
                 (A") (A') (A') (A') (A") (A') (A') (A") (A") (A')
                 (A") (A')
       Virtual   (A') (A') (A') (A") (A') (A') (A") (A') (A') (A")
                 (A') (A") (A') (A') (A") (A') (A") (A') (A') (A')
                 (A') (A") (A") (A') (A') (A") (A') (A') (A') (A')
                 (A") (A') (A') (A') (A") (A') (A') (A") (A') (A')
                 (A") (A') (A') (A") (A') (A') (A') (A") (A') (A')
                 (A') (A") (A') (A') (A') (A") (A') (A') (A") (A')
                 (A") (A') (A') (A') (A') (A") (A') (A') (A') (A')
                 (A") (A') (A") (A') (A') (A") (A') (A') (A') (A")
                 (A') (A") (A') (A') (A') (A") (A') (A") (A') (A")
                 (A') (A') (A") (A") (A') (A') (A") (A') (A') (A')
                 (A') (A") (A') (A") (A') (A") (A') (A") (A') (A')
                 (A') (A") (A') (A") (A') (A") (A") (A') (A') (A')
                 (A') (A") (A') (A') (A") (A') (A") (A') (A") (A')
                 (A') (A') (A") (A") (A') (A') (A") (A') (A') (A')
                 (A") (A') (A") (A') (A') (A') (A") (A') (A") (A')
                 (A") (A") (A') (A") (A') (A') (A") (A') (A") (A')
                 (A') (A') (A') (A") (A') (A') (A") (A') (A') (A")
                 (A') (A') (A') (A') (A') (A') (A") (A") (A') (A')
                 (A') (A") (A') (A') (A') (A") (A') (A') (A') (A')
                 (A') (A') (A') (A') (A') (A') (A') (A') (A') (A')
                 (A') (A") (A') (A") (A") (A") (A') (A') (A') (A')
                 (A')
 The electronic state is 1-A'.
 Alpha  occ. eigenvalues --  -21.12844 -21.12705 -15.86736 -15.77091 -11.53542
 Alpha  occ. eigenvalues --  -11.48038 -11.46386 -11.45208 -11.40997  -1.86421
 Alpha  occ. eigenvalues --   -1.79062  -1.46865  -1.21535  -1.18886  -1.03435
 Alpha  occ. eigenvalues --   -0.90662  -0.86412  -0.74247  -0.69660  -0.66960
 Alpha  occ. eigenvalues --   -0.62277  -0.61576  -0.58870  -0.52915  -0.51851
 Alpha  occ. eigenvalues --   -0.51807  -0.50468  -0.48132  -0.37993  -0.37709
 Alpha  occ. eigenvalues --   -0.29636  -0.28149
 Alpha virt. eigenvalues --    0.03035   0.05013   0.05159   0.06167   0.06314
 Alpha virt. eigenvalues --    0.09193   0.09993   0.10209   0.11988   0.12463
 Alpha virt. eigenvalues --    0.12971   0.13195   0.13695   0.14059   0.14216
 Alpha virt. eigenvalues --    0.15251   0.15765   0.15847   0.16530   0.17265
 Alpha virt. eigenvalues --    0.18029   0.18412   0.20168   0.20353   0.21111
 Alpha virt. eigenvalues --    0.23230   0.23310   0.24593   0.25882   0.27101
 Alpha virt. eigenvalues --    0.28377   0.28392   0.28961   0.29947   0.30819
 Alpha virt. eigenvalues --    0.32455   0.33245   0.33979   0.34730   0.35339
 Alpha virt. eigenvalues --    0.35817   0.36216   0.37125   0.38201   0.38468
 Alpha virt. eigenvalues --    0.39588   0.40235   0.41360   0.41513   0.42230
 Alpha virt. eigenvalues --    0.45323   0.45624   0.47825   0.50936   0.51015
 Alpha virt. eigenvalues --    0.51198   0.53911   0.55117   0.55374   0.56824
 Alpha virt. eigenvalues --    0.57508   0.59237   0.60174   0.61681   0.62676
 Alpha virt. eigenvalues --    0.64056   0.64277   0.65650   0.65976   0.67788
 Alpha virt. eigenvalues --    0.68488   0.69383   0.70478   0.71292   0.72674
 Alpha virt. eigenvalues --    0.72995   0.73101   0.74269   0.75668   0.80177
 Alpha virt. eigenvalues --    0.80481   0.82911   0.83876   0.85889   0.87713
 Alpha virt. eigenvalues --    0.89531   0.90158   0.90347   0.90869   0.93818
 Alpha virt. eigenvalues --    0.94193   0.95484   0.96405   0.96839   0.97911
 Alpha virt. eigenvalues --    1.00094   1.02345   1.02411   1.03570   1.05506
 Alpha virt. eigenvalues --    1.07517   1.08571   1.13367   1.13610   1.16693
 Alpha virt. eigenvalues --    1.17280   1.18339   1.22296   1.23729   1.26983
 Alpha virt. eigenvalues --    1.30325   1.31325   1.33373   1.34516   1.37304
 Alpha virt. eigenvalues --    1.38842   1.43908   1.44342   1.45879   1.49150
 Alpha virt. eigenvalues --    1.51511   1.54718   1.57558   1.65781   1.66835
 Alpha virt. eigenvalues --    1.68207   1.71798   1.72368   1.74873   1.76188
 Alpha virt. eigenvalues --    1.78798   1.82518   1.82970   1.85935   1.86656
 Alpha virt. eigenvalues --    1.86947   1.88903   1.92560   1.93091   1.94551
 Alpha virt. eigenvalues --    1.97863   2.01559   2.05096   2.06734   2.07347
 Alpha virt. eigenvalues --    2.09705   2.11726   2.15698   2.17144   2.19414
 Alpha virt. eigenvalues --    2.22413   2.23208   2.25173   2.30591   2.32371
 Alpha virt. eigenvalues --    2.32898   2.36514   2.37916   2.38693   2.42359
 Alpha virt. eigenvalues --    2.43572   2.47699   2.48765   2.49677   2.52093
 Alpha virt. eigenvalues --    2.55851   2.60133   2.61350   2.65995   2.72273
 Alpha virt. eigenvalues --    2.73200   2.76958   2.79210   2.83600   2.89976
 Alpha virt. eigenvalues --    2.98754   3.00579   3.04592   3.06074   3.07002
 Alpha virt. eigenvalues --    3.11268   3.18230   3.19290   3.24079   3.32525
 Alpha virt. eigenvalues --    3.35484   3.40380   3.40919   3.47016   3.52591
 Alpha virt. eigenvalues --    3.60299   3.62337   3.75114   3.75626   3.83043
 Alpha virt. eigenvalues --    3.90238   3.96823   4.05776   4.19537   4.22136
 Alpha virt. eigenvalues --    4.65433   5.91085   5.98422   5.99518   6.08700
 Alpha virt. eigenvalues --    6.12765   6.13760   6.22111   6.31783   6.33798
 Alpha virt. eigenvalues --    6.89312
          Condensed to atoms (all electrons):
 Mulliken charges:
               1
     1  O   -4.534399
     2  O   -2.457296
     3  N   -3.240875
     4  N    0.371616
     5  C    0.048905
     6  C    5.544711
     7  C   -0.301993
     8  C   -0.644318
     9  C   -0.548660
    10  H    1.059757
    11  H    1.711758
    12  H    1.585614
    13  H    1.405179
 Sum of Mulliken charges =   0.00000
 Mulliken charges with hydrogens summed into heavy atoms:
               1
     1  O   -3.474641
     2  O   -2.457296
     3  N   -3.240875
     4  N    0.371616
     5  C    0.048905
     6  C    5.544711
     7  C    1.409765
     8  C    0.941296
     9  C    0.856519
 Electronic spatial extent (au):  <R**2>=           1063.6939
 Charge=              0.0000 electrons
 Dipole moment (field-independent basis, Debye):
    X=              0.0824    Y=             -2.5080    Z=             -0.0000  Tot=              2.5093

 Test job not archived.
 1\1\GINC-SE038\SP\RHF\Aug-CC-pVDZ\C5H4N2O2\OHZDE\06-Apr-2025\0\\#t hf 
 aug-cc-pvdz iop(5/13=1,5/36=2,99/5=2) pseudo=read geom=check guess=(re
 ad,tcheck) scf=(maxcycle=1)\\title\\0,1\O,0,2.164676,-0.539196,0.\O,0,
 0.08458,2.775541,0.\N,0,-1.331579,0.475,0.\N,0,0.72639,1.750983,0.\C,0
 ,0.,0.522358,0.\C,0,0.824411,-0.616949,0.\C,0,0.204822,-1.870177,0.\C,
 0,-1.905774,-0.710961,0.\C,0,-1.171952,-1.910799,0.\H,0,2.40551,0.4028
 58,0.\H,0,0.809768,-2.765739,0.\H,0,-2.988888,-0.732364,0.\H,0,-1.6931
 61,-2.858226,0.\\Version=ES64L-G16RevC.01\State=1-A'\HF=-452.2258101\R
 MSD=1.511e+00\Dipole=0.0324333,-0.9867158,0.\Quadrupole=0.660796,1.004
 7645,-1.6655606,2.2645266,0.,0.\PG=CS [SG(C5H4N2O2)]\\@


 THE THINKER DIES, BUT HIS THOUGHTS ARE BEYOND THE 
 REACH OF DESTRUCTION.  MEN ARE MORTAL; BUT IDEAS 
 ARE IMMORTAL.
                              -- WALTER LIPPMANN
 Job cpu time:       0 days  0 hours  1 minutes  0.1 seconds.
 Elapsed time:       0 days  0 hours  0 minutes  4.7 seconds.
 File lengths (MBytes):  RWF=     14 Int=      0 D2E=      0 Chk=      9 Scr=      1
 Normal termination of Gaussian 16 at Sun Apr  6 08:04:03 2025.
