 Entering Gaussian System, Link 0=g16
 Input=3-5-dichloroaniline.gjf
 Output=3-5-dichloroaniline.log
 Initial command:
 /arc/software/Gaussian/g16.c01/l1.exe "/tmp/slurm/4819669/Gau-412458.inp" -scrdir="/tmp/slurm/4819669/"
 Entering Link 1 = /arc/software/Gaussian/g16.c01/l1.exe PID=    412459.
  
 Copyright (c) 1988-2019, Gaussian, Inc.  All Rights Reserved.
  
 This is part of the Gaussian(R) 16 program.  It is based on
 the Gaussian(R) 09 system (copyright 2009, Gaussian, Inc.),
 the Gaussian(R) 03 system (copyright 2003, Gaussian, Inc.),
 the Gaussian(R) 98 system (copyright 1998, Gaussian, Inc.),
 the Gaussian(R) 94 system (copyright 1995, Gaussian, Inc.),
 the Gaussian 92(TM) system (copyright 1992, Gaussian, Inc.),
 the Gaussian 90(TM) system (copyright 1990, Gaussian, Inc.),
 the Gaussian 88(TM) system (copyright 1988, Gaussian, Inc.),
 the Gaussian 86(TM) system (copyright 1986, Carnegie Mellon
 University), and the Gaussian 82(TM) system (copyright 1983,
 Carnegie Mellon University). Gaussian is a federally registered
 trademark of Gaussian, Inc.
  
 This software contains proprietary and confidential information,
 including trade secrets, belonging to Gaussian, Inc.
  
 This software is provided under written license and may be
 used, copied, transmitted, or stored only in accord with that
 written license.
  
 The following legend is applicable only to US Government
 contracts under FAR:
  
                    RESTRICTED RIGHTS LEGEND
  
 Use, reproduction and disclosure by the US Government is
 subject to restrictions as set forth in subparagraphs (a)
 and (c) of the Commercial Computer Software - Restricted
 Rights clause in FAR 52.227-19.
  
 Gaussian, Inc.
 340 Quinnipiac St., Bldg. 40, Wallingford CT 06492
  
  
 ---------------------------------------------------------------
 Warning -- This program may not be used in any manner that
 competes with the business of Gaussian, Inc. or will provide
 assistance to any competitor of Gaussian, Inc.  The licensee
 of this program is prohibited from giving any competitor of
 Gaussian, Inc. access to this program.  By using this program,
 the user acknowledges that Gaussian, Inc. is engaged in the
 business of creating and licensing software in the field of
 computational chemistry and represents and warrants to the
 licensee that it is not a competitor of Gaussian, Inc. and that
 it will not use this program in any manner prohibited above.
 ---------------------------------------------------------------
  

 Cite this work as:
 Gaussian 16, Revision C.01,
 M. J. Frisch, G. W. Trucks, H. B. Schlegel, G. E. Scuseria, 
 M. A. Robb, J. R. Cheeseman, G. Scalmani, V. Barone, 
 G. A. Petersson, H. Nakatsuji, X. Li, M. Caricato, A. V. Marenich, 
 J. Bloino, B. G. Janesko, R. Gomperts, B. Mennucci, H. P. Hratchian, 
 J. V. Ortiz, A. F. Izmaylov, J. L. Sonnenberg, D. Williams-Young, 
 F. Ding, F. Lipparini, F. Egidi, J. Goings, B. Peng, A. Petrone, 
 T. Henderson, D. Ranasinghe, V. G. Zakrzewski, J. Gao, N. Rega, 
 G. Zheng, W. Liang, M. Hada, M. Ehara, K. Toyota, R. Fukuda, 
 J. Hasegawa, M. Ishida, T. Nakajima, Y. Honda, O. Kitao, H. Nakai, 
 T. Vreven, K. Throssell, J. A. Montgomery, Jr., J. E. Peralta, 
 F. Ogliaro, M. J. Bearpark, J. J. Heyd, E. N. Brothers, K. N. Kudin, 
 V. N. Staroverov, T. A. Keith, R. Kobayashi, J. Normand, 
 K. Raghavachari, A. P. Rendell, J. C. Burant, S. S. Iyengar, 
 J. Tomasi, M. Cossi, J. M. Millam, M. Klene, C. Adamo, R. Cammi, 
 J. W. Ochterski, R. L. Martin, K. Morokuma, O. Farkas, 
 J. B. Foresman, and D. J. Fox, Gaussian, Inc., Wallingford CT, 2019.
 
 ******************************************
 Gaussian 16:  ES64L-G16RevC.01  3-Jul-2019
                 6-Apr-2025 
 ******************************************
 %nprocs=16
 Will use up to   16 processors via shared memory.
 %mem=30GB
 %chk=3-5-dichloroaniline.chk
 ----------------------------------------------------------------------
 #t hf aug-cc-pvdz symm=none int=(grid=ultrafine) guess=(read,tcheck) s
 table=(opt,rrhf)
 ----------------------------------------------------------------------
 -----
 title
 -----
 Symbolic Z-matrix:
 Charge =  0 Multiplicity = 1
 C                    -0.00261  -1.73371   0. 
 C                    -0.00241  -1.02415   1.2073 
 C                    -0.00241   0.35933   1.18324 
 C                    -0.00259   1.08511   0. 
 C                    -0.00241   0.35933  -1.18324 
 C                    -0.00241  -1.02415  -1.2073 
 N                    -0.06019  -3.11891   0. 
 H                    -0.00735  -1.54868   2.15191 
 Cl                    0.00035   1.22908   2.70458 
 H                    -0.00201   2.16252   0. 
 Cl                    0.00035   1.22908  -2.70458 
 H                    -0.00735  -1.54868  -2.15191 
 H                     0.25763  -3.57598  -0.83838 
 H                     0.25763  -3.57598   0.83838 
 
                    Distance matrix (angstroms):
                    1          2          3          4          5
     1  C    0.000000
     2  C    1.400378   0.000000
     3  C    2.404344   1.383686   0.000000
     4  C    2.818818   2.430334   1.388091   0.000000
     5  C    2.404344   2.762005   2.366470   1.388091   0.000000
     6  C    1.400378   2.414602   2.762005   2.430334   1.383686
     7  N    1.386396   2.418461   3.674446   4.204413   3.674446
     8  H    2.159859   1.080489   2.139832   3.401118   3.842364
     9  Cl   4.011592   2.705340   1.752415   2.708412   3.983915
    10  H    3.896227   3.407696   2.156739   1.077409   2.156739
    11  Cl   4.011592   4.514403   3.983915   2.708412   1.752415
    12  H    2.159859   3.399925   3.842364   3.401118   2.139832
    13  H    2.040723   3.280895   4.431839   4.743026   3.958938
    14  H    2.040723   2.591440   3.958938   4.743026   4.431839
                    6          7          8          9         10
     6  C    0.000000
     7  N    2.418461   0.000000
     8  H    3.399925   2.664422   0.000000
     9  Cl   4.514403   5.120880   2.832216   0.000000
    10  H    3.407696   5.281747   4.289960   2.861132   0.000000
    11  Cl   2.705340   5.120880   5.594779   5.409162   2.861132
    12  H    1.080489   2.664422   4.303828   5.594779   4.289960
    13  H    2.591440   1.006379   3.622429   5.975559   5.805221
    14  H    3.280895   1.006379   2.430124   5.161147   5.805221
                   11         12         13         14
    11  Cl   0.000000
    12  H    2.832216   0.000000
    13  H    5.161147   2.430124   0.000000
    14  H    5.975559   3.622429   1.676760   0.000000
 Symmetry turned off by external request.
 Rotational constants (GHZ):           1.4229148           0.8549918           0.5342829
   260 basis functions,   518 primitive gaussians,   278 cartesian basis functions
    41 alpha electrons       41 beta electrons
       nuclear repulsion energy       546.5603773021 Hartrees.
 NAtoms=   14 NActive=   14 NUniq=   14 SFac= 1.00D+00 NAtFMM=   60 NAOKFM=F Big=F
 ExpMin= 2.97D-02 ExpMax= 1.28D+05 ExpMxC= 1.24D+03 IAcc=3 IRadAn=         5 AccDes= 0.00D+00
 Harris functional with IExCor=  205 and IRadAn=       5 diagonalized for initial guess.
 HarFok:  IExCor=  205 AccDes= 0.00D+00 IRadAn=         5 IDoV= 1 UseB2=F ITyADJ=14
 ICtDFT=  3500011 ScaDFX=  1.000000  1.000000  1.000000  1.000000
 FoFCou: FMM=F IPFlag=           0 FMFlag=      100000 FMFlg1=           0
         NFxFlg=           0 DoJE=T BraDBF=F KetDBF=T FulRan=T
         wScrn=  0.000000 ICntrl=       500 IOpCl=  0 I1Cent=   200000004 NGrid=           0
         NMat0=    1 NMatS0=      1 NMatT0=    0 NMatD0=    1 NMtDS0=    0 NMtDT0=    0
 Symmetry not used in FoFCou.
 SCF Done:  E(RHF) =  -1203.61535533     A.U. after   15 cycles
            NFock= 15  Conv=0.41D-08     -V/T= 2.0001

 **********************************************************************

            Population analysis using the SCF Density.

 **********************************************************************

 Alpha  occ. eigenvalues -- -104.84580-104.84580 -15.59513 -11.32436 -11.32435
 Alpha  occ. eigenvalues --  -11.31516 -11.25396 -11.25395 -11.25375 -10.57173
 Alpha  occ. eigenvalues --  -10.57172  -8.03953  -8.03953  -8.03619  -8.03618
 Alpha  occ. eigenvalues --   -8.03608  -8.03608  -1.25700  -1.20072  -1.16045
 Alpha  occ. eigenvalues --   -1.09166  -1.01194  -1.00546  -0.84443  -0.83263
 Alpha  occ. eigenvalues --   -0.72341  -0.71527  -0.67967  -0.63827  -0.60881
 Alpha  occ. eigenvalues --   -0.59702  -0.57937  -0.55152  -0.52187  -0.51314
 Alpha  occ. eigenvalues --   -0.50789  -0.46786  -0.45749  -0.43335  -0.34685
 Alpha  occ. eigenvalues --   -0.31857
 Alpha virt. eigenvalues --    0.02640   0.04159   0.04958   0.05846   0.07380
 Alpha virt. eigenvalues --    0.08760   0.09428   0.09899   0.10213   0.10334
 Alpha virt. eigenvalues --    0.10583   0.12376   0.13037   0.14389   0.15256
 Alpha virt. eigenvalues --    0.15329   0.15617   0.16477   0.16539   0.16792
 Alpha virt. eigenvalues --    0.17480   0.17573   0.17793   0.18331   0.18613
 Alpha virt. eigenvalues --    0.19863   0.20518   0.21363   0.22041   0.22455
 Alpha virt. eigenvalues --    0.23197   0.24069   0.24414   0.25159   0.25737
 Alpha virt. eigenvalues --    0.27424   0.28423   0.28867   0.29305   0.29580
 Alpha virt. eigenvalues --    0.31474   0.31588   0.32681   0.32942   0.34450
 Alpha virt. eigenvalues --    0.35153   0.35411   0.37825   0.38283   0.38788
 Alpha virt. eigenvalues --    0.40136   0.40985   0.42059   0.43351   0.43365
 Alpha virt. eigenvalues --    0.44047   0.44672   0.44954   0.45395   0.47380
 Alpha virt. eigenvalues --    0.48861   0.49469   0.51671   0.52426   0.52856
 Alpha virt. eigenvalues --    0.54511   0.57310   0.57906   0.57959   0.59155
 Alpha virt. eigenvalues --    0.59569   0.60915   0.61545   0.62065   0.62721
 Alpha virt. eigenvalues --    0.63196   0.64887   0.65361   0.66669   0.67679
 Alpha virt. eigenvalues --    0.67729   0.70004   0.70734   0.70840   0.72284
 Alpha virt. eigenvalues --    0.72521   0.73890   0.74034   0.76165   0.77103
 Alpha virt. eigenvalues --    0.77782   0.78393   0.80301   0.80855   0.81971
 Alpha virt. eigenvalues --    0.83361   0.83648   0.84549   0.85266   0.87491
 Alpha virt. eigenvalues --    0.88769   0.90355   0.90643   0.91642   0.92642
 Alpha virt. eigenvalues --    0.93762   0.95663   0.96328   0.96540   0.97371
 Alpha virt. eigenvalues --    0.97797   0.99217   0.99781   1.01228   1.03868
 Alpha virt. eigenvalues --    1.04547   1.05876   1.07489   1.11373   1.11449
 Alpha virt. eigenvalues --    1.12200   1.14850   1.17759   1.18360   1.21261
 Alpha virt. eigenvalues --    1.22199   1.25466   1.27896   1.29169   1.29980
 Alpha virt. eigenvalues --    1.36156   1.40315   1.43137   1.44596   1.44994
 Alpha virt. eigenvalues --    1.45423   1.46511   1.47052   1.47859   1.48073
 Alpha virt. eigenvalues --    1.48918   1.50815   1.51595   1.54292   1.55151
 Alpha virt. eigenvalues --    1.55708   1.59664   1.60644   1.61725   1.64081
 Alpha virt. eigenvalues --    1.64847   1.66149   1.67218   1.67445   1.69337
 Alpha virt. eigenvalues --    1.69374   1.70325   1.71544   1.71952   1.74548
 Alpha virt. eigenvalues --    1.75013   1.84381   1.84544   1.84954   1.87244
 Alpha virt. eigenvalues --    1.88672   1.90909   1.93898   1.93986   1.96686
 Alpha virt. eigenvalues --    1.98189   2.01920   2.02130   2.05684   2.06284
 Alpha virt. eigenvalues --    2.11072   2.13248   2.15060   2.17434   2.19397
 Alpha virt. eigenvalues --    2.21089   2.22383   2.25768   2.27536   2.28187
 Alpha virt. eigenvalues --    2.29512   2.30825   2.31185   2.33044   2.35755
 Alpha virt. eigenvalues --    2.36193   2.39188   2.39756   2.43592   2.45853
 Alpha virt. eigenvalues --    2.50240   2.54085   2.59714   2.60392   2.60998
 Alpha virt. eigenvalues --    2.65765   2.77733   2.83708   2.88444   2.92043
 Alpha virt. eigenvalues --    2.93866   2.99965   3.11303   3.12238   3.17041
 Alpha virt. eigenvalues --    3.19110   3.30609   3.30868   3.44105   3.53281
 Alpha virt. eigenvalues --    3.65994   3.73298   3.82050   4.31895
          Condensed to atoms (all electrons):
 Mulliken charges:
               1
     1  C    0.483233
     2  C    0.918556
     3  C   -0.330564
     4  C    0.954359
     5  C   -0.330564
     6  C    0.918556
     7  N   -0.416795
     8  H   -0.490521
     9  Cl  -0.388323
    10  H   -0.371438
    11  Cl  -0.388323
    12  H   -0.490521
    13  H   -0.033828
    14  H   -0.033828
 Sum of Mulliken charges =  -0.00000
 Mulliken charges with hydrogens summed into heavy atoms:
               1
     1  C    0.483233
     2  C    0.428035
     3  C   -0.330564
     4  C    0.582922
     5  C   -0.330564
     6  C    0.428035
     7  N   -0.484452
     9  Cl  -0.388323
    11  Cl  -0.388323
 Electronic spatial extent (au):  <R**2>=           1886.8533
 Charge=             -0.0000 electrons
 Dipole moment (field-independent basis, Debye):
    X=              0.9110    Y=             -3.2419    Z=             -0.0000  Tot=              3.3674
 NROrb=    260 NOA=    41 NOB=    41 NVA=   219 NVB=   219

 **** Warning!!: The largest alpha MO coefficient is  0.14048488D+03

    12 initial guesses have been made.
 Iteration     1 Dimension    12 NMult     0 NNew     12
 Iteration     2 Dimension    24 NMult    12 NNew     12
 Iteration     3 Dimension    27 NMult    24 NNew      3
 Iteration     4 Dimension    30 NMult    27 NNew      3
 Iteration     5 Dimension    33 NMult    30 NNew      3
 Iteration     6 Dimension    36 NMult    33 NNew      3
 ***********************************************************************
 Stability analysis using <AA,BB:AA,BB> singles matrix:
 ***********************************************************************
 Ground to excited state transition densities written to RWF  633

 Eigenvectors of the stability matrix:
 
 Excited state symmetry could not be determined.
 Eigenvector   1:      Singlet-?Sym  Eigenvalue= 0.1625529  <S**2>=0.000
      40 -> 50         0.31203
      40 -> 51         0.13802
      40 -> 55         0.10050
      40 -> 58         0.10405
      40 -> 62        -0.11729
      41 -> 47         0.48689
      41 -> 49        -0.10329
      41 -> 56         0.15761
      41 -> 57        -0.11905
 The wavefunction is stable under the perturbations considered.
 The wavefunction is already stable.

 **********************************************************************

            Population analysis using the SCF Density.

 **********************************************************************

 Alpha  occ. eigenvalues -- -104.84580-104.84580 -15.59513 -11.32436 -11.32435
 Alpha  occ. eigenvalues --  -11.31516 -11.25396 -11.25395 -11.25375 -10.57173
 Alpha  occ. eigenvalues --  -10.57172  -8.03953  -8.03953  -8.03619  -8.03618
 Alpha  occ. eigenvalues --   -8.03608  -8.03608  -1.25700  -1.20072  -1.16045
 Alpha  occ. eigenvalues --   -1.09166  -1.01194  -1.00546  -0.84443  -0.83263
 Alpha  occ. eigenvalues --   -0.72341  -0.71527  -0.67967  -0.63827  -0.60881
 Alpha  occ. eigenvalues --   -0.59702  -0.57937  -0.55152  -0.52187  -0.51314
 Alpha  occ. eigenvalues --   -0.50789  -0.46786  -0.45749  -0.43335  -0.34685
 Alpha  occ. eigenvalues --   -0.31857
 Alpha virt. eigenvalues --    0.02640   0.04159   0.04958   0.05846   0.07380
 Alpha virt. eigenvalues --    0.08760   0.09428   0.09899   0.10213   0.10334
 Alpha virt. eigenvalues --    0.10583   0.12376   0.13037   0.14389   0.15256
 Alpha virt. eigenvalues --    0.15329   0.15617   0.16477   0.16539   0.16792
 Alpha virt. eigenvalues --    0.17480   0.17573   0.17793   0.18331   0.18613
 Alpha virt. eigenvalues --    0.19863   0.20518   0.21363   0.22041   0.22455
 Alpha virt. eigenvalues --    0.23197   0.24069   0.24414   0.25159   0.25737
 Alpha virt. eigenvalues --    0.27424   0.28423   0.28867   0.29305   0.29580
 Alpha virt. eigenvalues --    0.31474   0.31588   0.32681   0.32942   0.34450
 Alpha virt. eigenvalues --    0.35153   0.35411   0.37825   0.38283   0.38788
 Alpha virt. eigenvalues --    0.40136   0.40985   0.42059   0.43351   0.43365
 Alpha virt. eigenvalues --    0.44047   0.44672   0.44954   0.45395   0.47380
 Alpha virt. eigenvalues --    0.48861   0.49469   0.51671   0.52426   0.52856
 Alpha virt. eigenvalues --    0.54511   0.57310   0.57906   0.57959   0.59155
 Alpha virt. eigenvalues --    0.59569   0.60915   0.61545   0.62065   0.62721
 Alpha virt. eigenvalues --    0.63196   0.64887   0.65361   0.66669   0.67679
 Alpha virt. eigenvalues --    0.67729   0.70004   0.70734   0.70840   0.72284
 Alpha virt. eigenvalues --    0.72521   0.73890   0.74034   0.76165   0.77103
 Alpha virt. eigenvalues --    0.77782   0.78393   0.80301   0.80855   0.81971
 Alpha virt. eigenvalues --    0.83361   0.83648   0.84549   0.85266   0.87491
 Alpha virt. eigenvalues --    0.88769   0.90355   0.90643   0.91642   0.92642
 Alpha virt. eigenvalues --    0.93762   0.95663   0.96328   0.96540   0.97371
 Alpha virt. eigenvalues --    0.97797   0.99217   0.99781   1.01228   1.03868
 Alpha virt. eigenvalues --    1.04547   1.05876   1.07489   1.11373   1.11449
 Alpha virt. eigenvalues --    1.12200   1.14850   1.17759   1.18360   1.21261
 Alpha virt. eigenvalues --    1.22199   1.25466   1.27896   1.29169   1.29980
 Alpha virt. eigenvalues --    1.36156   1.40315   1.43137   1.44596   1.44994
 Alpha virt. eigenvalues --    1.45423   1.46511   1.47052   1.47859   1.48073
 Alpha virt. eigenvalues --    1.48918   1.50815   1.51595   1.54292   1.55151
 Alpha virt. eigenvalues --    1.55708   1.59664   1.60644   1.61725   1.64081
 Alpha virt. eigenvalues --    1.64847   1.66149   1.67218   1.67445   1.69337
 Alpha virt. eigenvalues --    1.69374   1.70325   1.71544   1.71952   1.74548
 Alpha virt. eigenvalues --    1.75013   1.84381   1.84544   1.84954   1.87244
 Alpha virt. eigenvalues --    1.88672   1.90909   1.93898   1.93986   1.96686
 Alpha virt. eigenvalues --    1.98189   2.01920   2.02130   2.05684   2.06284
 Alpha virt. eigenvalues --    2.11072   2.13248   2.15060   2.17434   2.19397
 Alpha virt. eigenvalues --    2.21089   2.22383   2.25768   2.27536   2.28187
 Alpha virt. eigenvalues --    2.29512   2.30825   2.31185   2.33044   2.35755
 Alpha virt. eigenvalues --    2.36193   2.39188   2.39756   2.43592   2.45853
 Alpha virt. eigenvalues --    2.50240   2.54085   2.59714   2.60392   2.60998
 Alpha virt. eigenvalues --    2.65765   2.77733   2.83708   2.88444   2.92043
 Alpha virt. eigenvalues --    2.93866   2.99965   3.11303   3.12238   3.17041
 Alpha virt. eigenvalues --    3.19110   3.30609   3.30868   3.44105   3.53281
 Alpha virt. eigenvalues --    3.65994   3.73298   3.82050   4.31895
          Condensed to atoms (all electrons):
 Mulliken charges:
               1
     1  C    0.483233
     2  C    0.918556
     3  C   -0.330564
     4  C    0.954359
     5  C   -0.330564
     6  C    0.918556
     7  N   -0.416795
     8  H   -0.490521
     9  Cl  -0.388323
    10  H   -0.371438
    11  Cl  -0.388323
    12  H   -0.490521
    13  H   -0.033828
    14  H   -0.033828
 Sum of Mulliken charges =  -0.00000
 Mulliken charges with hydrogens summed into heavy atoms:
               1
     1  C    0.483233
     2  C    0.428035
     3  C   -0.330564
     4  C    0.582922
     5  C   -0.330564
     6  C    0.428035
     7  N   -0.484452
     9  Cl  -0.388323
    11  Cl  -0.388323
 Electronic spatial extent (au):  <R**2>=           1886.8533
 Charge=             -0.0000 electrons
 Dipole moment (field-independent basis, Debye):
    X=              0.9110    Y=             -3.2419    Z=             -0.0000  Tot=              3.3674
 Unable to Open any file for archive entry.
 1\1\GINC-SE136\Stability\RHF\Aug-CC-pVDZ\C6H5Cl2N1\OHZDE\06-Apr-2025\0
 \\#t hf aug-cc-pvdz symm=none int=(grid=ultrafine) guess=(read,tcheck)
  stable=(opt,rrhf)\\title\\0,1\C,0,-0.002611,-1.733711,0.\C,0,-0.00240
 8,-1.024146,1.207301\C,0,-0.002408,0.359331,1.183235\C,0,-0.002586,1.0
 85107,0.\C,0,-0.002408,0.359331,-1.183235\C,0,-0.002408,-1.024146,-1.2
 07301\N,0,-0.060193,-3.118911,0.\H,0,-0.007345,-1.548683,2.151914\Cl,0
 ,0.000346,1.229076,2.704581\H,0,-0.002009,2.162516,0.\Cl,0,0.000346,1.
 229076,-2.704581\H,0,-0.007345,-1.548683,-2.151914\H,0,0.257626,-3.575
 977,-0.83838\H,0,0.257626,-3.575977,0.83838\\Version=ES64L-G16RevC.01\
 HF=-1203.6153553\RMSD=4.129e-09\Dipole=0.3584188,-1.2754498,0.\Quadrup
 ole=-4.3464135,6.8854607,-2.5390472,-2.8122198,0.,0.\PG=Unknown\\@
 The archive entry for this job was punched.


 HICKORY, DICKORY, DOCK
 TWO MICE RAN UP THE CLOCK
 THE CLOCK STRUCK ONE...
 THE OTHER ESCAPED WITH MINOR INJURIES.
 Job cpu time:       0 days  0 hours 12 minutes 58.0 seconds.
 Elapsed time:       0 days  0 hours  0 minutes 55.5 seconds.
 File lengths (MBytes):  RWF=    374 Int=      0 D2E=      0 Chk=     10 Scr=      1
 Normal termination of Gaussian 16 at Sun Apr  6 08:04:47 2025.
 Initial command:
 /arc/software/Gaussian/g16.c01/l1.exe "/tmp/slurm/4819669/Gau-412458.inp" -scrdir="/tmp/slurm/4819669/"
 Entering Link 1 = /arc/software/Gaussian/g16.c01/l1.exe PID=    412870.
  
 Copyright (c) 1988-2019, Gaussian, Inc.  All Rights Reserved.
  
 This is part of the Gaussian(R) 16 program.  It is based on
 the Gaussian(R) 09 system (copyright 2009, Gaussian, Inc.),
 the Gaussian(R) 03 system (copyright 2003, Gaussian, Inc.),
 the Gaussian(R) 98 system (copyright 1998, Gaussian, Inc.),
 the Gaussian(R) 94 system (copyright 1995, Gaussian, Inc.),
 the Gaussian 92(TM) system (copyright 1992, Gaussian, Inc.),
 the Gaussian 90(TM) system (copyright 1990, Gaussian, Inc.),
 the Gaussian 88(TM) system (copyright 1988, Gaussian, Inc.),
 the Gaussian 86(TM) system (copyright 1986, Carnegie Mellon
 University), and the Gaussian 82(TM) system (copyright 1983,
 Carnegie Mellon University). Gaussian is a federally registered
 trademark of Gaussian, Inc.
  
 This software contains proprietary and confidential information,
 including trade secrets, belonging to Gaussian, Inc.
  
 This software is provided under written license and may be
 used, copied, transmitted, or stored only in accord with that
 written license.
  
 The following legend is applicable only to US Government
 contracts under FAR:
  
                    RESTRICTED RIGHTS LEGEND
  
 Use, reproduction and disclosure by the US Government is
 subject to restrictions as set forth in subparagraphs (a)
 and (c) of the Commercial Computer Software - Restricted
 Rights clause in FAR 52.227-19.
  
 Gaussian, Inc.
 340 Quinnipiac St., Bldg. 40, Wallingford CT 06492
  
  
 ---------------------------------------------------------------
 Warning -- This program may not be used in any manner that
 competes with the business of Gaussian, Inc. or will provide
 assistance to any competitor of Gaussian, Inc.  The licensee
 of this program is prohibited from giving any competitor of
 Gaussian, Inc. access to this program.  By using this program,
 the user acknowledges that Gaussian, Inc. is engaged in the
 business of creating and licensing software in the field of
 computational chemistry and represents and warrants to the
 licensee that it is not a competitor of Gaussian, Inc. and that
 it will not use this program in any manner prohibited above.
 ---------------------------------------------------------------
  

 Cite this work as:
 Gaussian 16, Revision C.01,
 M. J. Frisch, G. W. Trucks, H. B. Schlegel, G. E. Scuseria, 
 M. A. Robb, J. R. Cheeseman, G. Scalmani, V. Barone, 
 G. A. Petersson, H. Nakatsuji, X. Li, M. Caricato, A. V. Marenich, 
 J. Bloino, B. G. Janesko, R. Gomperts, B. Mennucci, H. P. Hratchian, 
 J. V. Ortiz, A. F. Izmaylov, J. L. Sonnenberg, D. Williams-Young, 
 F. Ding, F. Lipparini, F. Egidi, J. Goings, B. Peng, A. Petrone, 
 T. Henderson, D. Ranasinghe, V. G. Zakrzewski, J. Gao, N. Rega, 
 G. Zheng, W. Liang, M. Hada, M. Ehara, K. Toyota, R. Fukuda, 
 J. Hasegawa, M. Ishida, T. Nakajima, Y. Honda, O. Kitao, H. Nakai, 
 T. Vreven, K. Throssell, J. A. Montgomery, Jr., J. E. Peralta, 
 F. Ogliaro, M. J. Bearpark, J. J. Heyd, E. N. Brothers, K. N. Kudin, 
 V. N. Staroverov, T. A. Keith, R. Kobayashi, J. Normand, 
 K. Raghavachari, A. P. Rendell, J. C. Burant, S. S. Iyengar, 
 J. Tomasi, M. Cossi, J. M. Millam, M. Klene, C. Adamo, R. Cammi, 
 J. W. Ochterski, R. L. Martin, K. Morokuma, O. Farkas, 
 J. B. Foresman, and D. J. Fox, Gaussian, Inc., Wallingford CT, 2019.
 
 ******************************************
 Gaussian 16:  ES64L-G16RevC.01  3-Jul-2019
                 6-Apr-2025 
 ******************************************
 %nprocs=16
 Will use up to   16 processors via shared memory.
 %mem=30GB
 %chk=3-5-dichloroaniline.chk
 ----------------------------------------------------------------------
 #t hf aug-cc-pvdz iop(5/13=1,5/36=2,99/5=2) pseudo=read geom=check gue
 ss=(read,tcheck) scf=(maxcycle=1)
 ----------------------------------------------------------------------
 -----
 title
 -----
 Structure from the checkpoint file:  "3-5-dichloroaniline.chk"
 Charge =  0 Multiplicity = 1
 Z-Matrix found in chk file.
 C,0,-0.002611,-1.733711,0.
 C,0,-0.002408,-1.024146,1.207301
 C,0,-0.002408,0.359331,1.183235
 C,0,-0.002586,1.085107,0.
 C,0,-0.002408,0.359331,-1.183235
 C,0,-0.002408,-1.024146,-1.207301
 N,0,-0.060193,-3.118911,0.
 H,0,-0.007345,-1.548683,2.151914
 Cl,0,0.000346,1.229076,2.704581
 H,0,-0.002009,2.162516,0.
 Cl,0,0.000346,1.229076,-2.704581
 H,0,-0.007345,-1.548683,-2.151914
 H,0,0.257626,-3.575977,-0.83838
 H,0,0.257626,-3.575977,0.83838
 Recover connectivity data from disk.
                    Distance matrix (angstroms):
                    1          2          3          4          5
     1  C    0.000000
     2  C    1.400378   0.000000
     3  C    2.404344   1.383686   0.000000
     4  C    2.818818   2.430334   1.388091   0.000000
     5  C    2.404344   2.762005   2.366470   1.388091   0.000000
     6  C    1.400378   2.414602   2.762005   2.430334   1.383686
     7  N    1.386396   2.418461   3.674446   4.204413   3.674446
     8  H    2.159859   1.080489   2.139832   3.401118   3.842364
     9  Cl   4.011592   2.705340   1.752415   2.708412   3.983915
    10  H    3.896227   3.407696   2.156739   1.077409   2.156739
    11  Cl   4.011592   4.514403   3.983915   2.708412   1.752415
    12  H    2.159859   3.399925   3.842364   3.401118   2.139832
    13  H    2.040723   3.280895   4.431839   4.743026   3.958938
    14  H    2.040723   2.591440   3.958938   4.743026   4.431839
                    6          7          8          9         10
     6  C    0.000000
     7  N    2.418461   0.000000
     8  H    3.399925   2.664422   0.000000
     9  Cl   4.514403   5.120880   2.832216   0.000000
    10  H    3.407696   5.281747   4.289960   2.861132   0.000000
    11  Cl   2.705340   5.120880   5.594779   5.409162   2.861132
    12  H    1.080489   2.664422   4.303828   5.594779   4.289960
    13  H    2.591440   1.006379   3.622429   5.975559   5.805221
    14  H    3.280895   1.006379   2.430124   5.161147   5.805221
                   11         12         13         14
    11  Cl   0.000000
    12  H    2.832216   0.000000
    13  H    5.161147   2.430124   0.000000
    14  H    5.975559   3.622429   1.676760   0.000000
 Framework group  CS[SG(C2HN),X(C4H4Cl2)]
 Deg. of freedom    20
                         Standard orientation:                         
 ---------------------------------------------------------------------
 Center     Atomic      Atomic             Coordinates (Angstroms)
 Number     Number       Type             X           Y           Z
 ---------------------------------------------------------------------
      1          6           0       -0.002879    1.733711    0.000000
      2          6           0       -0.000835    1.024148    1.207301
      3          6           0        0.003546   -0.359322    1.183235
      4          6           0        0.006022   -1.085093   -0.000000
      5          6           0        0.003546   -0.359322   -1.183235
      6          6           0       -0.000835    1.024148   -1.207301
      7          7           0        0.050317    3.119086    0.000000
      8          1           0        0.002441    1.548698    2.151914
      9         17           0        0.003546   -1.229071    2.704581
     10          1           0        0.008856   -2.162499   -0.000000
     11         17           0        0.003546   -1.229071   -2.704581
     12          1           0        0.002441    1.548698   -2.151914
     13          1           0       -0.268948    3.575143   -0.838380
     14          1           0       -0.268948    3.575143    0.838380
 ---------------------------------------------------------------------
 Rotational constants (GHZ):           1.4229148           0.8549918           0.5342829
 ======================================================================================================
                                       Pseudopotential Parameters
 ======================================================================================================
  Center     Atomic      Valence      Angular      Power
  Number     Number     Electrons     Momentum     of R      Exponent        Coefficient   SO-Coeffient
 ======================================================================================================
    1          6            6
                                      G and up 
                                                     0        0.0000010       -0.00286759    0.00000000
                                                     2        0.1200000        0.03193960    0.00000000
                                                     2        0.1600000       -0.04027782    0.00000000
                                                     2        0.2600000        0.24782456    0.00000000
                                                     2        0.4000000       -0.62266671    0.00000000
                                                     2        0.7000000        0.35695227    0.00000000
                                      S - G
                                                     0        0.0000010       -0.06602313    0.00000000
                                                     2        0.1200000        1.47277455    0.00000000
                                                     2        0.1600000       -4.06924166    0.00000000
                                                     2        0.3000000        5.02952802    0.00000000
                                                     2        0.7000000       -5.65856978    0.00000000
                                                     2        1.7000000        8.57604414    0.00000000
                                      P - G
                                                     0        0.0000010        0.49434425    0.00000000
                                                     2        0.1200000       -1.37391547    0.00000000
                                                     2        0.1600000        3.65411806    0.00000000
                                                     2        0.2800000       -7.36479843    0.00000000
                                                     2        0.6000000       17.22091285    0.00000000
                                                     2        1.1000000      -23.50107827    0.00000000
                                                     2        3.0000000       16.29464063    0.00000000
                                      D - G
                                                     0        0.0000010       -0.28693103    0.00000000
                                                     2        0.1200000        0.12273044    0.00000000
                                                     2        0.3000000       -0.43416384    0.00000000
                                                     2        0.7000000        2.23358493    0.00000000
                                      F - G
                                                     0        0.0000010        0.07263570    0.00000000
                                                     2        0.1400000       -0.76152861    0.00000000
                                                     2        0.2200000        1.98045593    0.00000000
                                                     2        0.4000000       -2.42426427    0.00000000
                                                     2        0.7000000        0.52335237    0.00000000
    2          6            6
                                      G and up 
                                                     0        0.0000010       -0.00286759    0.00000000
                                                     2        0.1200000        0.03193960    0.00000000
                                                     2        0.1600000       -0.04027782    0.00000000
                                                     2        0.2600000        0.24782456    0.00000000
                                                     2        0.4000000       -0.62266671    0.00000000
                                                     2        0.7000000        0.35695227    0.00000000
                                      S - G
                                                     0        0.0000010       -0.06602313    0.00000000
                                                     2        0.1200000        1.47277455    0.00000000
                                                     2        0.1600000       -4.06924166    0.00000000
                                                     2        0.3000000        5.02952802    0.00000000
                                                     2        0.7000000       -5.65856978    0.00000000
                                                     2        1.7000000        8.57604414    0.00000000
                                      P - G
                                                     0        0.0000010        0.49434425    0.00000000
                                                     2        0.1200000       -1.37391547    0.00000000
                                                     2        0.1600000        3.65411806    0.00000000
                                                     2        0.2800000       -7.36479843    0.00000000
                                                     2        0.6000000       17.22091285    0.00000000
                                                     2        1.1000000      -23.50107827    0.00000000
                                                     2        3.0000000       16.29464063    0.00000000
                                      D - G
                                                     0        0.0000010       -0.28693103    0.00000000
                                                     2        0.1200000        0.12273044    0.00000000
                                                     2        0.3000000       -0.43416384    0.00000000
                                                     2        0.7000000        2.23358493    0.00000000
                                      F - G
                                                     0        0.0000010        0.07263570    0.00000000
                                                     2        0.1400000       -0.76152861    0.00000000
                                                     2        0.2200000        1.98045593    0.00000000
                                                     2        0.4000000       -2.42426427    0.00000000
                                                     2        0.7000000        0.52335237    0.00000000
    3          6            6
                                      G and up 
                                                     0        0.0000010       -0.00286759    0.00000000
                                                     2        0.1200000        0.03193960    0.00000000
                                                     2        0.1600000       -0.04027782    0.00000000
                                                     2        0.2600000        0.24782456    0.00000000
                                                     2        0.4000000       -0.62266671    0.00000000
                                                     2        0.7000000        0.35695227    0.00000000
                                      S - G
                                                     0        0.0000010       -0.06602313    0.00000000
                                                     2        0.1200000        1.47277455    0.00000000
                                                     2        0.1600000       -4.06924166    0.00000000
                                                     2        0.3000000        5.02952802    0.00000000
                                                     2        0.7000000       -5.65856978    0.00000000
                                                     2        1.7000000        8.57604414    0.00000000
                                      P - G
                                                     0        0.0000010        0.49434425    0.00000000
                                                     2        0.1200000       -1.37391547    0.00000000
                                                     2        0.1600000        3.65411806    0.00000000
                                                     2        0.2800000       -7.36479843    0.00000000
                                                     2        0.6000000       17.22091285    0.00000000
                                                     2        1.1000000      -23.50107827    0.00000000
                                                     2        3.0000000       16.29464063    0.00000000
                                      D - G
                                                     0        0.0000010       -0.28693103    0.00000000
                                                     2        0.1200000        0.12273044    0.00000000
                                                     2        0.3000000       -0.43416384    0.00000000
                                                     2        0.7000000        2.23358493    0.00000000
                                      F - G
                                                     0        0.0000010        0.07263570    0.00000000
                                                     2        0.1400000       -0.76152861    0.00000000
                                                     2        0.2200000        1.98045593    0.00000000
                                                     2        0.4000000       -2.42426427    0.00000000
                                                     2        0.7000000        0.52335237    0.00000000
    4          6            6
                                      G and up 
                                                     0        0.0000010       -0.00286759    0.00000000
                                                     2        0.1200000        0.03193960    0.00000000
                                                     2        0.1600000       -0.04027782    0.00000000
                                                     2        0.2600000        0.24782456    0.00000000
                                                     2        0.4000000       -0.62266671    0.00000000
                                                     2        0.7000000        0.35695227    0.00000000
                                      S - G
                                                     0        0.0000010       -0.06602313    0.00000000
                                                     2        0.1200000        1.47277455    0.00000000
                                                     2        0.1600000       -4.06924166    0.00000000
                                                     2        0.3000000        5.02952802    0.00000000
                                                     2        0.7000000       -5.65856978    0.00000000
                                                     2        1.7000000        8.57604414    0.00000000
                                      P - G
                                                     0        0.0000010        0.49434425    0.00000000
                                                     2        0.1200000       -1.37391547    0.00000000
                                                     2        0.1600000        3.65411806    0.00000000
                                                     2        0.2800000       -7.36479843    0.00000000
                                                     2        0.6000000       17.22091285    0.00000000
                                                     2        1.1000000      -23.50107827    0.00000000
                                                     2        3.0000000       16.29464063    0.00000000
                                      D - G
                                                     0        0.0000010       -0.28693103    0.00000000
                                                     2        0.1200000        0.12273044    0.00000000
                                                     2        0.3000000       -0.43416384    0.00000000
                                                     2        0.7000000        2.23358493    0.00000000
                                      F - G
                                                     0        0.0000010        0.07263570    0.00000000
                                                     2        0.1400000       -0.76152861    0.00000000
                                                     2        0.2200000        1.98045593    0.00000000
                                                     2        0.4000000       -2.42426427    0.00000000
                                                     2        0.7000000        0.52335237    0.00000000
    5          6            6
                                      G and up 
                                                     0        0.0000010       -0.00286759    0.00000000
                                                     2        0.1200000        0.03193960    0.00000000
                                                     2        0.1600000       -0.04027782    0.00000000
                                                     2        0.2600000        0.24782456    0.00000000
                                                     2        0.4000000       -0.62266671    0.00000000
                                                     2        0.7000000        0.35695227    0.00000000
                                      S - G
                                                     0        0.0000010       -0.06602313    0.00000000
                                                     2        0.1200000        1.47277455    0.00000000
                                                     2        0.1600000       -4.06924166    0.00000000
                                                     2        0.3000000        5.02952802    0.00000000
                                                     2        0.7000000       -5.65856978    0.00000000
                                                     2        1.7000000        8.57604414    0.00000000
                                      P - G
                                                     0        0.0000010        0.49434425    0.00000000
                                                     2        0.1200000       -1.37391547    0.00000000
                                                     2        0.1600000        3.65411806    0.00000000
                                                     2        0.2800000       -7.36479843    0.00000000
                                                     2        0.6000000       17.22091285    0.00000000
                                                     2        1.1000000      -23.50107827    0.00000000
                                                     2        3.0000000       16.29464063    0.00000000
                                      D - G
                                                     0        0.0000010       -0.28693103    0.00000000
                                                     2        0.1200000        0.12273044    0.00000000
                                                     2        0.3000000       -0.43416384    0.00000000
                                                     2        0.7000000        2.23358493    0.00000000
                                      F - G
                                                     0        0.0000010        0.07263570    0.00000000
                                                     2        0.1400000       -0.76152861    0.00000000
                                                     2        0.2200000        1.98045593    0.00000000
                                                     2        0.4000000       -2.42426427    0.00000000
                                                     2        0.7000000        0.52335237    0.00000000
    6          6            6
                                      G and up 
                                                     0        0.0000010       -0.00286759    0.00000000
                                                     2        0.1200000        0.03193960    0.00000000
                                                     2        0.1600000       -0.04027782    0.00000000
                                                     2        0.2600000        0.24782456    0.00000000
                                                     2        0.4000000       -0.62266671    0.00000000
                                                     2        0.7000000        0.35695227    0.00000000
                                      S - G
                                                     0        0.0000010       -0.06602313    0.00000000
                                                     2        0.1200000        1.47277455    0.00000000
                                                     2        0.1600000       -4.06924166    0.00000000
                                                     2        0.3000000        5.02952802    0.00000000
                                                     2        0.7000000       -5.65856978    0.00000000
                                                     2        1.7000000        8.57604414    0.00000000
                                      P - G
                                                     0        0.0000010        0.49434425    0.00000000
                                                     2        0.1200000       -1.37391547    0.00000000
                                                     2        0.1600000        3.65411806    0.00000000
                                                     2        0.2800000       -7.36479843    0.00000000
                                                     2        0.6000000       17.22091285    0.00000000
                                                     2        1.1000000      -23.50107827    0.00000000
                                                     2        3.0000000       16.29464063    0.00000000
                                      D - G
                                                     0        0.0000010       -0.28693103    0.00000000
                                                     2        0.1200000        0.12273044    0.00000000
                                                     2        0.3000000       -0.43416384    0.00000000
                                                     2        0.7000000        2.23358493    0.00000000
                                      F - G
                                                     0        0.0000010        0.07263570    0.00000000
                                                     2        0.1400000       -0.76152861    0.00000000
                                                     2        0.2200000        1.98045593    0.00000000
                                                     2        0.4000000       -2.42426427    0.00000000
                                                     2        0.7000000        0.52335237    0.00000000
    7          7            7
                                      G and up 
                                                     0        0.0000010        0.00420138    0.00000000
                                                     2        0.1200000        0.05872431    0.00000000
                                                     2        0.1400000       -0.08436978    0.00000000
                                                     2        0.2000000        0.05409159    0.00000000
                                                     2        0.2600000        0.14199713    0.00000000
                                                     2        0.6000000       -0.79062770    0.00000000
                                                     2        0.7000000       -0.14441060    0.00000000
                                                     2        1.5000000        0.73772979    0.00000000
                                      S - G
                                                     0        0.0000010       -0.03094411    0.00000000
                                                     2        0.1200000        0.65332522    0.00000000
                                                     2        0.1800000       -1.38149133    0.00000000
                                                     2        1.3000000        3.29267299    0.00000000
                                      P - G
                                                     0        0.0000010        0.07303105    0.00000000
                                                     2        0.1200000        0.23145115    0.00000000
                                                     2        0.2000000       -1.20679699    0.00000000
                                                     2        0.4000000        1.75088447    0.00000000
                                                     2        1.2000000       -0.67486559    0.00000000
                                      D - G
                                                     0        0.0000010        0.07560739    0.00000000
                                                     2        0.3000000       -0.68679114    0.00000000
                                                     2        0.9000000        3.60133241    0.00000000
                                      F - G
                                                     0        0.0000010       -0.18221184    0.00000000
                                                     2        0.1200000       -0.39369067    0.00000000
                                                     2        0.1800000        0.72091725    0.00000000
                                                     2        0.6000000        0.15946111    0.00000000
    8          1            1
                                      F and up 
                                                     0        0.0000010        0.00072061    0.00000000
                                                     2        0.1200000        0.03832357    0.00000000
                                                     2        0.1400000       -0.08683256    0.00000000
                                                     2        0.1800000        0.09312970    0.00000000
                                                     2        0.2800000       -0.02532572    0.00000000
                                                     2        0.4000000       -0.09430787    0.00000000
                                                     2        0.7000000        0.42710831    0.00000000
                                                     2        1.2000000       -2.11746981    0.00000000
                                      S - F
                                                     0        0.0000010        0.14449603    0.00000000
                                                     2        0.1200000       -0.56378993    0.00000000
                                                     2        0.1400000        0.63941249    0.00000000
                                                     2        0.2600000       -0.58461015    0.00000000
                                                     2        0.5000000        1.00157293    0.00000000
                                                     2        1.8000000       -0.14135838    0.00000000
                                      P - F
                                                     0        0.0000010       -0.09353646    0.00000000
                                                     2        0.1200000        0.31768975    0.00000000
                                                     2        0.2000000       -0.71747951    0.00000000
                                                     2        0.4000000        0.65752308    0.00000000
                                                     2        1.7000000        2.94052587    0.00000000
                                      D - F
                                                     0        0.0000010       -0.04491202    0.00000000
                                                     2        0.1200000       -0.02862031    0.00000000
                                                     2        0.1800000       -0.21515263    0.00000000
                                                     2        0.3000000        0.80560647    0.00000000
                                                     2        0.4000000        0.47351754    0.00000000
                                                     2        0.7000000       -4.57051794    0.00000000
                                                     2        1.6000000       18.53737826    0.00000000
    9         17           17
                                      G and up 
                                                     0        0.0000010        0.00409650    0.00000000
                                                     2        0.1200000        0.06945192    0.00000000
                                                     2        0.1400000       -0.06660574    0.00000000
                                                     2        0.2200000        0.15305308    0.00000000
                                      S - G
                                                     0        0.0000010        0.00555482    0.00000000
                                                     2        0.2000000       -0.53060378    0.00000000
                                      P - G
                                                     0        0.0000010       -0.16962542    0.00000000
                                                     2        0.1200000        0.15585357    0.00000000
                                                     2        0.1800000       -0.79460714    0.00000000
                                                     2        0.5000000        1.36495881    0.00000000
                                      D - G
                                                     0        0.0000010        0.91266089    0.00000000
                                                     2        0.2400000       -1.50552862    0.00000000
                                      F - G
                                                     0        0.0000010       -0.76620800    0.00000000
                                                     2        0.1200000       -0.23737626    0.00000000
                                                     2        0.1800000        0.28531204    0.00000000
   10          1            1
                                      F and up 
                                                     0        0.0000010        0.00072061    0.00000000
                                                     2        0.1200000        0.03832357    0.00000000
                                                     2        0.1400000       -0.08683256    0.00000000
                                                     2        0.1800000        0.09312970    0.00000000
                                                     2        0.2800000       -0.02532572    0.00000000
                                                     2        0.4000000       -0.09430787    0.00000000
                                                     2        0.7000000        0.42710831    0.00000000
                                                     2        1.2000000       -2.11746981    0.00000000
                                      S - F
                                                     0        0.0000010        0.14449603    0.00000000
                                                     2        0.1200000       -0.56378993    0.00000000
                                                     2        0.1400000        0.63941249    0.00000000
                                                     2        0.2600000       -0.58461015    0.00000000
                                                     2        0.5000000        1.00157293    0.00000000
                                                     2        1.8000000       -0.14135838    0.00000000
                                      P - F
                                                     0        0.0000010       -0.09353646    0.00000000
                                                     2        0.1200000        0.31768975    0.00000000
                                                     2        0.2000000       -0.71747951    0.00000000
                                                     2        0.4000000        0.65752308    0.00000000
                                                     2        1.7000000        2.94052587    0.00000000
                                      D - F
                                                     0        0.0000010       -0.04491202    0.00000000
                                                     2        0.1200000       -0.02862031    0.00000000
                                                     2        0.1800000       -0.21515263    0.00000000
                                                     2        0.3000000        0.80560647    0.00000000
                                                     2        0.4000000        0.47351754    0.00000000
                                                     2        0.7000000       -4.57051794    0.00000000
                                                     2        1.6000000       18.53737826    0.00000000
   11         17           17
                                      G and up 
                                                     0        0.0000010        0.00409650    0.00000000
                                                     2        0.1200000        0.06945192    0.00000000
                                                     2        0.1400000       -0.06660574    0.00000000
                                                     2        0.2200000        0.15305308    0.00000000
                                      S - G
                                                     0        0.0000010        0.00555482    0.00000000
                                                     2        0.2000000       -0.53060378    0.00000000
                                      P - G
                                                     0        0.0000010       -0.16962542    0.00000000
                                                     2        0.1200000        0.15585357    0.00000000
                                                     2        0.1800000       -0.79460714    0.00000000
                                                     2        0.5000000        1.36495881    0.00000000
                                      D - G
                                                     0        0.0000010        0.91266089    0.00000000
                                                     2        0.2400000       -1.50552862    0.00000000
                                      F - G
                                                     0        0.0000010       -0.76620800    0.00000000
                                                     2        0.1200000       -0.23737626    0.00000000
                                                     2        0.1800000        0.28531204    0.00000000
   12          1            1
                                      F and up 
                                                     0        0.0000010        0.00072061    0.00000000
                                                     2        0.1200000        0.03832357    0.00000000
                                                     2        0.1400000       -0.08683256    0.00000000
                                                     2        0.1800000        0.09312970    0.00000000
                                                     2        0.2800000       -0.02532572    0.00000000
                                                     2        0.4000000       -0.09430787    0.00000000
                                                     2        0.7000000        0.42710831    0.00000000
                                                     2        1.2000000       -2.11746981    0.00000000
                                      S - F
                                                     0        0.0000010        0.14449603    0.00000000
                                                     2        0.1200000       -0.56378993    0.00000000
                                                     2        0.1400000        0.63941249    0.00000000
                                                     2        0.2600000       -0.58461015    0.00000000
                                                     2        0.5000000        1.00157293    0.00000000
                                                     2        1.8000000       -0.14135838    0.00000000
                                      P - F
                                                     0        0.0000010       -0.09353646    0.00000000
                                                     2        0.1200000        0.31768975    0.00000000
                                                     2        0.2000000       -0.71747951    0.00000000
                                                     2        0.4000000        0.65752308    0.00000000
                                                     2        1.7000000        2.94052587    0.00000000
                                      D - F
                                                     0        0.0000010       -0.04491202    0.00000000
                                                     2        0.1200000       -0.02862031    0.00000000
                                                     2        0.1800000       -0.21515263    0.00000000
                                                     2        0.3000000        0.80560647    0.00000000
                                                     2        0.4000000        0.47351754    0.00000000
                                                     2        0.7000000       -4.57051794    0.00000000
                                                     2        1.6000000       18.53737826    0.00000000
   13          1            1
                                      F and up 
                                                     0        0.0000010        0.00072061    0.00000000
                                                     2        0.1200000        0.03832357    0.00000000
                                                     2        0.1400000       -0.08683256    0.00000000
                                                     2        0.1800000        0.09312970    0.00000000
                                                     2        0.2800000       -0.02532572    0.00000000
                                                     2        0.4000000       -0.09430787    0.00000000
                                                     2        0.7000000        0.42710831    0.00000000
                                                     2        1.2000000       -2.11746981    0.00000000
                                      S - F
                                                     0        0.0000010        0.14449603    0.00000000
                                                     2        0.1200000       -0.56378993    0.00000000
                                                     2        0.1400000        0.63941249    0.00000000
                                                     2        0.2600000       -0.58461015    0.00000000
                                                     2        0.5000000        1.00157293    0.00000000
                                                     2        1.8000000       -0.14135838    0.00000000
                                      P - F
                                                     0        0.0000010       -0.09353646    0.00000000
                                                     2        0.1200000        0.31768975    0.00000000
                                                     2        0.2000000       -0.71747951    0.00000000
                                                     2        0.4000000        0.65752308    0.00000000
                                                     2        1.7000000        2.94052587    0.00000000
                                      D - F
                                                     0        0.0000010       -0.04491202    0.00000000
                                                     2        0.1200000       -0.02862031    0.00000000
                                                     2        0.1800000       -0.21515263    0.00000000
                                                     2        0.3000000        0.80560647    0.00000000
                                                     2        0.4000000        0.47351754    0.00000000
                                                     2        0.7000000       -4.57051794    0.00000000
                                                     2        1.6000000       18.53737826    0.00000000
   14          1            1
                                      F and up 
                                                     0        0.0000010        0.00072061    0.00000000
                                                     2        0.1200000        0.03832357    0.00000000
                                                     2        0.1400000       -0.08683256    0.00000000
                                                     2        0.1800000        0.09312970    0.00000000
                                                     2        0.2800000       -0.02532572    0.00000000
                                                     2        0.4000000       -0.09430787    0.00000000
                                                     2        0.7000000        0.42710831    0.00000000
                                                     2        1.2000000       -2.11746981    0.00000000
                                      S - F
                                                     0        0.0000010        0.14449603    0.00000000
                                                     2        0.1200000       -0.56378993    0.00000000
                                                     2        0.1400000        0.63941249    0.00000000
                                                     2        0.2600000       -0.58461015    0.00000000
                                                     2        0.5000000        1.00157293    0.00000000
                                                     2        1.8000000       -0.14135838    0.00000000
                                      P - F
                                                     0        0.0000010       -0.09353646    0.00000000
                                                     2        0.1200000        0.31768975    0.00000000
                                                     2        0.2000000       -0.71747951    0.00000000
                                                     2        0.4000000        0.65752308    0.00000000
                                                     2        1.7000000        2.94052587    0.00000000
                                      D - F
                                                     0        0.0000010       -0.04491202    0.00000000
                                                     2        0.1200000       -0.02862031    0.00000000
                                                     2        0.1800000       -0.21515263    0.00000000
                                                     2        0.3000000        0.80560647    0.00000000
                                                     2        0.4000000        0.47351754    0.00000000
                                                     2        0.7000000       -4.57051794    0.00000000
                                                     2        1.6000000       18.53737826    0.00000000
 ======================================================================================================
   260 basis functions,   518 primitive gaussians,   278 cartesian basis functions
    41 alpha electrons       41 beta electrons
       nuclear repulsion energy       546.5603773021 Hartrees.
 NAtoms=   14 NActive=   14 NUniq=    9 SFac= 2.42D+00 NAtFMM=   60 NAOKFM=F Big=F
   2 Symmetry operations used in ECPInt.
 ECPInt:  NShTT=    6105 NPrTT=   40477 LenC2=    6049 LenP2D=   27146.
 LDataN:  DoStor=T MaxTD1= 6 Len=  172
 Initial guess from the checkpoint file:  "3-5-dichloroaniline.chk"
 B after Tr=    -0.000000   -0.000000    0.000000
         Rot=    0.001583   -0.000000    0.000000    0.999999 Ang= 179.82 deg.
 Initial guess orbital symmetries:
       Occupied  (A") (A') (A') (A') (A") (A') (A") (A') (A') (A")
                 (A') (A") (A') (A') (A") (A") (A') (A') (A') (A")
                 (A') (A') (A") (A') (A") (A") (A') (A') (A") (A')
                 (A") (A') (A') (A") (A') (A") (A') (A") (A') (A")
                 (A')
       Virtual   (A') (A") (A') (A') (A") (A") (A') (A") (A') (A')
                 (A') (A') (A") (A') (A") (A") (A') (A') (A") (A')
                 (A') (A") (A') (A") (A') (A') (A') (A') (A") (A')
                 (A") (A') (A") (A') (A") (A") (A') (A") (A') (A")
                 (A') (A") (A') (A") (A') (A") (A') (A") (A') (A')
                 (A') (A') (A") (A") (A') (A") (A") (A') (A') (A")
                 (A') (A') (A') (A') (A") (A') (A') (A") (A') (A")
                 (A") (A') (A") (A') (A") (A') (A') (A") (A') (A")
                 (A') (A") (A') (A") (A") (A') (A") (A') (A') (A")
                 (A") (A') (A') (A") (A') (A') (A") (A') (A") (A')
                 (A') (A") (A') (A") (A') (A") (A') (A") (A') (A")
                 (A') (A") (A') (A') (A') (A") (A") (A') (A') (A")
                 (A") (A') (A") (A') (A") (A') (A') (A") (A") (A')
                 (A') (A') (A") (A') (A') (A") (A') (A") (A") (A')
                 (A") (A") (A') (A") (A') (A") (A') (A") (A') (A')
                 (A") (A') (A') (A") (A') (A") (A') (A") (A') (A")
                 (A') (A') (A') (A") (A') (A") (A') (A") (A') (A")
                 (A") (A') (A") (A') (A') (A") (A") (A') (A") (A')
                 (A") (A') (A') (A") (A') (A') (A') (A") (A") (A')
                 (A") (A') (A") (A') (A") (A') (A") (A") (A') (A')
                 (A") (A') (A") (A') (A') (A") (A') (A") (A') (A')
                 (A") (A") (A') (A') (A") (A') (A') (A") (A')
 >>>>>>>>>> Convergence criterion not met.
 SCF Done:  E(RHF) =  -1205.45585104     A.U. after    2 cycles
            NFock=  1  Conv=0.27D+01     -V/T= 1.9948

 **********************************************************************

            Population analysis using the SCF Density.

 **********************************************************************

 Orbital symmetries:
       Occupied  (A") (A') (A') (A') (A') (A") (A') (A") (A') (A")
                 (A') (A') (A") (A') (A") (A") (A') (A') (A') (A")
                 (A') (A") (A') (A") (A') (A') (A") (A') (A") (A')
                 (A") (A') (A") (A') (A') (A") (A') (A") (A') (A")
                 (A')
       Virtual   (A') (A') (A") (A') (A') (A") (A") (A") (A') (A')
                 (A') (A") (A') (A') (A') (A") (A") (A') (A") (A')
                 (A") (A') (A') (A") (A') (A') (A') (A') (A") (A')
                 (A") (A") (A') (A") (A") (A') (A") (A') (A") (A')
                 (A") (A") (A') (A') (A') (A') (A") (A") (A') (A')
                 (A") (A') (A') (A") (A') (A") (A') (A") (A') (A")
                 (A') (A') (A') (A") (A") (A') (A") (A') (A') (A')
                 (A") (A') (A") (A") (A') (A') (A') (A") (A') (A")
                 (A') (A") (A") (A') (A") (A') (A') (A") (A') (A")
                 (A") (A') (A') (A") (A') (A") (A') (A') (A') (A")
                 (A') (A") (A") (A') (A') (A") (A') (A") (A') (A")
                 (A') (A') (A') (A") (A") (A') (A") (A") (A') (A')
                 (A") (A") (A') (A') (A") (A") (A') (A') (A') (A")
                 (A') (A") (A') (A') (A") (A") (A") (A') (A') (A")
                 (A') (A") (A") (A') (A') (A") (A') (A') (A") (A')
                 (A') (A") (A') (A") (A') (A') (A") (A') (A") (A")
                 (A') (A") (A') (A') (A') (A") (A') (A") (A') (A")
                 (A") (A') (A") (A') (A") (A') (A") (A') (A') (A")
                 (A') (A") (A') (A") (A") (A') (A') (A") (A') (A')
                 (A") (A') (A') (A") (A') (A") (A") (A") (A') (A')
                 (A") (A') (A") (A') (A') (A") (A') (A") (A') (A')
                 (A") (A') (A") (A") (A') (A') (A') (A') (A")
 The electronic state is 1-A'.
 Alpha  occ. eigenvalues --  -99.90018 -99.90009 -15.77821 -11.53250 -11.48495
 Alpha  occ. eigenvalues --  -11.48297 -11.44210 -11.43708 -11.39768 -10.47380
 Alpha  occ. eigenvalues --  -10.47371  -9.67405  -9.67377  -9.66537  -9.66485
 Alpha  occ. eigenvalues --   -9.66331  -9.66317  -1.46229  -1.36366  -1.34482
 Alpha  occ. eigenvalues --   -1.22438  -1.09156  -1.07997  -0.88631  -0.88132
 Alpha  occ. eigenvalues --   -0.73315  -0.70687  -0.69444  -0.62277  -0.61323
 Alpha  occ. eigenvalues --   -0.60543  -0.59753  -0.55898  -0.54264  -0.52453
 Alpha  occ. eigenvalues --   -0.49242  -0.48493  -0.47886  -0.43717  -0.34935
 Alpha  occ. eigenvalues --   -0.29733
 Alpha virt. eigenvalues --    0.02993   0.04791   0.04948   0.05833   0.07008
 Alpha virt. eigenvalues --    0.07484   0.08488   0.09282   0.10184   0.10878
 Alpha virt. eigenvalues --    0.11884   0.12049   0.12851   0.13321   0.13614
 Alpha virt. eigenvalues --    0.14048   0.14388   0.14953   0.16255   0.16428
 Alpha virt. eigenvalues --    0.16500   0.17149   0.17348   0.17819   0.18246
 Alpha virt. eigenvalues --    0.19086   0.20383   0.20548   0.20676   0.21863
 Alpha virt. eigenvalues --    0.23142   0.23976   0.24200   0.24428   0.24686
 Alpha virt. eigenvalues --    0.24735   0.25937   0.26518   0.27105   0.27323
 Alpha virt. eigenvalues --    0.29318   0.29788   0.29905   0.31450   0.32064
 Alpha virt. eigenvalues --    0.32528   0.32956   0.35242   0.35455   0.35967
 Alpha virt. eigenvalues --    0.36236   0.36395   0.36794   0.37544   0.39215
 Alpha virt. eigenvalues --    0.39984   0.40199   0.41476   0.42041   0.44825
 Alpha virt. eigenvalues --    0.44961   0.47484   0.49265   0.49424   0.50054
 Alpha virt. eigenvalues --    0.51473   0.51484   0.53301   0.53649   0.57418
 Alpha virt. eigenvalues --    0.58144   0.60029   0.60331   0.61111   0.61202
 Alpha virt. eigenvalues --    0.62617   0.63230   0.63369   0.65568   0.66315
 Alpha virt. eigenvalues --    0.68015   0.68513   0.69251   0.70216   0.70302
 Alpha virt. eigenvalues --    0.71603   0.72295   0.72877   0.74140   0.74790
 Alpha virt. eigenvalues --    0.76332   0.77558   0.79442   0.81386   0.82210
 Alpha virt. eigenvalues --    0.82842   0.83318   0.85524   0.86521   0.87562
 Alpha virt. eigenvalues --    0.90313   0.90380   0.91065   0.92718   0.94423
 Alpha virt. eigenvalues --    0.95049   0.97692   0.98587   0.99776   1.00647
 Alpha virt. eigenvalues --    1.01819   1.02059   1.04207   1.04279   1.05732
 Alpha virt. eigenvalues --    1.05774   1.06449   1.10414   1.10530   1.13385
 Alpha virt. eigenvalues --    1.16395   1.19256   1.19582   1.20819   1.24908
 Alpha virt. eigenvalues --    1.25531   1.27180   1.28196   1.30056   1.31947
 Alpha virt. eigenvalues --    1.32056   1.33091   1.34228   1.34840   1.34891
 Alpha virt. eigenvalues --    1.36341   1.40408   1.41182   1.43275   1.44252
 Alpha virt. eigenvalues --    1.47990   1.57717   1.62166   1.64496   1.66080
 Alpha virt. eigenvalues --    1.66927   1.72860   1.74158   1.75290   1.77858
 Alpha virt. eigenvalues --    1.83040   1.85282   1.86534   1.86583   1.87383
 Alpha virt. eigenvalues --    1.89023   1.89416   1.89800   1.89957   1.91119
 Alpha virt. eigenvalues --    1.92639   2.01979   2.02539   2.04118   2.06502
 Alpha virt. eigenvalues --    2.06779   2.07713   2.11882   2.14584   2.16757
 Alpha virt. eigenvalues --    2.17288   2.20013   2.20519   2.23199   2.29893
 Alpha virt. eigenvalues --    2.31765   2.34654   2.36210   2.37042   2.39611
 Alpha virt. eigenvalues --    2.41251   2.42354   2.43115   2.44597   2.46308
 Alpha virt. eigenvalues --    2.46450   2.53272   2.53892   2.60885   2.63978
 Alpha virt. eigenvalues --    2.65343   2.65503   2.68659   2.70536   2.71166
 Alpha virt. eigenvalues --    2.73178   2.76802   2.82446   2.90280   2.90548
 Alpha virt. eigenvalues --    3.06982   3.09306   3.10788   3.12440   3.27344
 Alpha virt. eigenvalues --    3.29450   3.37961   3.55505   3.58014   3.59265
 Alpha virt. eigenvalues --    3.65976   3.74673   3.80428   3.85089   3.86067
 Alpha virt. eigenvalues --    3.89731   4.22785   4.50528   4.60012
          Condensed to atoms (all electrons):
 Mulliken charges:
               1
     1  C    2.663785
     2  C   -1.222142
     3  C   -0.508531
     4  C   -0.166160
     5  C   -0.508531
     6  C   -1.222142
     7  N   -3.951149
     8  H    1.775320
     9  Cl  -0.811277
    10  H    1.696614
    11  Cl  -0.811277
    12  H    1.775320
    13  H    0.645084
    14  H    0.645084
 Sum of Mulliken charges =   0.00000
 Mulliken charges with hydrogens summed into heavy atoms:
               1
     1  C    2.663785
     2  C    0.553179
     3  C   -0.508531
     4  C    1.530454
     5  C   -0.508531
     6  C    0.553179
     7  N   -2.660981
     9  Cl  -0.811277
    11  Cl  -0.811277
 Electronic spatial extent (au):  <R**2>=           1904.3928
 Charge=              0.0000 electrons
 Dipole moment (field-independent basis, Debye):
    X=             -0.7330    Y=              3.7120    Z=             -0.0000  Tot=              3.7836

 Test job not archived.
 1\1\GINC-SE136\SP\RHF\Aug-CC-pVDZ\C6H5Cl2N1\OHZDE\06-Apr-2025\0\\#t hf
  aug-cc-pvdz iop(5/13=1,5/36=2,99/5=2) pseudo=read geom=check guess=(r
 ead,tcheck) scf=(maxcycle=1)\\title\\0,1\C,0,-0.002611,-1.733711,0.\C,
 0,-0.002408,-1.024146,1.207301\C,0,-0.002408,0.359331,1.183235\C,0,-0.
 002586,1.085107,0.\C,0,-0.002408,0.359331,-1.183235\C,0,-0.002408,-1.0
 24146,-1.207301\N,0,-0.060193,-3.118911,0.\H,0,-0.007345,-1.548683,2.1
 51914\Cl,0,0.000346,1.229076,2.704581\H,0,-0.002009,2.162516,0.\Cl,0,0
 .000346,1.229076,-2.704581\H,0,-0.007345,-1.548683,-2.151914\H,0,0.257
 626,-3.575977,-0.83838\H,0,0.257626,-3.575977,0.83838\\Version=ES64L-G
 16RevC.01\State=1-A'\HF=-1205.455851\RMSD=2.737e+00\Dipole=0.2837498,-
 1.4612995,0.\Quadrupole=-4.3365713,7.038544,-2.7019727,-2.3714395,0.,0
 .\PG=CS [SG(C2H1N1),X(C4H4Cl2)]\\@


 ALL OUR THINKING ABOUT NATURE MUST NECESSARILY MOVE IN CIRCLES OR SPIRALS;
 FOR WE CAN ONLY UNDERSTAND NATURE IF WE THINK ABOUT HER, AND WE CAN ONLY
 THINK BECAUSE OUR BRAIN IS BUILT IN ACCORDANCE WITH NATURE'S LAWS.

                                             -- TIMOTHY FERRIS, "GALAXIES"
 Job cpu time:       0 days  0 hours  0 minutes 54.4 seconds.
 Elapsed time:       0 days  0 hours  0 minutes  4.5 seconds.
 File lengths (MBytes):  RWF=     14 Int=      0 D2E=      0 Chk=     10 Scr=      1
 Normal termination of Gaussian 16 at Sun Apr  6 08:04:56 2025.
