 Entering Gaussian System, Link 0=g16
 Input=cyclohexanone.gjf
 Output=cyclohexanone.log
 Initial command:
 /arc/software/Gaussian/g16.c01/l1.exe "/tmp/slurm/4820111/Gau-3920306.inp" -scrdir="/tmp/slurm/4820111/"
 Entering Link 1 = /arc/software/Gaussian/g16.c01/l1.exe PID=   3920307.
  
 Copyright (c) 1988-2019, Gaussian, Inc.  All Rights Reserved.
  
 This is part of the Gaussian(R) 16 program.  It is based on
 the Gaussian(R) 09 system (copyright 2009, Gaussian, Inc.),
 the Gaussian(R) 03 system (copyright 2003, Gaussian, Inc.),
 the Gaussian(R) 98 system (copyright 1998, Gaussian, Inc.),
 the Gaussian(R) 94 system (copyright 1995, Gaussian, Inc.),
 the Gaussian 92(TM) system (copyright 1992, Gaussian, Inc.),
 the Gaussian 90(TM) system (copyright 1990, Gaussian, Inc.),
 the Gaussian 88(TM) system (copyright 1988, Gaussian, Inc.),
 the Gaussian 86(TM) system (copyright 1986, Carnegie Mellon
 University), and the Gaussian 82(TM) system (copyright 1983,
 Carnegie Mellon University). Gaussian is a federally registered
 trademark of Gaussian, Inc.
  
 This software contains proprietary and confidential information,
 including trade secrets, belonging to Gaussian, Inc.
  
 This software is provided under written license and may be
 used, copied, transmitted, or stored only in accord with that
 written license.
  
 The following legend is applicable only to US Government
 contracts under FAR:
  
                    RESTRICTED RIGHTS LEGEND
  
 Use, reproduction and disclosure by the US Government is
 subject to restrictions as set forth in subparagraphs (a)
 and (c) of the Commercial Computer Software - Restricted
 Rights clause in FAR 52.227-19.
  
 Gaussian, Inc.
 340 Quinnipiac St., Bldg. 40, Wallingford CT 06492
  
  
 ---------------------------------------------------------------
 Warning -- This program may not be used in any manner that
 competes with the business of Gaussian, Inc. or will provide
 assistance to any competitor of Gaussian, Inc.  The licensee
 of this program is prohibited from giving any competitor of
 Gaussian, Inc. access to this program.  By using this program,
 the user acknowledges that Gaussian, Inc. is engaged in the
 business of creating and licensing software in the field of
 computational chemistry and represents and warrants to the
 licensee that it is not a competitor of Gaussian, Inc. and that
 it will not use this program in any manner prohibited above.
 ---------------------------------------------------------------
  

 Cite this work as:
 Gaussian 16, Revision C.01,
 M. J. Frisch, G. W. Trucks, H. B. Schlegel, G. E. Scuseria, 
 M. A. Robb, J. R. Cheeseman, G. Scalmani, V. Barone, 
 G. A. Petersson, H. Nakatsuji, X. Li, M. Caricato, A. V. Marenich, 
 J. Bloino, B. G. Janesko, R. Gomperts, B. Mennucci, H. P. Hratchian, 
 J. V. Ortiz, A. F. Izmaylov, J. L. Sonnenberg, D. Williams-Young, 
 F. Ding, F. Lipparini, F. Egidi, J. Goings, B. Peng, A. Petrone, 
 T. Henderson, D. Ranasinghe, V. G. Zakrzewski, J. Gao, N. Rega, 
 G. Zheng, W. Liang, M. Hada, M. Ehara, K. Toyota, R. Fukuda, 
 J. Hasegawa, M. Ishida, T. Nakajima, Y. Honda, O. Kitao, H. Nakai, 
 T. Vreven, K. Throssell, J. A. Montgomery, Jr., J. E. Peralta, 
 F. Ogliaro, M. J. Bearpark, J. J. Heyd, E. N. Brothers, K. N. Kudin, 
 V. N. Staroverov, T. A. Keith, R. Kobayashi, J. Normand, 
 K. Raghavachari, A. P. Rendell, J. C. Burant, S. S. Iyengar, 
 J. Tomasi, M. Cossi, J. M. Millam, M. Klene, C. Adamo, R. Cammi, 
 J. W. Ochterski, R. L. Martin, K. Morokuma, O. Farkas, 
 J. B. Foresman, and D. J. Fox, Gaussian, Inc., Wallingford CT, 2019.
 
 ******************************************
 Gaussian 16:  ES64L-G16RevC.01  3-Jul-2019
                 6-Apr-2025 
 ******************************************
 %nprocs=16
 Will use up to   16 processors via shared memory.
 %mem=30GB
 %chk=cyclohexanone.chk
 ----------------------------------------------------------------------
 #t hf aug-cc-pvdz symm=none int=(grid=ultrafine) guess=(read,tcheck) s
 table=(opt,rrhf)
 ----------------------------------------------------------------------
 -----
 title
 -----
 Symbolic Z-matrix:
 Charge =  0 Multiplicity = 1
 C                    -0.40774   1.0837    0. 
 C                     0.15583   0.49947   1.28233 
 C                     0.15583   0.49947  -1.28233 
 C                     0.15583  -1.03931   1.26318 
 C                     0.15583  -1.03931  -1.26318 
 C                     0.82054  -1.59028   0. 
 O                    -1.24948   1.95449   0. 
 H                     1.18847   0.85496   1.37522 
 H                    -0.40808   0.89888   2.12366 
 H                    -0.40808   0.89888  -2.12366 
 H                     1.18847   0.85496  -1.37522 
 H                     0.65717  -1.41518   2.1567 
 H                    -0.87695  -1.39618   1.31335 
 H                    -0.87695  -1.39618  -1.31335 
 H                     0.65717  -1.41518  -2.1567 
 H                     1.88222  -1.32221   0. 
 H                     0.77574  -2.68112   0. 
 
                    Distance matrix (angstroms):
                    1          2          3          4          5
     1  C    0.000000
     2  C    1.517660   0.000000
     3  C    1.517660   2.564650   0.000000
     4  C    2.533856   1.538902   2.974469   0.000000
     5  C    2.533856   2.974469   1.538902   2.526366   0.000000
     6  C    2.942594   2.540329   2.540329   1.530046   1.530046
     7  O    1.211117   2.395065   2.395065   3.540251   3.540251
     8  H    2.119300   1.096062   2.873196   2.160363   3.408192
     9  H    2.131683   1.088742   3.475374   2.194310   3.942748
    10  H    2.131683   3.475374   1.088742   3.942748   2.194310
    11  H    2.119300   2.873196   1.096062   3.408192   2.160363
    12  H    3.468393   2.163733   3.967880   1.091319   3.476806
    13  H    2.845147   2.158957   3.376042   1.093850   2.798663
    14  H    2.845147   3.376042   2.158957   2.798663   1.093850
    15  H    3.468393   3.967880   2.163733   3.476806   1.091319
    16  H    3.321494   2.818388   2.818388   2.157798   2.157798
    17  H    3.946457   3.484943   3.484943   2.162282   2.162282
                    6          7          8          9         10
     6  C    0.000000
     7  O    4.104924   0.000000
     8  H    2.829455   3.007293   0.000000
     9  H    3.495047   2.516383   1.763820   0.000000
    10  H    3.495047   2.516383   3.846170   4.247312   0.000000
    11  H    2.829455   3.007293   2.750436   3.846170   1.763820
    12  H    2.169951   4.431850   2.458966   2.547686   4.981066
    13  H    2.155003   3.618101   3.055722   2.478658   4.159346
    14  H    2.155003   3.618101   4.069644   4.159346   2.478658
    15  H    2.169951   4.431850   4.232046   4.981066   2.547686
    16  H    1.095004   4.532585   2.666943   3.832575   3.832575
    17  H    1.091758   5.058698   3.816471   4.327559   4.327559
                   11         12         13         14         15
    11  H    0.000000
    12  H    4.232046   0.000000
    13  H    4.069644   1.750745   0.000000
    14  H    3.055722   3.794086   2.626700   0.000000
    15  H    2.458966   4.313390   3.794086   1.750745   0.000000
    16  H    2.666943   2.482083   3.056697   3.056697   2.482083
    17  H    3.816471   2.503600   2.471306   2.471306   2.503600
                   16         17
    16  H    0.000000
    17  H    1.752411   0.000000
 Symmetry turned off by external request.
 Rotational constants (GHZ):           4.2179677           2.4895263           1.7413943
   251 basis functions,   411 primitive gaussians,   265 cartesian basis functions
    27 alpha electrons       27 beta electrons
       nuclear repulsion energy       309.6338019284 Hartrees.
 NAtoms=   17 NActive=   17 NUniq=   17 SFac= 1.00D+00 NAtFMM=   60 NAOKFM=F Big=F
 ExpMin= 2.97D-02 ExpMax= 1.17D+04 ExpMxC= 4.01D+02 IAcc=3 IRadAn=         5 AccDes= 0.00D+00
 Harris functional with IExCor=  205 and IRadAn=       5 diagonalized for initial guess.
 HarFok:  IExCor=  205 AccDes= 0.00D+00 IRadAn=         5 IDoV= 1 UseB2=F ITyADJ=14
 ICtDFT=  3500011 ScaDFX=  1.000000  1.000000  1.000000  1.000000
 FoFCou: FMM=F IPFlag=           0 FMFlag=      100000 FMFlg1=           0
         NFxFlg=           0 DoJE=T BraDBF=F KetDBF=T FulRan=T
         wScrn=  0.000000 ICntrl=       500 IOpCl=  0 I1Cent=   200000004 NGrid=           0
         NMat0=    1 NMatS0=      1 NMatT0=    0 NMatD0=    1 NMtDS0=    0 NMtDT0=    0
 Symmetry not used in FoFCou.
 SCF Done:  E(RHF) =  -307.943883290     A.U. after   13 cycles
            NFock= 13  Conv=0.22D-08     -V/T= 2.0010

 **********************************************************************

            Population analysis using the SCF Density.

 **********************************************************************

 Alpha  occ. eigenvalues --  -20.55159 -11.33045 -11.24170 -11.24167 -11.23950
 Alpha  occ. eigenvalues --  -11.23948 -11.23771  -1.38671  -1.12364  -1.02773
 Alpha  occ. eigenvalues --   -0.99134  -0.86284  -0.81456  -0.73148  -0.66278
 Alpha  occ. eigenvalues --   -0.63952  -0.62953  -0.60171  -0.58738  -0.57085
 Alpha  occ. eigenvalues --   -0.54632  -0.50468  -0.50424  -0.47526  -0.47328
 Alpha  occ. eigenvalues --   -0.46172  -0.39517
 Alpha virt. eigenvalues --    0.03143   0.04003   0.04161   0.04894   0.06322
 Alpha virt. eigenvalues --    0.06503   0.06578   0.06992   0.07733   0.08997
 Alpha virt. eigenvalues --    0.10915   0.12699   0.13747   0.13918   0.14176
 Alpha virt. eigenvalues --    0.14517   0.15037   0.15043   0.15476   0.16368
 Alpha virt. eigenvalues --    0.16443   0.17262   0.18146   0.18238   0.18856
 Alpha virt. eigenvalues --    0.18971   0.19572   0.19621   0.20062   0.22066
 Alpha virt. eigenvalues --    0.22418   0.24085   0.24381   0.25657   0.27032
 Alpha virt. eigenvalues --    0.30366   0.31827   0.33195   0.33716   0.34870
 Alpha virt. eigenvalues --    0.35466   0.35935   0.36408   0.36867   0.37524
 Alpha virt. eigenvalues --    0.37936   0.38608   0.40951   0.41468   0.41706
 Alpha virt. eigenvalues --    0.42744   0.43188   0.44690   0.45302   0.45941
 Alpha virt. eigenvalues --    0.46108   0.47231   0.47649   0.48763   0.48994
 Alpha virt. eigenvalues --    0.49203   0.49811   0.50943   0.51084   0.53077
 Alpha virt. eigenvalues --    0.53232   0.56542   0.56796   0.57410   0.58409
 Alpha virt. eigenvalues --    0.58601   0.59167   0.59411   0.60774   0.61618
 Alpha virt. eigenvalues --    0.62311   0.63360   0.65370   0.65845   0.66409
 Alpha virt. eigenvalues --    0.68420   0.69593   0.69775   0.70421   0.71613
 Alpha virt. eigenvalues --    0.74207   0.74568   0.74900   0.75208   0.77474
 Alpha virt. eigenvalues --    0.77487   0.79535   0.80104   0.80905   0.83410
 Alpha virt. eigenvalues --    0.83951   0.84207   0.85133   0.85502   0.85794
 Alpha virt. eigenvalues --    0.86168   0.88228   0.88970   0.89818   0.90180
 Alpha virt. eigenvalues --    0.91097   0.92638   0.93584   0.95945   0.96067
 Alpha virt. eigenvalues --    0.99106   0.99817   1.01880   1.01904   1.05335
 Alpha virt. eigenvalues --    1.05916   1.06414   1.12106   1.13204   1.15886
 Alpha virt. eigenvalues --    1.17839   1.19099   1.20267   1.23211   1.25822
 Alpha virt. eigenvalues --    1.26369   1.31172   1.32788   1.33340   1.35957
 Alpha virt. eigenvalues --    1.39514   1.40608   1.42322   1.42797   1.47527
 Alpha virt. eigenvalues --    1.50839   1.50966   1.52792   1.54398   1.56334
 Alpha virt. eigenvalues --    1.56335   1.61790   1.63568   1.67012   1.67745
 Alpha virt. eigenvalues --    1.68876   1.73423   1.74215   1.78603   1.80795
 Alpha virt. eigenvalues --    1.83257   1.85895   1.87269   1.88237   1.90408
 Alpha virt. eigenvalues --    1.90734   1.96432   1.97259   1.97808   2.00967
 Alpha virt. eigenvalues --    2.01860   2.02452   2.03773   2.06264   2.08222
 Alpha virt. eigenvalues --    2.10796   2.12985   2.13449   2.15133   2.18304
 Alpha virt. eigenvalues --    2.18797   2.19321   2.21381   2.22028   2.23985
 Alpha virt. eigenvalues --    2.25140   2.28529   2.29486   2.32343   2.35739
 Alpha virt. eigenvalues --    2.35934   2.38202   2.38861   2.43353   2.45788
 Alpha virt. eigenvalues --    2.48570   2.50090   2.53887   2.54906   2.57235
 Alpha virt. eigenvalues --    2.61026   2.62631   2.63626   2.68748   2.69045
 Alpha virt. eigenvalues --    2.72736   2.75522   2.77315   2.80055   2.83661
 Alpha virt. eigenvalues --    2.84026   2.86287   2.88907   2.90580   2.93617
 Alpha virt. eigenvalues --    2.95459   3.00496   3.02175   3.06630   3.11019
 Alpha virt. eigenvalues --    3.12673   3.16999   3.17430   3.17843   3.24234
 Alpha virt. eigenvalues --    3.33626   3.46147   3.76724   3.77806   3.84268
 Alpha virt. eigenvalues --    3.86079   3.86405   4.00994   4.19143
          Condensed to atoms (all electrons):
 Mulliken charges:
               1
     1  C    0.333453
     2  C    0.331581
     3  C    0.331581
     4  C    0.287681
     5  C    0.287681
     6  C    0.331631
     7  O   -0.817852
     8  H   -0.008557
     9  H   -0.141608
    10  H   -0.141608
    11  H   -0.008557
    12  H   -0.127978
    13  H   -0.139910
    14  H   -0.139910
    15  H   -0.127978
    16  H   -0.143813
    17  H   -0.105837
 Sum of Mulliken charges =  -0.00000
 Mulliken charges with hydrogens summed into heavy atoms:
               1
     1  C    0.333453
     2  C    0.181415
     3  C    0.181415
     4  C    0.019793
     5  C    0.019793
     6  C    0.081981
     7  O   -0.817852
 Electronic spatial extent (au):  <R**2>=            748.7842
 Charge=             -0.0000 electrons
 Dipole moment (field-independent basis, Debye):
    X=              2.4308    Y=             -2.8508    Z=             -0.0000  Tot=              3.7464
 NROrb=    251 NOA=    27 NOB=    27 NVA=   224 NVB=   224

 **** Warning!!: The largest alpha MO coefficient is  0.54230732D+02

    12 initial guesses have been made.
 Iteration     1 Dimension    12 NMult     0 NNew     12
 Iteration     2 Dimension    24 NMult    12 NNew     12
 Iteration     3 Dimension    27 NMult    24 NNew      3
 Iteration     4 Dimension    30 NMult    27 NNew      3
 Iteration     5 Dimension    33 NMult    30 NNew      3
 Iteration     6 Dimension    36 NMult    33 NNew      3
 ***********************************************************************
 Stability analysis using <AA,BB:AA,BB> singles matrix:
 ***********************************************************************
 Ground to excited state transition densities written to RWF  633

 Eigenvectors of the stability matrix:
 
 Excited state symmetry could not be determined.
 Eigenvector   1:      Singlet-?Sym  Eigenvalue= 0.1898077  <S**2>=0.000
      27 -> 28         0.10479
      27 -> 39         0.34657
      27 -> 40        -0.25166
      27 -> 43        -0.11723
      27 -> 44         0.12983
      27 -> 46        -0.17257
      27 -> 49         0.34700
      27 -> 53         0.11346
      27 -> 56        -0.11458
      27 -> 58        -0.11840
 The wavefunction is stable under the perturbations considered.
 The wavefunction is already stable.

 **********************************************************************

            Population analysis using the SCF Density.

 **********************************************************************

 Alpha  occ. eigenvalues --  -20.55159 -11.33045 -11.24170 -11.24167 -11.23950
 Alpha  occ. eigenvalues --  -11.23948 -11.23771  -1.38671  -1.12364  -1.02773
 Alpha  occ. eigenvalues --   -0.99134  -0.86284  -0.81456  -0.73148  -0.66278
 Alpha  occ. eigenvalues --   -0.63952  -0.62953  -0.60171  -0.58738  -0.57085
 Alpha  occ. eigenvalues --   -0.54632  -0.50468  -0.50424  -0.47526  -0.47328
 Alpha  occ. eigenvalues --   -0.46172  -0.39517
 Alpha virt. eigenvalues --    0.03143   0.04003   0.04161   0.04894   0.06322
 Alpha virt. eigenvalues --    0.06503   0.06578   0.06992   0.07733   0.08997
 Alpha virt. eigenvalues --    0.10915   0.12699   0.13747   0.13918   0.14176
 Alpha virt. eigenvalues --    0.14517   0.15037   0.15043   0.15476   0.16368
 Alpha virt. eigenvalues --    0.16443   0.17262   0.18146   0.18238   0.18856
 Alpha virt. eigenvalues --    0.18971   0.19572   0.19621   0.20062   0.22066
 Alpha virt. eigenvalues --    0.22418   0.24085   0.24381   0.25657   0.27032
 Alpha virt. eigenvalues --    0.30366   0.31827   0.33195   0.33716   0.34870
 Alpha virt. eigenvalues --    0.35466   0.35935   0.36408   0.36867   0.37524
 Alpha virt. eigenvalues --    0.37936   0.38608   0.40951   0.41468   0.41706
 Alpha virt. eigenvalues --    0.42744   0.43188   0.44690   0.45302   0.45941
 Alpha virt. eigenvalues --    0.46108   0.47231   0.47649   0.48763   0.48994
 Alpha virt. eigenvalues --    0.49203   0.49811   0.50943   0.51084   0.53077
 Alpha virt. eigenvalues --    0.53232   0.56542   0.56796   0.57410   0.58409
 Alpha virt. eigenvalues --    0.58601   0.59167   0.59411   0.60774   0.61618
 Alpha virt. eigenvalues --    0.62311   0.63360   0.65370   0.65845   0.66409
 Alpha virt. eigenvalues --    0.68420   0.69593   0.69775   0.70421   0.71613
 Alpha virt. eigenvalues --    0.74207   0.74568   0.74900   0.75208   0.77474
 Alpha virt. eigenvalues --    0.77487   0.79535   0.80104   0.80905   0.83410
 Alpha virt. eigenvalues --    0.83951   0.84207   0.85133   0.85502   0.85794
 Alpha virt. eigenvalues --    0.86168   0.88228   0.88970   0.89818   0.90180
 Alpha virt. eigenvalues --    0.91097   0.92638   0.93584   0.95945   0.96067
 Alpha virt. eigenvalues --    0.99106   0.99817   1.01880   1.01904   1.05335
 Alpha virt. eigenvalues --    1.05916   1.06414   1.12106   1.13204   1.15886
 Alpha virt. eigenvalues --    1.17839   1.19099   1.20267   1.23211   1.25822
 Alpha virt. eigenvalues --    1.26369   1.31172   1.32788   1.33340   1.35957
 Alpha virt. eigenvalues --    1.39514   1.40608   1.42322   1.42797   1.47527
 Alpha virt. eigenvalues --    1.50839   1.50966   1.52792   1.54398   1.56334
 Alpha virt. eigenvalues --    1.56335   1.61790   1.63568   1.67012   1.67745
 Alpha virt. eigenvalues --    1.68876   1.73423   1.74215   1.78603   1.80795
 Alpha virt. eigenvalues --    1.83257   1.85895   1.87269   1.88237   1.90408
 Alpha virt. eigenvalues --    1.90734   1.96432   1.97259   1.97808   2.00967
 Alpha virt. eigenvalues --    2.01860   2.02452   2.03773   2.06264   2.08222
 Alpha virt. eigenvalues --    2.10796   2.12985   2.13449   2.15133   2.18304
 Alpha virt. eigenvalues --    2.18797   2.19321   2.21381   2.22028   2.23985
 Alpha virt. eigenvalues --    2.25140   2.28529   2.29486   2.32343   2.35739
 Alpha virt. eigenvalues --    2.35934   2.38202   2.38861   2.43353   2.45788
 Alpha virt. eigenvalues --    2.48570   2.50090   2.53887   2.54906   2.57235
 Alpha virt. eigenvalues --    2.61026   2.62631   2.63626   2.68748   2.69045
 Alpha virt. eigenvalues --    2.72736   2.75522   2.77315   2.80055   2.83661
 Alpha virt. eigenvalues --    2.84026   2.86287   2.88907   2.90580   2.93617
 Alpha virt. eigenvalues --    2.95459   3.00496   3.02175   3.06630   3.11019
 Alpha virt. eigenvalues --    3.12673   3.16999   3.17430   3.17843   3.24234
 Alpha virt. eigenvalues --    3.33626   3.46147   3.76724   3.77806   3.84268
 Alpha virt. eigenvalues --    3.86079   3.86405   4.00994   4.19143
          Condensed to atoms (all electrons):
 Mulliken charges:
               1
     1  C    0.333453
     2  C    0.331581
     3  C    0.331581
     4  C    0.287681
     5  C    0.287681
     6  C    0.331631
     7  O   -0.817852
     8  H   -0.008557
     9  H   -0.141608
    10  H   -0.141608
    11  H   -0.008557
    12  H   -0.127978
    13  H   -0.139910
    14  H   -0.139910
    15  H   -0.127978
    16  H   -0.143813
    17  H   -0.105837
 Sum of Mulliken charges =  -0.00000
 Mulliken charges with hydrogens summed into heavy atoms:
               1
     1  C    0.333453
     2  C    0.181415
     3  C    0.181415
     4  C    0.019793
     5  C    0.019793
     6  C    0.081981
     7  O   -0.817852
 Electronic spatial extent (au):  <R**2>=            748.7842
 Charge=             -0.0000 electrons
 Dipole moment (field-independent basis, Debye):
    X=              2.4308    Y=             -2.8508    Z=             -0.0000  Tot=              3.7464
 Unable to Open any file for archive entry.
 1\1\GINC-SE398\Stability\RHF\Aug-CC-pVDZ\C6H10O1\OHZDE\06-Apr-2025\0\\
 #t hf aug-cc-pvdz symm=none int=(grid=ultrafine) guess=(read,tcheck) s
 table=(opt,rrhf)\\title\\0,1\C,0,-0.407739,1.083702,0.\C,0,0.155829,0.
 499472,1.282325\C,0,0.155829,0.499472,-1.282325\C,0,0.155829,-1.039311
 ,1.263183\C,0,0.155829,-1.039311,-1.263183\C,0,0.820538,-1.590283,0.\O
 ,0,-1.249483,1.95449,0.\H,0,1.188471,0.854961,1.375218\H,0,-0.408079,0
 .898882,2.123656\H,0,-0.408079,0.898882,-2.123656\H,0,1.188471,0.85496
 1,-1.375218\H,0,0.657166,-1.415176,2.156695\H,0,-0.876952,-1.39618,1.3
 1335\H,0,-0.876952,-1.39618,-1.31335\H,0,0.657166,-1.415176,-2.156695\
 H,0,1.882221,-1.322209,0.\H,0,0.77574,-2.681122,0.\\Version=ES64L-G16R
 evC.01\HF=-307.9438833\RMSD=2.201e-09\Dipole=0.9563323,-1.1215798,0.\Q
 uadrupole=-0.158042,-3.0798141,3.2378561,4.2168346,0.,0.\PG=Unknown\\@
 The archive entry for this job was punched.


 WORK FAITHFULLY FOR EIGHT HOURS A DAY AND DON'T WORRY.
 IN TIME YOU MAY BECOME BOSS AND WORK TWELVE HOURS A DAY
 AND HAVE ALL THE WORRY.
 Job cpu time:       0 days  0 hours  7 minutes 54.8 seconds.
 Elapsed time:       0 days  0 hours  0 minutes 34.9 seconds.
 File lengths (MBytes):  RWF=    265 Int=      0 D2E=      0 Chk=      9 Scr=      1
 Normal termination of Gaussian 16 at Sun Apr  6 08:12:27 2025.
 Initial command:
 /arc/software/Gaussian/g16.c01/l1.exe "/tmp/slurm/4820111/Gau-3920306.inp" -scrdir="/tmp/slurm/4820111/"
 Entering Link 1 = /arc/software/Gaussian/g16.c01/l1.exe PID=   3920845.
  
 Copyright (c) 1988-2019, Gaussian, Inc.  All Rights Reserved.
  
 This is part of the Gaussian(R) 16 program.  It is based on
 the Gaussian(R) 09 system (copyright 2009, Gaussian, Inc.),
 the Gaussian(R) 03 system (copyright 2003, Gaussian, Inc.),
 the Gaussian(R) 98 system (copyright 1998, Gaussian, Inc.),
 the Gaussian(R) 94 system (copyright 1995, Gaussian, Inc.),
 the Gaussian 92(TM) system (copyright 1992, Gaussian, Inc.),
 the Gaussian 90(TM) system (copyright 1990, Gaussian, Inc.),
 the Gaussian 88(TM) system (copyright 1988, Gaussian, Inc.),
 the Gaussian 86(TM) system (copyright 1986, Carnegie Mellon
 University), and the Gaussian 82(TM) system (copyright 1983,
 Carnegie Mellon University). Gaussian is a federally registered
 trademark of Gaussian, Inc.
  
 This software contains proprietary and confidential information,
 including trade secrets, belonging to Gaussian, Inc.
  
 This software is provided under written license and may be
 used, copied, transmitted, or stored only in accord with that
 written license.
  
 The following legend is applicable only to US Government
 contracts under FAR:
  
                    RESTRICTED RIGHTS LEGEND
  
 Use, reproduction and disclosure by the US Government is
 subject to restrictions as set forth in subparagraphs (a)
 and (c) of the Commercial Computer Software - Restricted
 Rights clause in FAR 52.227-19.
  
 Gaussian, Inc.
 340 Quinnipiac St., Bldg. 40, Wallingford CT 06492
  
  
 ---------------------------------------------------------------
 Warning -- This program may not be used in any manner that
 competes with the business of Gaussian, Inc. or will provide
 assistance to any competitor of Gaussian, Inc.  The licensee
 of this program is prohibited from giving any competitor of
 Gaussian, Inc. access to this program.  By using this program,
 the user acknowledges that Gaussian, Inc. is engaged in the
 business of creating and licensing software in the field of
 computational chemistry and represents and warrants to the
 licensee that it is not a competitor of Gaussian, Inc. and that
 it will not use this program in any manner prohibited above.
 ---------------------------------------------------------------
  

 Cite this work as:
 Gaussian 16, Revision C.01,
 M. J. Frisch, G. W. Trucks, H. B. Schlegel, G. E. Scuseria, 
 M. A. Robb, J. R. Cheeseman, G. Scalmani, V. Barone, 
 G. A. Petersson, H. Nakatsuji, X. Li, M. Caricato, A. V. Marenich, 
 J. Bloino, B. G. Janesko, R. Gomperts, B. Mennucci, H. P. Hratchian, 
 J. V. Ortiz, A. F. Izmaylov, J. L. Sonnenberg, D. Williams-Young, 
 F. Ding, F. Lipparini, F. Egidi, J. Goings, B. Peng, A. Petrone, 
 T. Henderson, D. Ranasinghe, V. G. Zakrzewski, J. Gao, N. Rega, 
 G. Zheng, W. Liang, M. Hada, M. Ehara, K. Toyota, R. Fukuda, 
 J. Hasegawa, M. Ishida, T. Nakajima, Y. Honda, O. Kitao, H. Nakai, 
 T. Vreven, K. Throssell, J. A. Montgomery, Jr., J. E. Peralta, 
 F. Ogliaro, M. J. Bearpark, J. J. Heyd, E. N. Brothers, K. N. Kudin, 
 V. N. Staroverov, T. A. Keith, R. Kobayashi, J. Normand, 
 K. Raghavachari, A. P. Rendell, J. C. Burant, S. S. Iyengar, 
 J. Tomasi, M. Cossi, J. M. Millam, M. Klene, C. Adamo, R. Cammi, 
 J. W. Ochterski, R. L. Martin, K. Morokuma, O. Farkas, 
 J. B. Foresman, and D. J. Fox, Gaussian, Inc., Wallingford CT, 2019.
 
 ******************************************
 Gaussian 16:  ES64L-G16RevC.01  3-Jul-2019
                 6-Apr-2025 
 ******************************************
 %nprocs=16
 Will use up to   16 processors via shared memory.
 %mem=30GB
 %chk=cyclohexanone.chk
 ----------------------------------------------------------------------
 #t hf aug-cc-pvdz iop(5/13=1,5/36=2,99/5=2) pseudo=read geom=check gue
 ss=(read,tcheck) scf=(maxcycle=1)
 ----------------------------------------------------------------------
 -----
 title
 -----
 Structure from the checkpoint file:  "cyclohexanone.chk"
 Charge =  0 Multiplicity = 1
 Z-Matrix found in chk file.
 C,0,-0.407739,1.083702,0.
 C,0,0.155829,0.499472,1.282325
 C,0,0.155829,0.499472,-1.282325
 C,0,0.155829,-1.039311,1.263183
 C,0,0.155829,-1.039311,-1.263183
 C,0,0.820538,-1.590283,0.
 O,0,-1.249483,1.95449,0.
 H,0,1.188471,0.854961,1.375218
 H,0,-0.408079,0.898882,2.123656
 H,0,-0.408079,0.898882,-2.123656
 H,0,1.188471,0.854961,-1.375218
 H,0,0.657166,-1.415176,2.156695
 H,0,-0.876952,-1.39618,1.31335
 H,0,-0.876952,-1.39618,-1.31335
 H,0,0.657166,-1.415176,-2.156695
 H,0,1.882221,-1.322209,0.
 H,0,0.77574,-2.681122,0.
 Recover connectivity data from disk.
                    Distance matrix (angstroms):
                    1          2          3          4          5
     1  C    0.000000
     2  C    1.517660   0.000000
     3  C    1.517660   2.564650   0.000000
     4  C    2.533856   1.538902   2.974469   0.000000
     5  C    2.533856   2.974469   1.538902   2.526366   0.000000
     6  C    2.942594   2.540329   2.540329   1.530046   1.530046
     7  O    1.211117   2.395065   2.395065   3.540251   3.540251
     8  H    2.119300   1.096062   2.873196   2.160363   3.408192
     9  H    2.131683   1.088742   3.475374   2.194310   3.942748
    10  H    2.131683   3.475374   1.088742   3.942748   2.194310
    11  H    2.119300   2.873196   1.096062   3.408192   2.160363
    12  H    3.468393   2.163733   3.967880   1.091319   3.476806
    13  H    2.845147   2.158957   3.376042   1.093850   2.798663
    14  H    2.845147   3.376042   2.158957   2.798663   1.093850
    15  H    3.468393   3.967880   2.163733   3.476806   1.091319
    16  H    3.321494   2.818388   2.818388   2.157798   2.157798
    17  H    3.946457   3.484943   3.484943   2.162282   2.162282
                    6          7          8          9         10
     6  C    0.000000
     7  O    4.104924   0.000000
     8  H    2.829455   3.007293   0.000000
     9  H    3.495047   2.516383   1.763820   0.000000
    10  H    3.495047   2.516383   3.846170   4.247312   0.000000
    11  H    2.829455   3.007293   2.750436   3.846170   1.763820
    12  H    2.169951   4.431850   2.458966   2.547686   4.981066
    13  H    2.155003   3.618101   3.055722   2.478658   4.159346
    14  H    2.155003   3.618101   4.069644   4.159346   2.478658
    15  H    2.169951   4.431850   4.232046   4.981066   2.547686
    16  H    1.095004   4.532585   2.666943   3.832575   3.832575
    17  H    1.091758   5.058698   3.816471   4.327559   4.327559
                   11         12         13         14         15
    11  H    0.000000
    12  H    4.232046   0.000000
    13  H    4.069644   1.750745   0.000000
    14  H    3.055722   3.794086   2.626700   0.000000
    15  H    2.458966   4.313390   3.794086   1.750745   0.000000
    16  H    2.666943   2.482083   3.056697   3.056697   2.482083
    17  H    3.816471   2.503600   2.471306   2.471306   2.503600
                   16         17
    16  H    0.000000
    17  H    1.752411   0.000000
 Framework group  CS[SG(C2H2O),X(C4H8)]
 Deg. of freedom    25
                         Standard orientation:                         
 ---------------------------------------------------------------------
 Center     Atomic      Atomic             Coordinates (Angstroms)
 Number     Number       Type             X           Y           Z
 ---------------------------------------------------------------------
      1          6           0       -0.407739    1.083702   -0.000000
      2          6           0        0.155829    0.499472    1.282325
      3          6           0        0.155829    0.499472   -1.282325
      4          6           0        0.155829   -1.039311    1.263183
      5          6           0        0.155829   -1.039311   -1.263183
      6          6           0        0.820538   -1.590283    0.000000
      7          8           0       -1.249483    1.954490   -0.000000
      8          1           0        1.188471    0.854961    1.375218
      9          1           0       -0.408079    0.898882    2.123656
     10          1           0       -0.408079    0.898882   -2.123656
     11          1           0        1.188471    0.854961   -1.375218
     12          1           0        0.657166   -1.415176    2.156695
     13          1           0       -0.876952   -1.396180    1.313350
     14          1           0       -0.876952   -1.396180   -1.313350
     15          1           0        0.657166   -1.415176   -2.156695
     16          1           0        1.882221   -1.322209    0.000000
     17          1           0        0.775740   -2.681122    0.000000
 ---------------------------------------------------------------------
 Rotational constants (GHZ):           4.2179677           2.4895263           1.7413943
 ======================================================================================================
                                       Pseudopotential Parameters
 ======================================================================================================
  Center     Atomic      Valence      Angular      Power
  Number     Number     Electrons     Momentum     of R      Exponent        Coefficient   SO-Coeffient
 ======================================================================================================
    1          6            6
                                      G and up 
                                                     0        0.0000010       -0.00286759    0.00000000
                                                     2        0.1200000        0.03193960    0.00000000
                                                     2        0.1600000       -0.04027782    0.00000000
                                                     2        0.2600000        0.24782456    0.00000000
                                                     2        0.4000000       -0.62266671    0.00000000
                                                     2        0.7000000        0.35695227    0.00000000
                                      S - G
                                                     0        0.0000010       -0.06602313    0.00000000
                                                     2        0.1200000        1.47277455    0.00000000
                                                     2        0.1600000       -4.06924166    0.00000000
                                                     2        0.3000000        5.02952802    0.00000000
                                                     2        0.7000000       -5.65856978    0.00000000
                                                     2        1.7000000        8.57604414    0.00000000
                                      P - G
                                                     0        0.0000010        0.49434425    0.00000000
                                                     2        0.1200000       -1.37391547    0.00000000
                                                     2        0.1600000        3.65411806    0.00000000
                                                     2        0.2800000       -7.36479843    0.00000000
                                                     2        0.6000000       17.22091285    0.00000000
                                                     2        1.1000000      -23.50107827    0.00000000
                                                     2        3.0000000       16.29464063    0.00000000
                                      D - G
                                                     0        0.0000010       -0.28693103    0.00000000
                                                     2        0.1200000        0.12273044    0.00000000
                                                     2        0.3000000       -0.43416384    0.00000000
                                                     2        0.7000000        2.23358493    0.00000000
                                      F - G
                                                     0        0.0000010        0.07263570    0.00000000
                                                     2        0.1400000       -0.76152861    0.00000000
                                                     2        0.2200000        1.98045593    0.00000000
                                                     2        0.4000000       -2.42426427    0.00000000
                                                     2        0.7000000        0.52335237    0.00000000
    2          6            6
                                      G and up 
                                                     0        0.0000010       -0.00286759    0.00000000
                                                     2        0.1200000        0.03193960    0.00000000
                                                     2        0.1600000       -0.04027782    0.00000000
                                                     2        0.2600000        0.24782456    0.00000000
                                                     2        0.4000000       -0.62266671    0.00000000
                                                     2        0.7000000        0.35695227    0.00000000
                                      S - G
                                                     0        0.0000010       -0.06602313    0.00000000
                                                     2        0.1200000        1.47277455    0.00000000
                                                     2        0.1600000       -4.06924166    0.00000000
                                                     2        0.3000000        5.02952802    0.00000000
                                                     2        0.7000000       -5.65856978    0.00000000
                                                     2        1.7000000        8.57604414    0.00000000
                                      P - G
                                                     0        0.0000010        0.49434425    0.00000000
                                                     2        0.1200000       -1.37391547    0.00000000
                                                     2        0.1600000        3.65411806    0.00000000
                                                     2        0.2800000       -7.36479843    0.00000000
                                                     2        0.6000000       17.22091285    0.00000000
                                                     2        1.1000000      -23.50107827    0.00000000
                                                     2        3.0000000       16.29464063    0.00000000
                                      D - G
                                                     0        0.0000010       -0.28693103    0.00000000
                                                     2        0.1200000        0.12273044    0.00000000
                                                     2        0.3000000       -0.43416384    0.00000000
                                                     2        0.7000000        2.23358493    0.00000000
                                      F - G
                                                     0        0.0000010        0.07263570    0.00000000
                                                     2        0.1400000       -0.76152861    0.00000000
                                                     2        0.2200000        1.98045593    0.00000000
                                                     2        0.4000000       -2.42426427    0.00000000
                                                     2        0.7000000        0.52335237    0.00000000
    3          6            6
                                      G and up 
                                                     0        0.0000010       -0.00286759    0.00000000
                                                     2        0.1200000        0.03193960    0.00000000
                                                     2        0.1600000       -0.04027782    0.00000000
                                                     2        0.2600000        0.24782456    0.00000000
                                                     2        0.4000000       -0.62266671    0.00000000
                                                     2        0.7000000        0.35695227    0.00000000
                                      S - G
                                                     0        0.0000010       -0.06602313    0.00000000
                                                     2        0.1200000        1.47277455    0.00000000
                                                     2        0.1600000       -4.06924166    0.00000000
                                                     2        0.3000000        5.02952802    0.00000000
                                                     2        0.7000000       -5.65856978    0.00000000
                                                     2        1.7000000        8.57604414    0.00000000
                                      P - G
                                                     0        0.0000010        0.49434425    0.00000000
                                                     2        0.1200000       -1.37391547    0.00000000
                                                     2        0.1600000        3.65411806    0.00000000
                                                     2        0.2800000       -7.36479843    0.00000000
                                                     2        0.6000000       17.22091285    0.00000000
                                                     2        1.1000000      -23.50107827    0.00000000
                                                     2        3.0000000       16.29464063    0.00000000
                                      D - G
                                                     0        0.0000010       -0.28693103    0.00000000
                                                     2        0.1200000        0.12273044    0.00000000
                                                     2        0.3000000       -0.43416384    0.00000000
                                                     2        0.7000000        2.23358493    0.00000000
                                      F - G
                                                     0        0.0000010        0.07263570    0.00000000
                                                     2        0.1400000       -0.76152861    0.00000000
                                                     2        0.2200000        1.98045593    0.00000000
                                                     2        0.4000000       -2.42426427    0.00000000
                                                     2        0.7000000        0.52335237    0.00000000
    4          6            6
                                      G and up 
                                                     0        0.0000010       -0.00286759    0.00000000
                                                     2        0.1200000        0.03193960    0.00000000
                                                     2        0.1600000       -0.04027782    0.00000000
                                                     2        0.2600000        0.24782456    0.00000000
                                                     2        0.4000000       -0.62266671    0.00000000
                                                     2        0.7000000        0.35695227    0.00000000
                                      S - G
                                                     0        0.0000010       -0.06602313    0.00000000
                                                     2        0.1200000        1.47277455    0.00000000
                                                     2        0.1600000       -4.06924166    0.00000000
                                                     2        0.3000000        5.02952802    0.00000000
                                                     2        0.7000000       -5.65856978    0.00000000
                                                     2        1.7000000        8.57604414    0.00000000
                                      P - G
                                                     0        0.0000010        0.49434425    0.00000000
                                                     2        0.1200000       -1.37391547    0.00000000
                                                     2        0.1600000        3.65411806    0.00000000
                                                     2        0.2800000       -7.36479843    0.00000000
                                                     2        0.6000000       17.22091285    0.00000000
                                                     2        1.1000000      -23.50107827    0.00000000
                                                     2        3.0000000       16.29464063    0.00000000
                                      D - G
                                                     0        0.0000010       -0.28693103    0.00000000
                                                     2        0.1200000        0.12273044    0.00000000
                                                     2        0.3000000       -0.43416384    0.00000000
                                                     2        0.7000000        2.23358493    0.00000000
                                      F - G
                                                     0        0.0000010        0.07263570    0.00000000
                                                     2        0.1400000       -0.76152861    0.00000000
                                                     2        0.2200000        1.98045593    0.00000000
                                                     2        0.4000000       -2.42426427    0.00000000
                                                     2        0.7000000        0.52335237    0.00000000
    5          6            6
                                      G and up 
                                                     0        0.0000010       -0.00286759    0.00000000
                                                     2        0.1200000        0.03193960    0.00000000
                                                     2        0.1600000       -0.04027782    0.00000000
                                                     2        0.2600000        0.24782456    0.00000000
                                                     2        0.4000000       -0.62266671    0.00000000
                                                     2        0.7000000        0.35695227    0.00000000
                                      S - G
                                                     0        0.0000010       -0.06602313    0.00000000
                                                     2        0.1200000        1.47277455    0.00000000
                                                     2        0.1600000       -4.06924166    0.00000000
                                                     2        0.3000000        5.02952802    0.00000000
                                                     2        0.7000000       -5.65856978    0.00000000
                                                     2        1.7000000        8.57604414    0.00000000
                                      P - G
                                                     0        0.0000010        0.49434425    0.00000000
                                                     2        0.1200000       -1.37391547    0.00000000
                                                     2        0.1600000        3.65411806    0.00000000
                                                     2        0.2800000       -7.36479843    0.00000000
                                                     2        0.6000000       17.22091285    0.00000000
                                                     2        1.1000000      -23.50107827    0.00000000
                                                     2        3.0000000       16.29464063    0.00000000
                                      D - G
                                                     0        0.0000010       -0.28693103    0.00000000
                                                     2        0.1200000        0.12273044    0.00000000
                                                     2        0.3000000       -0.43416384    0.00000000
                                                     2        0.7000000        2.23358493    0.00000000
                                      F - G
                                                     0        0.0000010        0.07263570    0.00000000
                                                     2        0.1400000       -0.76152861    0.00000000
                                                     2        0.2200000        1.98045593    0.00000000
                                                     2        0.4000000       -2.42426427    0.00000000
                                                     2        0.7000000        0.52335237    0.00000000
    6          6            6
                                      G and up 
                                                     0        0.0000010       -0.00286759    0.00000000
                                                     2        0.1200000        0.03193960    0.00000000
                                                     2        0.1600000       -0.04027782    0.00000000
                                                     2        0.2600000        0.24782456    0.00000000
                                                     2        0.4000000       -0.62266671    0.00000000
                                                     2        0.7000000        0.35695227    0.00000000
                                      S - G
                                                     0        0.0000010       -0.06602313    0.00000000
                                                     2        0.1200000        1.47277455    0.00000000
                                                     2        0.1600000       -4.06924166    0.00000000
                                                     2        0.3000000        5.02952802    0.00000000
                                                     2        0.7000000       -5.65856978    0.00000000
                                                     2        1.7000000        8.57604414    0.00000000
                                      P - G
                                                     0        0.0000010        0.49434425    0.00000000
                                                     2        0.1200000       -1.37391547    0.00000000
                                                     2        0.1600000        3.65411806    0.00000000
                                                     2        0.2800000       -7.36479843    0.00000000
                                                     2        0.6000000       17.22091285    0.00000000
                                                     2        1.1000000      -23.50107827    0.00000000
                                                     2        3.0000000       16.29464063    0.00000000
                                      D - G
                                                     0        0.0000010       -0.28693103    0.00000000
                                                     2        0.1200000        0.12273044    0.00000000
                                                     2        0.3000000       -0.43416384    0.00000000
                                                     2        0.7000000        2.23358493    0.00000000
                                      F - G
                                                     0        0.0000010        0.07263570    0.00000000
                                                     2        0.1400000       -0.76152861    0.00000000
                                                     2        0.2200000        1.98045593    0.00000000
                                                     2        0.4000000       -2.42426427    0.00000000
                                                     2        0.7000000        0.52335237    0.00000000
    7          8            8
                                      G and up 
                                                     0        0.0000010       -0.00165251    0.00000000
                                                     2        0.1200000       -0.10937202    0.00000000
                                                     2        0.1400000        0.35668905    0.00000000
                                                     2        0.1800000       -0.51696033    0.00000000
                                                     2        0.2400000        0.52446472    0.00000000
                                                     2        0.4000000       -0.07754493    0.00000000
                                                     2        0.8000000       -1.90560988    0.00000000
                                                     2        1.7000000        0.19857963    0.00000000
                                      S - G
                                                     0        0.0000010       -0.03845181    0.00000000
                                                     2        0.1400000        0.42024558    0.00000000
                                                     2        0.4000000       -4.10467779    0.00000000
                                                     2        1.3000000        9.99571838    0.00000000
                                      P - G
                                                     0        0.0000010        0.33206183    0.00000000
                                                     2        0.1200000       -0.18708141    0.00000000
                                                     2        0.2800000       -0.18179081    0.00000000
                                                     2        0.7000000        1.18820394    0.00000000
                                      D - G
                                                     0        0.0000010       -0.57891674    0.00000000
                                                     2        0.1200000        0.60487490    0.00000000
                                                     2        0.2400000       -0.24931464    0.00000000
                                                     2        0.3000000       -2.75054612    0.00000000
                                                     2        1.0000000       15.96776040    0.00000000
                                      F - G
                                                     0        0.0000010        0.37449041    0.00000000
                                                     2        0.1200000       -0.63373642    0.00000000
                                                     2        0.1400000       -0.08412804    0.00000000
                                                     2        0.2800000        2.62321406    0.00000000
                                                     2        0.6000000       -2.68223623    0.00000000
    8          1            1
                                      F and up 
                                                     0        0.0000010        0.00072061    0.00000000
                                                     2        0.1200000        0.03832357    0.00000000
                                                     2        0.1400000       -0.08683256    0.00000000
                                                     2        0.1800000        0.09312970    0.00000000
                                                     2        0.2800000       -0.02532572    0.00000000
                                                     2        0.4000000       -0.09430787    0.00000000
                                                     2        0.7000000        0.42710831    0.00000000
                                                     2        1.2000000       -2.11746981    0.00000000
                                      S - F
                                                     0        0.0000010        0.14449603    0.00000000
                                                     2        0.1200000       -0.56378993    0.00000000
                                                     2        0.1400000        0.63941249    0.00000000
                                                     2        0.2600000       -0.58461015    0.00000000
                                                     2        0.5000000        1.00157293    0.00000000
                                                     2        1.8000000       -0.14135838    0.00000000
                                      P - F
                                                     0        0.0000010       -0.09353646    0.00000000
                                                     2        0.1200000        0.31768975    0.00000000
                                                     2        0.2000000       -0.71747951    0.00000000
                                                     2        0.4000000        0.65752308    0.00000000
                                                     2        1.7000000        2.94052587    0.00000000
                                      D - F
                                                     0        0.0000010       -0.04491202    0.00000000
                                                     2        0.1200000       -0.02862031    0.00000000
                                                     2        0.1800000       -0.21515263    0.00000000
                                                     2        0.3000000        0.80560647    0.00000000
                                                     2        0.4000000        0.47351754    0.00000000
                                                     2        0.7000000       -4.57051794    0.00000000
                                                     2        1.6000000       18.53737826    0.00000000
    9          1            1
                                      F and up 
                                                     0        0.0000010        0.00072061    0.00000000
                                                     2        0.1200000        0.03832357    0.00000000
                                                     2        0.1400000       -0.08683256    0.00000000
                                                     2        0.1800000        0.09312970    0.00000000
                                                     2        0.2800000       -0.02532572    0.00000000
                                                     2        0.4000000       -0.09430787    0.00000000
                                                     2        0.7000000        0.42710831    0.00000000
                                                     2        1.2000000       -2.11746981    0.00000000
                                      S - F
                                                     0        0.0000010        0.14449603    0.00000000
                                                     2        0.1200000       -0.56378993    0.00000000
                                                     2        0.1400000        0.63941249    0.00000000
                                                     2        0.2600000       -0.58461015    0.00000000
                                                     2        0.5000000        1.00157293    0.00000000
                                                     2        1.8000000       -0.14135838    0.00000000
                                      P - F
                                                     0        0.0000010       -0.09353646    0.00000000
                                                     2        0.1200000        0.31768975    0.00000000
                                                     2        0.2000000       -0.71747951    0.00000000
                                                     2        0.4000000        0.65752308    0.00000000
                                                     2        1.7000000        2.94052587    0.00000000
                                      D - F
                                                     0        0.0000010       -0.04491202    0.00000000
                                                     2        0.1200000       -0.02862031    0.00000000
                                                     2        0.1800000       -0.21515263    0.00000000
                                                     2        0.3000000        0.80560647    0.00000000
                                                     2        0.4000000        0.47351754    0.00000000
                                                     2        0.7000000       -4.57051794    0.00000000
                                                     2        1.6000000       18.53737826    0.00000000
   10          1            1
                                      F and up 
                                                     0        0.0000010        0.00072061    0.00000000
                                                     2        0.1200000        0.03832357    0.00000000
                                                     2        0.1400000       -0.08683256    0.00000000
                                                     2        0.1800000        0.09312970    0.00000000
                                                     2        0.2800000       -0.02532572    0.00000000
                                                     2        0.4000000       -0.09430787    0.00000000
                                                     2        0.7000000        0.42710831    0.00000000
                                                     2        1.2000000       -2.11746981    0.00000000
                                      S - F
                                                     0        0.0000010        0.14449603    0.00000000
                                                     2        0.1200000       -0.56378993    0.00000000
                                                     2        0.1400000        0.63941249    0.00000000
                                                     2        0.2600000       -0.58461015    0.00000000
                                                     2        0.5000000        1.00157293    0.00000000
                                                     2        1.8000000       -0.14135838    0.00000000
                                      P - F
                                                     0        0.0000010       -0.09353646    0.00000000
                                                     2        0.1200000        0.31768975    0.00000000
                                                     2        0.2000000       -0.71747951    0.00000000
                                                     2        0.4000000        0.65752308    0.00000000
                                                     2        1.7000000        2.94052587    0.00000000
                                      D - F
                                                     0        0.0000010       -0.04491202    0.00000000
                                                     2        0.1200000       -0.02862031    0.00000000
                                                     2        0.1800000       -0.21515263    0.00000000
                                                     2        0.3000000        0.80560647    0.00000000
                                                     2        0.4000000        0.47351754    0.00000000
                                                     2        0.7000000       -4.57051794    0.00000000
                                                     2        1.6000000       18.53737826    0.00000000
   11          1            1
                                      F and up 
                                                     0        0.0000010        0.00072061    0.00000000
                                                     2        0.1200000        0.03832357    0.00000000
                                                     2        0.1400000       -0.08683256    0.00000000
                                                     2        0.1800000        0.09312970    0.00000000
                                                     2        0.2800000       -0.02532572    0.00000000
                                                     2        0.4000000       -0.09430787    0.00000000
                                                     2        0.7000000        0.42710831    0.00000000
                                                     2        1.2000000       -2.11746981    0.00000000
                                      S - F
                                                     0        0.0000010        0.14449603    0.00000000
                                                     2        0.1200000       -0.56378993    0.00000000
                                                     2        0.1400000        0.63941249    0.00000000
                                                     2        0.2600000       -0.58461015    0.00000000
                                                     2        0.5000000        1.00157293    0.00000000
                                                     2        1.8000000       -0.14135838    0.00000000
                                      P - F
                                                     0        0.0000010       -0.09353646    0.00000000
                                                     2        0.1200000        0.31768975    0.00000000
                                                     2        0.2000000       -0.71747951    0.00000000
                                                     2        0.4000000        0.65752308    0.00000000
                                                     2        1.7000000        2.94052587    0.00000000
                                      D - F
                                                     0        0.0000010       -0.04491202    0.00000000
                                                     2        0.1200000       -0.02862031    0.00000000
                                                     2        0.1800000       -0.21515263    0.00000000
                                                     2        0.3000000        0.80560647    0.00000000
                                                     2        0.4000000        0.47351754    0.00000000
                                                     2        0.7000000       -4.57051794    0.00000000
                                                     2        1.6000000       18.53737826    0.00000000
   12          1            1
                                      F and up 
                                                     0        0.0000010        0.00072061    0.00000000
                                                     2        0.1200000        0.03832357    0.00000000
                                                     2        0.1400000       -0.08683256    0.00000000
                                                     2        0.1800000        0.09312970    0.00000000
                                                     2        0.2800000       -0.02532572    0.00000000
                                                     2        0.4000000       -0.09430787    0.00000000
                                                     2        0.7000000        0.42710831    0.00000000
                                                     2        1.2000000       -2.11746981    0.00000000
                                      S - F
                                                     0        0.0000010        0.14449603    0.00000000
                                                     2        0.1200000       -0.56378993    0.00000000
                                                     2        0.1400000        0.63941249    0.00000000
                                                     2        0.2600000       -0.58461015    0.00000000
                                                     2        0.5000000        1.00157293    0.00000000
                                                     2        1.8000000       -0.14135838    0.00000000
                                      P - F
                                                     0        0.0000010       -0.09353646    0.00000000
                                                     2        0.1200000        0.31768975    0.00000000
                                                     2        0.2000000       -0.71747951    0.00000000
                                                     2        0.4000000        0.65752308    0.00000000
                                                     2        1.7000000        2.94052587    0.00000000
                                      D - F
                                                     0        0.0000010       -0.04491202    0.00000000
                                                     2        0.1200000       -0.02862031    0.00000000
                                                     2        0.1800000       -0.21515263    0.00000000
                                                     2        0.3000000        0.80560647    0.00000000
                                                     2        0.4000000        0.47351754    0.00000000
                                                     2        0.7000000       -4.57051794    0.00000000
                                                     2        1.6000000       18.53737826    0.00000000
   13          1            1
                                      F and up 
                                                     0        0.0000010        0.00072061    0.00000000
                                                     2        0.1200000        0.03832357    0.00000000
                                                     2        0.1400000       -0.08683256    0.00000000
                                                     2        0.1800000        0.09312970    0.00000000
                                                     2        0.2800000       -0.02532572    0.00000000
                                                     2        0.4000000       -0.09430787    0.00000000
                                                     2        0.7000000        0.42710831    0.00000000
                                                     2        1.2000000       -2.11746981    0.00000000
                                      S - F
                                                     0        0.0000010        0.14449603    0.00000000
                                                     2        0.1200000       -0.56378993    0.00000000
                                                     2        0.1400000        0.63941249    0.00000000
                                                     2        0.2600000       -0.58461015    0.00000000
                                                     2        0.5000000        1.00157293    0.00000000
                                                     2        1.8000000       -0.14135838    0.00000000
                                      P - F
                                                     0        0.0000010       -0.09353646    0.00000000
                                                     2        0.1200000        0.31768975    0.00000000
                                                     2        0.2000000       -0.71747951    0.00000000
                                                     2        0.4000000        0.65752308    0.00000000
                                                     2        1.7000000        2.94052587    0.00000000
                                      D - F
                                                     0        0.0000010       -0.04491202    0.00000000
                                                     2        0.1200000       -0.02862031    0.00000000
                                                     2        0.1800000       -0.21515263    0.00000000
                                                     2        0.3000000        0.80560647    0.00000000
                                                     2        0.4000000        0.47351754    0.00000000
                                                     2        0.7000000       -4.57051794    0.00000000
                                                     2        1.6000000       18.53737826    0.00000000
   14          1            1
                                      F and up 
                                                     0        0.0000010        0.00072061    0.00000000
                                                     2        0.1200000        0.03832357    0.00000000
                                                     2        0.1400000       -0.08683256    0.00000000
                                                     2        0.1800000        0.09312970    0.00000000
                                                     2        0.2800000       -0.02532572    0.00000000
                                                     2        0.4000000       -0.09430787    0.00000000
                                                     2        0.7000000        0.42710831    0.00000000
                                                     2        1.2000000       -2.11746981    0.00000000
                                      S - F
                                                     0        0.0000010        0.14449603    0.00000000
                                                     2        0.1200000       -0.56378993    0.00000000
                                                     2        0.1400000        0.63941249    0.00000000
                                                     2        0.2600000       -0.58461015    0.00000000
                                                     2        0.5000000        1.00157293    0.00000000
                                                     2        1.8000000       -0.14135838    0.00000000
                                      P - F
                                                     0        0.0000010       -0.09353646    0.00000000
                                                     2        0.1200000        0.31768975    0.00000000
                                                     2        0.2000000       -0.71747951    0.00000000
                                                     2        0.4000000        0.65752308    0.00000000
                                                     2        1.7000000        2.94052587    0.00000000
                                      D - F
                                                     0        0.0000010       -0.04491202    0.00000000
                                                     2        0.1200000       -0.02862031    0.00000000
                                                     2        0.1800000       -0.21515263    0.00000000
                                                     2        0.3000000        0.80560647    0.00000000
                                                     2        0.4000000        0.47351754    0.00000000
                                                     2        0.7000000       -4.57051794    0.00000000
                                                     2        1.6000000       18.53737826    0.00000000
   15          1            1
                                      F and up 
                                                     0        0.0000010        0.00072061    0.00000000
                                                     2        0.1200000        0.03832357    0.00000000
                                                     2        0.1400000       -0.08683256    0.00000000
                                                     2        0.1800000        0.09312970    0.00000000
                                                     2        0.2800000       -0.02532572    0.00000000
                                                     2        0.4000000       -0.09430787    0.00000000
                                                     2        0.7000000        0.42710831    0.00000000
                                                     2        1.2000000       -2.11746981    0.00000000
                                      S - F
                                                     0        0.0000010        0.14449603    0.00000000
                                                     2        0.1200000       -0.56378993    0.00000000
                                                     2        0.1400000        0.63941249    0.00000000
                                                     2        0.2600000       -0.58461015    0.00000000
                                                     2        0.5000000        1.00157293    0.00000000
                                                     2        1.8000000       -0.14135838    0.00000000
                                      P - F
                                                     0        0.0000010       -0.09353646    0.00000000
                                                     2        0.1200000        0.31768975    0.00000000
                                                     2        0.2000000       -0.71747951    0.00000000
                                                     2        0.4000000        0.65752308    0.00000000
                                                     2        1.7000000        2.94052587    0.00000000
                                      D - F
                                                     0        0.0000010       -0.04491202    0.00000000
                                                     2        0.1200000       -0.02862031    0.00000000
                                                     2        0.1800000       -0.21515263    0.00000000
                                                     2        0.3000000        0.80560647    0.00000000
                                                     2        0.4000000        0.47351754    0.00000000
                                                     2        0.7000000       -4.57051794    0.00000000
                                                     2        1.6000000       18.53737826    0.00000000
   16          1            1
                                      F and up 
                                                     0        0.0000010        0.00072061    0.00000000
                                                     2        0.1200000        0.03832357    0.00000000
                                                     2        0.1400000       -0.08683256    0.00000000
                                                     2        0.1800000        0.09312970    0.00000000
                                                     2        0.2800000       -0.02532572    0.00000000
                                                     2        0.4000000       -0.09430787    0.00000000
                                                     2        0.7000000        0.42710831    0.00000000
                                                     2        1.2000000       -2.11746981    0.00000000
                                      S - F
                                                     0        0.0000010        0.14449603    0.00000000
                                                     2        0.1200000       -0.56378993    0.00000000
                                                     2        0.1400000        0.63941249    0.00000000
                                                     2        0.2600000       -0.58461015    0.00000000
                                                     2        0.5000000        1.00157293    0.00000000
                                                     2        1.8000000       -0.14135838    0.00000000
                                      P - F
                                                     0        0.0000010       -0.09353646    0.00000000
                                                     2        0.1200000        0.31768975    0.00000000
                                                     2        0.2000000       -0.71747951    0.00000000
                                                     2        0.4000000        0.65752308    0.00000000
                                                     2        1.7000000        2.94052587    0.00000000
                                      D - F
                                                     0        0.0000010       -0.04491202    0.00000000
                                                     2        0.1200000       -0.02862031    0.00000000
                                                     2        0.1800000       -0.21515263    0.00000000
                                                     2        0.3000000        0.80560647    0.00000000
                                                     2        0.4000000        0.47351754    0.00000000
                                                     2        0.7000000       -4.57051794    0.00000000
                                                     2        1.6000000       18.53737826    0.00000000
   17          1            1
                                      F and up 
                                                     0        0.0000010        0.00072061    0.00000000
                                                     2        0.1200000        0.03832357    0.00000000
                                                     2        0.1400000       -0.08683256    0.00000000
                                                     2        0.1800000        0.09312970    0.00000000
                                                     2        0.2800000       -0.02532572    0.00000000
                                                     2        0.4000000       -0.09430787    0.00000000
                                                     2        0.7000000        0.42710831    0.00000000
                                                     2        1.2000000       -2.11746981    0.00000000
                                      S - F
                                                     0        0.0000010        0.14449603    0.00000000
                                                     2        0.1200000       -0.56378993    0.00000000
                                                     2        0.1400000        0.63941249    0.00000000
                                                     2        0.2600000       -0.58461015    0.00000000
                                                     2        0.5000000        1.00157293    0.00000000
                                                     2        1.8000000       -0.14135838    0.00000000
                                      P - F
                                                     0        0.0000010       -0.09353646    0.00000000
                                                     2        0.1200000        0.31768975    0.00000000
                                                     2        0.2000000       -0.71747951    0.00000000
                                                     2        0.4000000        0.65752308    0.00000000
                                                     2        1.7000000        2.94052587    0.00000000
                                      D - F
                                                     0        0.0000010       -0.04491202    0.00000000
                                                     2        0.1200000       -0.02862031    0.00000000
                                                     2        0.1800000       -0.21515263    0.00000000
                                                     2        0.3000000        0.80560647    0.00000000
                                                     2        0.4000000        0.47351754    0.00000000
                                                     2        0.7000000       -4.57051794    0.00000000
                                                     2        1.6000000       18.53737826    0.00000000
 ======================================================================================================
   251 basis functions,   411 primitive gaussians,   265 cartesian basis functions
    27 alpha electrons       27 beta electrons
       nuclear repulsion energy       309.6338019284 Hartrees.
 NAtoms=   17 NActive=   17 NUniq=   11 SFac= 2.39D+00 NAtFMM=   60 NAOKFM=F Big=F
   2 Symmetry operations used in ECPInt.
 ECPInt:  NShTT=    6441 NPrTT=   27141 LenC2=    6438 LenP2D=   21991.
 LDataN:  DoStor=T MaxTD1= 6 Len=  172
 Initial guess from the checkpoint file:  "cyclohexanone.chk"
 B after Tr=     0.000000   -0.000000   -0.000000
         Rot=    1.000000    0.000000    0.000000   -0.000000 Ang=   0.00 deg.
 Initial guess orbital symmetries:
       Occupied  (A') (A') (A') (A") (A") (A') (A') (A') (A') (A")
                 (A') (A") (A') (A') (A') (A") (A') (A') (A") (A')
                 (A") (A") (A') (A") (A') (A') (A")
       Virtual   (A') (A") (A') (A') (A') (A") (A") (A') (A') (A")
                 (A') (A') (A') (A") (A") (A') (A') (A") (A') (A")
                 (A') (A') (A") (A') (A") (A') (A') (A") (A') (A")
                 (A') (A") (A') (A') (A") (A') (A') (A') (A") (A')
                 (A") (A') (A') (A") (A') (A") (A') (A") (A") (A')
                 (A') (A") (A') (A") (A') (A") (A') (A') (A') (A")
                 (A') (A") (A') (A") (A") (A') (A') (A") (A') (A")
                 (A') (A') (A") (A') (A") (A') (A') (A') (A") (A')
                 (A") (A') (A") (A") (A') (A") (A') (A') (A") (A')
                 (A") (A') (A') (A") (A') (A") (A') (A") (A') (A")
                 (A') (A") (A') (A') (A") (A") (A") (A') (A') (A")
                 (A') (A") (A") (A') (A') (A") (A') (A') (A") (A')
                 (A') (A') (A") (A') (A') (A") (A') (A") (A') (A")
                 (A') (A") (A') (A") (A") (A') (A") (A") (A') (A")
                 (A') (A') (A") (A') (A") (A') (A') (A") (A') (A')
                 (A") (A') (A") (A') (A') (A") (A') (A") (A') (A')
                 (A') (A") (A") (A') (A") (A') (A') (A") (A') (A")
                 (A') (A") (A') (A") (A') (A") (A") (A') (A') (A")
                 (A') (A") (A') (A") (A') (A") (A') (A") (A') (A')
                 (A') (A") (A") (A') (A") (A') (A") (A') (A") (A")
                 (A') (A") (A') (A') (A') (A") (A') (A") (A') (A")
                 (A') (A') (A") (A") (A') (A') (A') (A') (A") (A')
                 (A") (A') (A") (A')
 >>>>>>>>>> Convergence criterion not met.
 SCF Done:  E(RHF) =  -309.418517810     A.U. after    2 cycles
            NFock=  1  Conv=0.54D+00     -V/T= 2.0133

 **********************************************************************

            Population analysis using the SCF Density.

 **********************************************************************

 Orbital symmetries:
       Occupied  (A') (A') (A") (A') (A') (A") (A') (A') (A') (A")
                 (A') (A") (A') (A') (A') (A") (A') (A') (A") (A")
                 (A') (A") (A') (A') (A") (A') (A")
       Virtual   (A') (A') (A") (A") (A') (A') (A") (A') (A') (A")
                 (A') (A') (A') (A") (A") (A') (A') (A") (A') (A")
                 (A') (A") (A") (A') (A') (A') (A') (A") (A') (A")
                 (A') (A") (A') (A') (A") (A') (A') (A') (A") (A')
                 (A") (A') (A') (A') (A") (A") (A') (A") (A') (A")
                 (A') (A") (A') (A") (A') (A') (A") (A') (A") (A')
                 (A') (A") (A') (A") (A") (A') (A") (A') (A") (A')
                 (A') (A') (A") (A') (A') (A") (A') (A') (A") (A')
                 (A") (A') (A") (A') (A") (A') (A") (A") (A') (A')
                 (A") (A') (A') (A") (A") (A') (A') (A") (A') (A')
                 (A") (A") (A') (A") (A') (A") (A") (A') (A") (A')
                 (A') (A") (A") (A') (A') (A") (A') (A') (A') (A")
                 (A') (A') (A") (A') (A") (A') (A") (A') (A') (A")
                 (A") (A') (A') (A") (A") (A") (A") (A') (A') (A')
                 (A") (A') (A") (A') (A") (A') (A') (A") (A') (A")
                 (A') (A') (A") (A") (A') (A') (A') (A') (A") (A')
                 (A") (A") (A') (A') (A") (A') (A") (A") (A') (A')
                 (A") (A') (A") (A') (A") (A') (A') (A") (A') (A')
                 (A") (A") (A') (A") (A') (A') (A") (A') (A") (A')
                 (A") (A") (A') (A") (A') (A") (A') (A") (A') (A")
                 (A') (A") (A') (A") (A') (A') (A') (A") (A') (A")
                 (A') (A') (A') (A") (A") (A") (A') (A') (A') (A')
                 (A') (A") (A") (A')
 The electronic state is 1-A'.
 Alpha  occ. eigenvalues --  -21.04381 -11.48897 -11.44053 -11.43540 -11.39832
 Alpha  occ. eigenvalues --  -11.38495 -11.35699  -1.69964  -1.30359  -1.12411
 Alpha  occ. eigenvalues --   -1.07028  -0.91018  -0.84984  -0.74423  -0.65582
 Alpha  occ. eigenvalues --   -0.63588  -0.61820  -0.59509  -0.54803  -0.54302
 Alpha  occ. eigenvalues --   -0.50579  -0.48600  -0.47126  -0.42954  -0.42671
 Alpha  occ. eigenvalues --   -0.38831  -0.26825
 Alpha virt. eigenvalues --    0.03649   0.04966   0.05014   0.05235   0.05242
 Alpha virt. eigenvalues --    0.05637   0.06711   0.06954   0.07528   0.08772
 Alpha virt. eigenvalues --    0.10854   0.12503   0.13070   0.13497   0.13890
 Alpha virt. eigenvalues --    0.13914   0.14697   0.15241   0.15531   0.16593
 Alpha virt. eigenvalues --    0.17707   0.18157   0.18268   0.18336   0.18617
 Alpha virt. eigenvalues --    0.19321   0.19394   0.19874   0.20281   0.21751
 Alpha virt. eigenvalues --    0.22336   0.23682   0.24061   0.24688   0.26150
 Alpha virt. eigenvalues --    0.29719   0.31485   0.33537   0.34032   0.35095
 Alpha virt. eigenvalues --    0.35461   0.36692   0.37085   0.37759   0.37998
 Alpha virt. eigenvalues --    0.38484   0.39344   0.41403   0.41969   0.42073
 Alpha virt. eigenvalues --    0.42851   0.43750   0.46197   0.46370   0.46520
 Alpha virt. eigenvalues --    0.47101   0.47435   0.48137   0.49328   0.49685
 Alpha virt. eigenvalues --    0.49729   0.50718   0.50906   0.51008   0.53060
 Alpha virt. eigenvalues --    0.53568   0.56675   0.57714   0.58456   0.58922
 Alpha virt. eigenvalues --    0.59703   0.60225   0.60952   0.61746   0.62924
 Alpha virt. eigenvalues --    0.64381   0.64415   0.65764   0.65852   0.67808
 Alpha virt. eigenvalues --    0.69546   0.70423   0.71616   0.72279   0.73087
 Alpha virt. eigenvalues --    0.74613   0.74872   0.76482   0.76718   0.77824
 Alpha virt. eigenvalues --    0.78343   0.80426   0.80935   0.82193   0.84480
 Alpha virt. eigenvalues --    0.84581   0.85372   0.86441   0.87001   0.88498
 Alpha virt. eigenvalues --    0.89206   0.90132   0.90412   0.91583   0.92521
 Alpha virt. eigenvalues --    0.93987   0.94669   0.96215   0.98487   0.99603
 Alpha virt. eigenvalues --    1.00293   1.02457   1.05206   1.05583   1.08441
 Alpha virt. eigenvalues --    1.09280   1.14951   1.18054   1.23759   1.25071
 Alpha virt. eigenvalues --    1.26891   1.29366   1.32361   1.35754   1.35866
 Alpha virt. eigenvalues --    1.38882   1.43302   1.46079   1.48774   1.51261
 Alpha virt. eigenvalues --    1.52793   1.53936   1.60131   1.64700   1.65318
 Alpha virt. eigenvalues --    1.70815   1.71378   1.71493   1.74614   1.77750
 Alpha virt. eigenvalues --    1.78488   1.82066   1.83820   1.87811   1.88335
 Alpha virt. eigenvalues --    1.89601   1.94590   1.96459   1.99317   2.02494
 Alpha virt. eigenvalues --    2.05490   2.08295   2.09169   2.10710   2.11002
 Alpha virt. eigenvalues --    2.13665   2.14743   2.17657   2.18829   2.21472
 Alpha virt. eigenvalues --    2.21666   2.22563   2.26190   2.30354   2.30618
 Alpha virt. eigenvalues --    2.31765   2.33877   2.35561   2.35798   2.38150
 Alpha virt. eigenvalues --    2.43455   2.46804   2.49557   2.49912   2.52201
 Alpha virt. eigenvalues --    2.53430   2.59808   2.60306   2.64739   2.67150
 Alpha virt. eigenvalues --    2.67734   2.69486   2.75609   2.77244   2.77368
 Alpha virt. eigenvalues --    2.81074   2.81505   2.84091   2.86048   2.86918
 Alpha virt. eigenvalues --    2.87913   2.93709   2.93880   2.96814   3.00233
 Alpha virt. eigenvalues --    3.01898   3.06091   3.09283   3.09516   3.12214
 Alpha virt. eigenvalues --    3.15386   3.17762   3.22257   3.24241   3.24900
 Alpha virt. eigenvalues --    3.27777   3.41085   3.50373   3.51898   3.53377
 Alpha virt. eigenvalues --    3.56433   3.73237   3.79528   3.79889   3.84005
 Alpha virt. eigenvalues --    3.89326   3.90619   3.91563   4.00068   6.09153
 Alpha virt. eigenvalues --    6.12284   6.13241   6.23294   6.48303
          Condensed to atoms (all electrons):
 Mulliken charges:
               1
     1  C    5.154887
     2  C   -3.472938
     3  C   -3.472938
     4  C   -2.890949
     5  C   -2.890949
     6  C   -2.473601
     7  O   -3.580597
     8  H    1.370722
     9  H    1.371819
    10  H    1.371819
    11  H    1.370722
    12  H    1.301004
    13  H    1.429267
    14  H    1.429267
    15  H    1.301004
    16  H    1.420112
    17  H    1.261351
 Sum of Mulliken charges =   0.00000
 Mulliken charges with hydrogens summed into heavy atoms:
               1
     1  C    5.154887
     2  C   -0.730397
     3  C   -0.730397
     4  C   -0.160679
     5  C   -0.160679
     6  C    0.207862
     7  O   -3.580597
 Electronic spatial extent (au):  <R**2>=            768.4836
 Charge=              0.0000 electrons
 Dipole moment (field-independent basis, Debye):
    X=              1.1964    Y=             -1.6148    Z=             -0.0000  Tot=              2.0097

 Test job not archived.
 1\1\GINC-SE398\SP\RHF\Aug-CC-pVDZ\C6H10O1\OHZDE\06-Apr-2025\0\\#t hf a
 ug-cc-pvdz iop(5/13=1,5/36=2,99/5=2) pseudo=read geom=check guess=(rea
 d,tcheck) scf=(maxcycle=1)\\title\\0,1\C,0,-0.407739,1.083702,0.\C,0,0
 .155829,0.499472,1.282325\C,0,0.155829,0.499472,-1.282325\C,0,0.155829
 ,-1.039311,1.263183\C,0,0.155829,-1.039311,-1.263183\C,0,0.820538,-1.5
 90283,0.\O,0,-1.249483,1.95449,0.\H,0,1.188471,0.854961,1.375218\H,0,-
 0.408079,0.898882,2.123656\H,0,-0.408079,0.898882,-2.123656\H,0,1.1884
 71,0.854961,-1.375218\H,0,0.657166,-1.415176,2.156695\H,0,-0.876952,-1
 .39618,1.31335\H,0,-0.876952,-1.39618,-1.31335\H,0,0.657166,-1.415176,
 -2.156695\H,0,1.882221,-1.322209,0.\H,0,0.77574,-2.681122,0.\\Version=
 ES64L-G16RevC.01\State=1-A'\HF=-309.4185178\RMSD=5.368e-01\Dipole=0.47
 06899,-0.6353277,0.\Quadrupole=0.3019291,-1.5988471,1.296918,2.42559,0
 .,0.\PG=CS [SG(C2H2O1),X(C4H8)]\\@


 AND THIS OUR LIFE, EXEMPT FROM PUBLIC HAUNT,
 FINDS TONGUES IN TREES, BOOKS IN THE RUNNING BROOKS,
 SERMONS IN STONES, AND GOOD IN EVERYTHING.
 I WOULD NOT CHANGE IT. -- W. SHAKESPEARE
 AS YOU LIKE IT, ACT II, SCENE 1.
 Job cpu time:       0 days  0 hours  0 minutes 43.5 seconds.
 Elapsed time:       0 days  0 hours  0 minutes  3.6 seconds.
 File lengths (MBytes):  RWF=     14 Int=      0 D2E=      0 Chk=      9 Scr=      1
 Normal termination of Gaussian 16 at Sun Apr  6 08:12:32 2025.
