 Entering Gaussian System, Link 0=g16
 Input=methoxyacetonitrile.gjf
 Output=methoxyacetonitrile.log
 Initial command:
 /arc/software/Gaussian/g16.c01/l1.exe "/tmp/slurm/4820353/Gau-3291023.inp" -scrdir="/tmp/slurm/4820353/"
 Entering Link 1 = /arc/software/Gaussian/g16.c01/l1.exe PID=   3291024.
  
 Copyright (c) 1988-2019, Gaussian, Inc.  All Rights Reserved.
  
 This is part of the Gaussian(R) 16 program.  It is based on
 the Gaussian(R) 09 system (copyright 2009, Gaussian, Inc.),
 the Gaussian(R) 03 system (copyright 2003, Gaussian, Inc.),
 the Gaussian(R) 98 system (copyright 1998, Gaussian, Inc.),
 the Gaussian(R) 94 system (copyright 1995, Gaussian, Inc.),
 the Gaussian 92(TM) system (copyright 1992, Gaussian, Inc.),
 the Gaussian 90(TM) system (copyright 1990, Gaussian, Inc.),
 the Gaussian 88(TM) system (copyright 1988, Gaussian, Inc.),
 the Gaussian 86(TM) system (copyright 1986, Carnegie Mellon
 University), and the Gaussian 82(TM) system (copyright 1983,
 Carnegie Mellon University). Gaussian is a federally registered
 trademark of Gaussian, Inc.
  
 This software contains proprietary and confidential information,
 including trade secrets, belonging to Gaussian, Inc.
  
 This software is provided under written license and may be
 used, copied, transmitted, or stored only in accord with that
 written license.
  
 The following legend is applicable only to US Government
 contracts under FAR:
  
                    RESTRICTED RIGHTS LEGEND
  
 Use, reproduction and disclosure by the US Government is
 subject to restrictions as set forth in subparagraphs (a)
 and (c) of the Commercial Computer Software - Restricted
 Rights clause in FAR 52.227-19.
  
 Gaussian, Inc.
 340 Quinnipiac St., Bldg. 40, Wallingford CT 06492
  
  
 ---------------------------------------------------------------
 Warning -- This program may not be used in any manner that
 competes with the business of Gaussian, Inc. or will provide
 assistance to any competitor of Gaussian, Inc.  The licensee
 of this program is prohibited from giving any competitor of
 Gaussian, Inc. access to this program.  By using this program,
 the user acknowledges that Gaussian, Inc. is engaged in the
 business of creating and licensing software in the field of
 computational chemistry and represents and warrants to the
 licensee that it is not a competitor of Gaussian, Inc. and that
 it will not use this program in any manner prohibited above.
 ---------------------------------------------------------------
  

 Cite this work as:
 Gaussian 16, Revision C.01,
 M. J. Frisch, G. W. Trucks, H. B. Schlegel, G. E. Scuseria, 
 M. A. Robb, J. R. Cheeseman, G. Scalmani, V. Barone, 
 G. A. Petersson, H. Nakatsuji, X. Li, M. Caricato, A. V. Marenich, 
 J. Bloino, B. G. Janesko, R. Gomperts, B. Mennucci, H. P. Hratchian, 
 J. V. Ortiz, A. F. Izmaylov, J. L. Sonnenberg, D. Williams-Young, 
 F. Ding, F. Lipparini, F. Egidi, J. Goings, B. Peng, A. Petrone, 
 T. Henderson, D. Ranasinghe, V. G. Zakrzewski, J. Gao, N. Rega, 
 G. Zheng, W. Liang, M. Hada, M. Ehara, K. Toyota, R. Fukuda, 
 J. Hasegawa, M. Ishida, T. Nakajima, Y. Honda, O. Kitao, H. Nakai, 
 T. Vreven, K. Throssell, J. A. Montgomery, Jr., J. E. Peralta, 
 F. Ogliaro, M. J. Bearpark, J. J. Heyd, E. N. Brothers, K. N. Kudin, 
 V. N. Staroverov, T. A. Keith, R. Kobayashi, J. Normand, 
 K. Raghavachari, A. P. Rendell, J. C. Burant, S. S. Iyengar, 
 J. Tomasi, M. Cossi, J. M. Millam, M. Klene, C. Adamo, R. Cammi, 
 J. W. Ochterski, R. L. Martin, K. Morokuma, O. Farkas, 
 J. B. Foresman, and D. J. Fox, Gaussian, Inc., Wallingford CT, 2019.
 
 ******************************************
 Gaussian 16:  ES64L-G16RevC.01  3-Jul-2019
                 6-Apr-2025 
 ******************************************
 %nprocs=16
 Will use up to   16 processors via shared memory.
 %mem=30GB
 %chk=methoxyacetonitrile.chk
 ----------------------------------------------------------------------
 #t hf aug-cc-pvdz symm=none int=(grid=ultrafine) guess=(read,tcheck) s
 table=(opt,rrhf)
 ----------------------------------------------------------------------
 -----
 title
 -----
 Symbolic Z-matrix:
 Charge =  0 Multiplicity = 1
 H                     2.59964  -1.3769    0. 
 H                     2.44613   0.15488   0.89187 
 H                     2.44613   0.15488  -0.89187 
 C                     2.13003  -0.39704   0. 
 O                     0.72828  -0.61673   0. 
 H                     0.23003   1.19493  -0.88583 
 H                     0.23003   1.19493   0.88583 
 C                     0.        0.58843   0. 
 N                    -2.56557   0.10047   0. 
 C                    -1.43324   0.29325   0. 
 
                    Distance matrix (angstroms):
                    1          2          3          4          5
     1  H    0.000000
     2  H    1.779144   0.000000
     3  H    1.779144   1.783740   0.000000
     4  C    1.086584   1.095432   1.095432   0.000000
     5  O    2.019860   2.083704   2.083704   1.418855   0.000000
     6  H    3.607499   3.025398   2.448029   2.632308   2.077271
     7  H    3.607499   2.448029   3.025398   2.632308   2.077271
     8  C    3.258936   2.639501   2.639501   2.346950   1.408125
     9  N    5.372334   5.090729   5.090729   4.721876   3.371027
    10  C    4.365028   3.982972   3.982972   3.629508   2.345255
                    6          7          8          9         10
     6  H    0.000000
     7  H    1.771666   0.000000
     8  C    1.097928   1.097928   0.000000
     9  N    3.130159   3.130159   2.611559   0.000000
    10  C    2.089060   2.089060   1.463317   1.148625   0.000000
 Symmetry turned off by external request.
 Rotational constants (GHZ):          29.8782496           2.4602283           2.3401057
   160 basis functions,   270 primitive gaussians,   170 cartesian basis functions
    19 alpha electrons       19 beta electrons
       nuclear repulsion energy       157.1825141968 Hartrees.
 NAtoms=   10 NActive=   10 NUniq=   10 SFac= 1.00D+00 NAtFMM=   60 NAOKFM=F Big=F
 ExpMin= 2.97D-02 ExpMax= 1.17D+04 ExpMxC= 4.01D+02 IAcc=3 IRadAn=         5 AccDes= 0.00D+00
 Harris functional with IExCor=  205 and IRadAn=       5 diagonalized for initial guess.
 HarFok:  IExCor=  205 AccDes= 0.00D+00 IRadAn=         5 IDoV= 1 UseB2=F ITyADJ=14
 ICtDFT=  3500011 ScaDFX=  1.000000  1.000000  1.000000  1.000000
 FoFCou: FMM=F IPFlag=           0 FMFlag=      100000 FMFlg1=           0
         NFxFlg=           0 DoJE=T BraDBF=F KetDBF=T FulRan=T
         wScrn=  0.000000 ICntrl=       500 IOpCl=  0 I1Cent=   200000004 NGrid=           0
         NMat0=    1 NMatS0=      1 NMatT0=    0 NMatD0=    1 NMtDS0=    0 NMtDT0=    0
 Symmetry not used in FoFCou.
 SCF Done:  E(RHF) =  -245.825974138     A.U. after   13 cycles
            NFock= 13  Conv=0.84D-08     -V/T= 2.0015

 **********************************************************************

            Population analysis using the SCF Density.

 **********************************************************************

 Alpha  occ. eigenvalues --  -20.60472 -15.58880 -11.35019 -11.30515 -11.28732
 Alpha  occ. eigenvalues --   -1.41797  -1.23158  -1.03959  -0.92870  -0.74105
 Alpha  occ. eigenvalues --   -0.70785  -0.68958  -0.60668  -0.60324  -0.55769
 Alpha  occ. eigenvalues --   -0.52376  -0.48174  -0.47668  -0.45248
 Alpha virt. eigenvalues --    0.02655   0.04338   0.04475   0.05663   0.07290
 Alpha virt. eigenvalues --    0.08902   0.09493   0.12212   0.12305   0.13557
 Alpha virt. eigenvalues --    0.14351   0.15254   0.15860   0.16390   0.17866
 Alpha virt. eigenvalues --    0.18232   0.18301   0.19113   0.22009   0.25119
 Alpha virt. eigenvalues --    0.26010   0.26755   0.26984   0.27900   0.29297
 Alpha virt. eigenvalues --    0.31413   0.32066   0.33476   0.35654   0.36185
 Alpha virt. eigenvalues --    0.37232   0.39333   0.39535   0.41683   0.43208
 Alpha virt. eigenvalues --    0.44228   0.44854   0.45035   0.45293   0.50141
 Alpha virt. eigenvalues --    0.50377   0.52115   0.52645   0.54124   0.54760
 Alpha virt. eigenvalues --    0.58390   0.58469   0.60866   0.61171   0.62094
 Alpha virt. eigenvalues --    0.62208   0.64298   0.64959   0.65875   0.69750
 Alpha virt. eigenvalues --    0.70061   0.72031   0.75091   0.75220   0.76297
 Alpha virt. eigenvalues --    0.76894   0.78919   0.82649   0.83127   0.88142
 Alpha virt. eigenvalues --    0.88275   0.92658   0.95293   0.98972   0.99487
 Alpha virt. eigenvalues --    1.02182   1.02784   1.06681   1.08430   1.09904
 Alpha virt. eigenvalues --    1.11773   1.14532   1.15208   1.16681   1.22888
 Alpha virt. eigenvalues --    1.23815   1.30743   1.35263   1.36183   1.43442
 Alpha virt. eigenvalues --    1.46561   1.47226   1.52385   1.58354   1.59368
 Alpha virt. eigenvalues --    1.66586   1.66909   1.72622   1.72981   1.73462
 Alpha virt. eigenvalues --    1.76629   1.78708   1.80123   1.83173   1.88373
 Alpha virt. eigenvalues --    1.88652   1.93609   1.96273   1.97604   2.07716
 Alpha virt. eigenvalues --    2.10797   2.14188   2.16890   2.18911   2.25085
 Alpha virt. eigenvalues --    2.25228   2.25901   2.30814   2.34655   2.35855
 Alpha virt. eigenvalues --    2.39975   2.49604   2.52195   2.54863   2.61052
 Alpha virt. eigenvalues --    2.63540   2.63890   2.65213   2.66984   2.71205
 Alpha virt. eigenvalues --    2.78735   2.83568   2.89782   2.95431   2.96656
 Alpha virt. eigenvalues --    3.08183   3.11721   3.12728   3.31301   3.43797
 Alpha virt. eigenvalues --    3.62418   3.77394   3.79378   3.91036   4.04749
 Alpha virt. eigenvalues --    4.10058
          Condensed to atoms (all electrons):
 Mulliken charges:
               1
     1  H   -0.236675
     2  H   -0.044686
     3  H   -0.044686
     4  C    0.771578
     5  O   -0.861168
     6  H   -0.027033
     7  H   -0.027033
     8  C    1.066696
     9  N   -0.296083
    10  C   -0.300910
 Sum of Mulliken charges =  -0.00000
 Mulliken charges with hydrogens summed into heavy atoms:
               1
     4  C    0.445531
     5  O   -0.861168
     8  C    1.012630
     9  N   -0.296083
    10  C   -0.300910
 Electronic spatial extent (au):  <R**2>=            512.1359
 Charge=             -0.0000 electrons
 Dipole moment (field-independent basis, Debye):
    X=              4.8742    Y=              1.8696    Z=             -0.0000  Tot=              5.2205
 NROrb=    160 NOA=    19 NOB=    19 NVA=   141 NVB=   141

 **** Warning!!: The largest alpha MO coefficient is  0.48584760D+02

    12 initial guesses have been made.
 Iteration     1 Dimension    12 NMult     0 NNew     12
 New state      1 was old state      3
 Iteration     2 Dimension    24 NMult    12 NNew     12
 New state      1 was old state      2
 Iteration     3 Dimension    27 NMult    24 NNew      3
 Iteration     4 Dimension    30 NMult    27 NNew      3
 Iteration     5 Dimension    33 NMult    30 NNew      3
 Iteration     6 Dimension    36 NMult    33 NNew      3
 ***********************************************************************
 Stability analysis using <AA,BB:AA,BB> singles matrix:
 ***********************************************************************
 Ground to excited state transition densities written to RWF  633

 Eigenvectors of the stability matrix:
 
 Excited state symmetry could not be determined.
 Eigenvector   1:      Singlet-?Sym  Eigenvalue= 0.2233462  <S**2>=0.000
      17 -> 26         0.10715
      17 -> 29        -0.17311
      17 -> 32         0.10433
      17 -> 37         0.22251
      18 -> 34        -0.35949
      18 -> 42         0.14575
      18 -> 44         0.11489
      19 -> 26        -0.10774
      19 -> 29         0.16394
      19 -> 32        -0.10095
      19 -> 37        -0.20014
 The wavefunction is stable under the perturbations considered.
 The wavefunction is already stable.

 **********************************************************************

            Population analysis using the SCF Density.

 **********************************************************************

 Alpha  occ. eigenvalues --  -20.60472 -15.58880 -11.35019 -11.30515 -11.28732
 Alpha  occ. eigenvalues --   -1.41797  -1.23158  -1.03959  -0.92870  -0.74105
 Alpha  occ. eigenvalues --   -0.70785  -0.68958  -0.60668  -0.60324  -0.55769
 Alpha  occ. eigenvalues --   -0.52376  -0.48174  -0.47668  -0.45248
 Alpha virt. eigenvalues --    0.02655   0.04338   0.04475   0.05663   0.07290
 Alpha virt. eigenvalues --    0.08902   0.09493   0.12212   0.12305   0.13557
 Alpha virt. eigenvalues --    0.14351   0.15254   0.15860   0.16390   0.17866
 Alpha virt. eigenvalues --    0.18232   0.18301   0.19113   0.22009   0.25119
 Alpha virt. eigenvalues --    0.26010   0.26755   0.26984   0.27900   0.29297
 Alpha virt. eigenvalues --    0.31413   0.32066   0.33476   0.35654   0.36185
 Alpha virt. eigenvalues --    0.37232   0.39333   0.39535   0.41683   0.43208
 Alpha virt. eigenvalues --    0.44228   0.44854   0.45035   0.45293   0.50141
 Alpha virt. eigenvalues --    0.50377   0.52115   0.52645   0.54124   0.54760
 Alpha virt. eigenvalues --    0.58390   0.58469   0.60866   0.61171   0.62094
 Alpha virt. eigenvalues --    0.62208   0.64298   0.64959   0.65875   0.69750
 Alpha virt. eigenvalues --    0.70061   0.72031   0.75091   0.75220   0.76297
 Alpha virt. eigenvalues --    0.76894   0.78919   0.82649   0.83127   0.88142
 Alpha virt. eigenvalues --    0.88275   0.92658   0.95293   0.98972   0.99487
 Alpha virt. eigenvalues --    1.02182   1.02784   1.06681   1.08430   1.09904
 Alpha virt. eigenvalues --    1.11773   1.14532   1.15208   1.16681   1.22888
 Alpha virt. eigenvalues --    1.23815   1.30743   1.35263   1.36183   1.43442
 Alpha virt. eigenvalues --    1.46561   1.47226   1.52385   1.58354   1.59368
 Alpha virt. eigenvalues --    1.66586   1.66909   1.72622   1.72981   1.73462
 Alpha virt. eigenvalues --    1.76629   1.78708   1.80123   1.83173   1.88373
 Alpha virt. eigenvalues --    1.88652   1.93609   1.96273   1.97604   2.07716
 Alpha virt. eigenvalues --    2.10797   2.14188   2.16890   2.18911   2.25085
 Alpha virt. eigenvalues --    2.25228   2.25901   2.30814   2.34655   2.35855
 Alpha virt. eigenvalues --    2.39975   2.49604   2.52195   2.54863   2.61052
 Alpha virt. eigenvalues --    2.63540   2.63890   2.65213   2.66984   2.71205
 Alpha virt. eigenvalues --    2.78735   2.83568   2.89782   2.95431   2.96656
 Alpha virt. eigenvalues --    3.08183   3.11721   3.12728   3.31301   3.43797
 Alpha virt. eigenvalues --    3.62418   3.77394   3.79378   3.91036   4.04749
 Alpha virt. eigenvalues --    4.10058
          Condensed to atoms (all electrons):
 Mulliken charges:
               1
     1  H   -0.236675
     2  H   -0.044686
     3  H   -0.044686
     4  C    0.771578
     5  O   -0.861168
     6  H   -0.027033
     7  H   -0.027033
     8  C    1.066696
     9  N   -0.296083
    10  C   -0.300910
 Sum of Mulliken charges =  -0.00000
 Mulliken charges with hydrogens summed into heavy atoms:
               1
     4  C    0.445531
     5  O   -0.861168
     8  C    1.012630
     9  N   -0.296083
    10  C   -0.300910
 Electronic spatial extent (au):  <R**2>=            512.1359
 Charge=             -0.0000 electrons
 Dipole moment (field-independent basis, Debye):
    X=              4.8742    Y=              1.8696    Z=             -0.0000  Tot=              5.2205
 Unable to Open any file for archive entry.
 1\1\GINC-SE108\Stability\RHF\Aug-CC-pVDZ\C3H5N1O1\OHZDE\06-Apr-2025\0\
 \#t hf aug-cc-pvdz symm=none int=(grid=ultrafine) guess=(read,tcheck) 
 stable=(opt,rrhf)\\title\\0,1\H,0,2.599637,-1.376904,0.\H,0,2.446132,0
 .154878,0.89187\H,0,2.446132,0.154878,-0.89187\C,0,2.130026,-0.397042,
 0.\O,0,0.728282,-0.616731,0.\H,0,0.23003,1.194926,-0.885833\H,0,0.2300
 3,1.194926,0.885833\C,0,0.,0.588434,0.\N,0,-2.565567,0.100471,0.\C,0,-
 1.433235,0.293249,0.\\Version=ES64L-G16RevC.01\HF=-245.8259741\RMSD=8.
 416e-09\Dipole=1.9176771,0.7355439,0.\Quadrupole=-3.8914799,1.8691135,
 2.0223664,-0.3338399,0.,0.\PG=Unknown\\@
 The archive entry for this job was punched.


 E PUR SI MUOVE    -- GALILEO GALILEI
 Job cpu time:       0 days  0 hours  0 minutes 51.5 seconds.
 Elapsed time:       0 days  0 hours  0 minutes  7.2 seconds.
 File lengths (MBytes):  RWF=    136 Int=      0 D2E=      0 Chk=      4 Scr=      1
 Normal termination of Gaussian 16 at Sun Apr  6 08:19:09 2025.
 Initial command:
 /arc/software/Gaussian/g16.c01/l1.exe "/tmp/slurm/4820353/Gau-3291023.inp" -scrdir="/tmp/slurm/4820353/"
 Entering Link 1 = /arc/software/Gaussian/g16.c01/l1.exe PID=   3291402.
  
 Copyright (c) 1988-2019, Gaussian, Inc.  All Rights Reserved.
  
 This is part of the Gaussian(R) 16 program.  It is based on
 the Gaussian(R) 09 system (copyright 2009, Gaussian, Inc.),
 the Gaussian(R) 03 system (copyright 2003, Gaussian, Inc.),
 the Gaussian(R) 98 system (copyright 1998, Gaussian, Inc.),
 the Gaussian(R) 94 system (copyright 1995, Gaussian, Inc.),
 the Gaussian 92(TM) system (copyright 1992, Gaussian, Inc.),
 the Gaussian 90(TM) system (copyright 1990, Gaussian, Inc.),
 the Gaussian 88(TM) system (copyright 1988, Gaussian, Inc.),
 the Gaussian 86(TM) system (copyright 1986, Carnegie Mellon
 University), and the Gaussian 82(TM) system (copyright 1983,
 Carnegie Mellon University). Gaussian is a federally registered
 trademark of Gaussian, Inc.
  
 This software contains proprietary and confidential information,
 including trade secrets, belonging to Gaussian, Inc.
  
 This software is provided under written license and may be
 used, copied, transmitted, or stored only in accord with that
 written license.
  
 The following legend is applicable only to US Government
 contracts under FAR:
  
                    RESTRICTED RIGHTS LEGEND
  
 Use, reproduction and disclosure by the US Government is
 subject to restrictions as set forth in subparagraphs (a)
 and (c) of the Commercial Computer Software - Restricted
 Rights clause in FAR 52.227-19.
  
 Gaussian, Inc.
 340 Quinnipiac St., Bldg. 40, Wallingford CT 06492
  
  
 ---------------------------------------------------------------
 Warning -- This program may not be used in any manner that
 competes with the business of Gaussian, Inc. or will provide
 assistance to any competitor of Gaussian, Inc.  The licensee
 of this program is prohibited from giving any competitor of
 Gaussian, Inc. access to this program.  By using this program,
 the user acknowledges that Gaussian, Inc. is engaged in the
 business of creating and licensing software in the field of
 computational chemistry and represents and warrants to the
 licensee that it is not a competitor of Gaussian, Inc. and that
 it will not use this program in any manner prohibited above.
 ---------------------------------------------------------------
  

 Cite this work as:
 Gaussian 16, Revision C.01,
 M. J. Frisch, G. W. Trucks, H. B. Schlegel, G. E. Scuseria, 
 M. A. Robb, J. R. Cheeseman, G. Scalmani, V. Barone, 
 G. A. Petersson, H. Nakatsuji, X. Li, M. Caricato, A. V. Marenich, 
 J. Bloino, B. G. Janesko, R. Gomperts, B. Mennucci, H. P. Hratchian, 
 J. V. Ortiz, A. F. Izmaylov, J. L. Sonnenberg, D. Williams-Young, 
 F. Ding, F. Lipparini, F. Egidi, J. Goings, B. Peng, A. Petrone, 
 T. Henderson, D. Ranasinghe, V. G. Zakrzewski, J. Gao, N. Rega, 
 G. Zheng, W. Liang, M. Hada, M. Ehara, K. Toyota, R. Fukuda, 
 J. Hasegawa, M. Ishida, T. Nakajima, Y. Honda, O. Kitao, H. Nakai, 
 T. Vreven, K. Throssell, J. A. Montgomery, Jr., J. E. Peralta, 
 F. Ogliaro, M. J. Bearpark, J. J. Heyd, E. N. Brothers, K. N. Kudin, 
 V. N. Staroverov, T. A. Keith, R. Kobayashi, J. Normand, 
 K. Raghavachari, A. P. Rendell, J. C. Burant, S. S. Iyengar, 
 J. Tomasi, M. Cossi, J. M. Millam, M. Klene, C. Adamo, R. Cammi, 
 J. W. Ochterski, R. L. Martin, K. Morokuma, O. Farkas, 
 J. B. Foresman, and D. J. Fox, Gaussian, Inc., Wallingford CT, 2019.
 
 ******************************************
 Gaussian 16:  ES64L-G16RevC.01  3-Jul-2019
                 6-Apr-2025 
 ******************************************
 %nprocs=16
 Will use up to   16 processors via shared memory.
 %mem=30GB
 %chk=methoxyacetonitrile.chk
 ----------------------------------------------------------------------
 #t hf aug-cc-pvdz iop(5/13=1,5/36=2,99/5=2) pseudo=read geom=check gue
 ss=(read,tcheck) scf=(maxcycle=1)
 ----------------------------------------------------------------------
 -----
 title
 -----
 Structure from the checkpoint file:  "methoxyacetonitrile.chk"
 Charge =  0 Multiplicity = 1
 Z-Matrix found in chk file.
 H,0,2.599637,-1.376904,0.
 H,0,2.446132,0.154878,0.89187
 H,0,2.446132,0.154878,-0.89187
 C,0,2.130026,-0.397042,0.
 O,0,0.728282,-0.616731,0.
 H,0,0.23003,1.194926,-0.885833
 H,0,0.23003,1.194926,0.885833
 C,0,0.,0.588434,0.
 N,0,-2.565567,0.100471,0.
 C,0,-1.433235,0.293249,0.
 Recover connectivity data from disk.
                    Distance matrix (angstroms):
                    1          2          3          4          5
     1  H    0.000000
     2  H    1.779144   0.000000
     3  H    1.779144   1.783740   0.000000
     4  C    1.086584   1.095432   1.095432   0.000000
     5  O    2.019860   2.083704   2.083704   1.418855   0.000000
     6  H    3.607499   3.025398   2.448029   2.632308   2.077271
     7  H    3.607499   2.448029   3.025398   2.632308   2.077271
     8  C    3.258936   2.639501   2.639501   2.346950   1.408125
     9  N    5.372334   5.090729   5.090729   4.721876   3.371027
    10  C    4.365028   3.982972   3.982972   3.629508   2.345255
                    6          7          8          9         10
     6  H    0.000000
     7  H    1.771666   0.000000
     8  C    1.097928   1.097928   0.000000
     9  N    3.130159   3.130159   2.611559   0.000000
    10  C    2.089060   2.089060   1.463317   1.148625   0.000000
 Framework group  CS[SG(C3HNO),X(H4)]
 Deg. of freedom    15
                         Standard orientation:                         
 ---------------------------------------------------------------------
 Center     Atomic      Atomic             Coordinates (Angstroms)
 Number     Number       Type             X           Y           Z
 ---------------------------------------------------------------------
      1          1           0        2.599638   -1.376903    0.000000
      2          1           0        2.446132    0.154879    0.891870
      3          1           0        2.446132    0.154879   -0.891870
      4          6           0        2.130026   -0.397041    0.000000
      5          8           0        0.728282   -0.616731    0.000000
      6          1           0        0.230030    1.194926   -0.885833
      7          1           0        0.230030    1.194926    0.885833
      8          6           0        0.000000    0.588434    0.000000
      9          7           0       -2.565567    0.100470    0.000000
     10          6           0       -1.433235    0.293249    0.000000
 ---------------------------------------------------------------------
 Rotational constants (GHZ):          29.8782496           2.4602283           2.3401057
 ======================================================================================================
                                       Pseudopotential Parameters
 ======================================================================================================
  Center     Atomic      Valence      Angular      Power
  Number     Number     Electrons     Momentum     of R      Exponent        Coefficient   SO-Coeffient
 ======================================================================================================
    1          1            1
                                      F and up 
                                                     0        0.0000010        0.00072061    0.00000000
                                                     2        0.1200000        0.03832357    0.00000000
                                                     2        0.1400000       -0.08683256    0.00000000
                                                     2        0.1800000        0.09312970    0.00000000
                                                     2        0.2800000       -0.02532572    0.00000000
                                                     2        0.4000000       -0.09430787    0.00000000
                                                     2        0.7000000        0.42710831    0.00000000
                                                     2        1.2000000       -2.11746981    0.00000000
                                      S - F
                                                     0        0.0000010        0.14449603    0.00000000
                                                     2        0.1200000       -0.56378993    0.00000000
                                                     2        0.1400000        0.63941249    0.00000000
                                                     2        0.2600000       -0.58461015    0.00000000
                                                     2        0.5000000        1.00157293    0.00000000
                                                     2        1.8000000       -0.14135838    0.00000000
                                      P - F
                                                     0        0.0000010       -0.09353646    0.00000000
                                                     2        0.1200000        0.31768975    0.00000000
                                                     2        0.2000000       -0.71747951    0.00000000
                                                     2        0.4000000        0.65752308    0.00000000
                                                     2        1.7000000        2.94052587    0.00000000
                                      D - F
                                                     0        0.0000010       -0.04491202    0.00000000
                                                     2        0.1200000       -0.02862031    0.00000000
                                                     2        0.1800000       -0.21515263    0.00000000
                                                     2        0.3000000        0.80560647    0.00000000
                                                     2        0.4000000        0.47351754    0.00000000
                                                     2        0.7000000       -4.57051794    0.00000000
                                                     2        1.6000000       18.53737826    0.00000000
    2          1            1
                                      F and up 
                                                     0        0.0000010        0.00072061    0.00000000
                                                     2        0.1200000        0.03832357    0.00000000
                                                     2        0.1400000       -0.08683256    0.00000000
                                                     2        0.1800000        0.09312970    0.00000000
                                                     2        0.2800000       -0.02532572    0.00000000
                                                     2        0.4000000       -0.09430787    0.00000000
                                                     2        0.7000000        0.42710831    0.00000000
                                                     2        1.2000000       -2.11746981    0.00000000
                                      S - F
                                                     0        0.0000010        0.14449603    0.00000000
                                                     2        0.1200000       -0.56378993    0.00000000
                                                     2        0.1400000        0.63941249    0.00000000
                                                     2        0.2600000       -0.58461015    0.00000000
                                                     2        0.5000000        1.00157293    0.00000000
                                                     2        1.8000000       -0.14135838    0.00000000
                                      P - F
                                                     0        0.0000010       -0.09353646    0.00000000
                                                     2        0.1200000        0.31768975    0.00000000
                                                     2        0.2000000       -0.71747951    0.00000000
                                                     2        0.4000000        0.65752308    0.00000000
                                                     2        1.7000000        2.94052587    0.00000000
                                      D - F
                                                     0        0.0000010       -0.04491202    0.00000000
                                                     2        0.1200000       -0.02862031    0.00000000
                                                     2        0.1800000       -0.21515263    0.00000000
                                                     2        0.3000000        0.80560647    0.00000000
                                                     2        0.4000000        0.47351754    0.00000000
                                                     2        0.7000000       -4.57051794    0.00000000
                                                     2        1.6000000       18.53737826    0.00000000
    3          1            1
                                      F and up 
                                                     0        0.0000010        0.00072061    0.00000000
                                                     2        0.1200000        0.03832357    0.00000000
                                                     2        0.1400000       -0.08683256    0.00000000
                                                     2        0.1800000        0.09312970    0.00000000
                                                     2        0.2800000       -0.02532572    0.00000000
                                                     2        0.4000000       -0.09430787    0.00000000
                                                     2        0.7000000        0.42710831    0.00000000
                                                     2        1.2000000       -2.11746981    0.00000000
                                      S - F
                                                     0        0.0000010        0.14449603    0.00000000
                                                     2        0.1200000       -0.56378993    0.00000000
                                                     2        0.1400000        0.63941249    0.00000000
                                                     2        0.2600000       -0.58461015    0.00000000
                                                     2        0.5000000        1.00157293    0.00000000
                                                     2        1.8000000       -0.14135838    0.00000000
                                      P - F
                                                     0        0.0000010       -0.09353646    0.00000000
                                                     2        0.1200000        0.31768975    0.00000000
                                                     2        0.2000000       -0.71747951    0.00000000
                                                     2        0.4000000        0.65752308    0.00000000
                                                     2        1.7000000        2.94052587    0.00000000
                                      D - F
                                                     0        0.0000010       -0.04491202    0.00000000
                                                     2        0.1200000       -0.02862031    0.00000000
                                                     2        0.1800000       -0.21515263    0.00000000
                                                     2        0.3000000        0.80560647    0.00000000
                                                     2        0.4000000        0.47351754    0.00000000
                                                     2        0.7000000       -4.57051794    0.00000000
                                                     2        1.6000000       18.53737826    0.00000000
    4          6            6
                                      G and up 
                                                     0        0.0000010       -0.00286759    0.00000000
                                                     2        0.1200000        0.03193960    0.00000000
                                                     2        0.1600000       -0.04027782    0.00000000
                                                     2        0.2600000        0.24782456    0.00000000
                                                     2        0.4000000       -0.62266671    0.00000000
                                                     2        0.7000000        0.35695227    0.00000000
                                      S - G
                                                     0        0.0000010       -0.06602313    0.00000000
                                                     2        0.1200000        1.47277455    0.00000000
                                                     2        0.1600000       -4.06924166    0.00000000
                                                     2        0.3000000        5.02952802    0.00000000
                                                     2        0.7000000       -5.65856978    0.00000000
                                                     2        1.7000000        8.57604414    0.00000000
                                      P - G
                                                     0        0.0000010        0.49434425    0.00000000
                                                     2        0.1200000       -1.37391547    0.00000000
                                                     2        0.1600000        3.65411806    0.00000000
                                                     2        0.2800000       -7.36479843    0.00000000
                                                     2        0.6000000       17.22091285    0.00000000
                                                     2        1.1000000      -23.50107827    0.00000000
                                                     2        3.0000000       16.29464063    0.00000000
                                      D - G
                                                     0        0.0000010       -0.28693103    0.00000000
                                                     2        0.1200000        0.12273044    0.00000000
                                                     2        0.3000000       -0.43416384    0.00000000
                                                     2        0.7000000        2.23358493    0.00000000
                                      F - G
                                                     0        0.0000010        0.07263570    0.00000000
                                                     2        0.1400000       -0.76152861    0.00000000
                                                     2        0.2200000        1.98045593    0.00000000
                                                     2        0.4000000       -2.42426427    0.00000000
                                                     2        0.7000000        0.52335237    0.00000000
    5          8            8
                                      G and up 
                                                     0        0.0000010       -0.00165251    0.00000000
                                                     2        0.1200000       -0.10937202    0.00000000
                                                     2        0.1400000        0.35668905    0.00000000
                                                     2        0.1800000       -0.51696033    0.00000000
                                                     2        0.2400000        0.52446472    0.00000000
                                                     2        0.4000000       -0.07754493    0.00000000
                                                     2        0.8000000       -1.90560988    0.00000000
                                                     2        1.7000000        0.19857963    0.00000000
                                      S - G
                                                     0        0.0000010       -0.03845181    0.00000000
                                                     2        0.1400000        0.42024558    0.00000000
                                                     2        0.4000000       -4.10467779    0.00000000
                                                     2        1.3000000        9.99571838    0.00000000
                                      P - G
                                                     0        0.0000010        0.33206183    0.00000000
                                                     2        0.1200000       -0.18708141    0.00000000
                                                     2        0.2800000       -0.18179081    0.00000000
                                                     2        0.7000000        1.18820394    0.00000000
                                      D - G
                                                     0        0.0000010       -0.57891674    0.00000000
                                                     2        0.1200000        0.60487490    0.00000000
                                                     2        0.2400000       -0.24931464    0.00000000
                                                     2        0.3000000       -2.75054612    0.00000000
                                                     2        1.0000000       15.96776040    0.00000000
                                      F - G
                                                     0        0.0000010        0.37449041    0.00000000
                                                     2        0.1200000       -0.63373642    0.00000000
                                                     2        0.1400000       -0.08412804    0.00000000
                                                     2        0.2800000        2.62321406    0.00000000
                                                     2        0.6000000       -2.68223623    0.00000000
    6          1            1
                                      F and up 
                                                     0        0.0000010        0.00072061    0.00000000
                                                     2        0.1200000        0.03832357    0.00000000
                                                     2        0.1400000       -0.08683256    0.00000000
                                                     2        0.1800000        0.09312970    0.00000000
                                                     2        0.2800000       -0.02532572    0.00000000
                                                     2        0.4000000       -0.09430787    0.00000000
                                                     2        0.7000000        0.42710831    0.00000000
                                                     2        1.2000000       -2.11746981    0.00000000
                                      S - F
                                                     0        0.0000010        0.14449603    0.00000000
                                                     2        0.1200000       -0.56378993    0.00000000
                                                     2        0.1400000        0.63941249    0.00000000
                                                     2        0.2600000       -0.58461015    0.00000000
                                                     2        0.5000000        1.00157293    0.00000000
                                                     2        1.8000000       -0.14135838    0.00000000
                                      P - F
                                                     0        0.0000010       -0.09353646    0.00000000
                                                     2        0.1200000        0.31768975    0.00000000
                                                     2        0.2000000       -0.71747951    0.00000000
                                                     2        0.4000000        0.65752308    0.00000000
                                                     2        1.7000000        2.94052587    0.00000000
                                      D - F
                                                     0        0.0000010       -0.04491202    0.00000000
                                                     2        0.1200000       -0.02862031    0.00000000
                                                     2        0.1800000       -0.21515263    0.00000000
                                                     2        0.3000000        0.80560647    0.00000000
                                                     2        0.4000000        0.47351754    0.00000000
                                                     2        0.7000000       -4.57051794    0.00000000
                                                     2        1.6000000       18.53737826    0.00000000
    7          1            1
                                      F and up 
                                                     0        0.0000010        0.00072061    0.00000000
                                                     2        0.1200000        0.03832357    0.00000000
                                                     2        0.1400000       -0.08683256    0.00000000
                                                     2        0.1800000        0.09312970    0.00000000
                                                     2        0.2800000       -0.02532572    0.00000000
                                                     2        0.4000000       -0.09430787    0.00000000
                                                     2        0.7000000        0.42710831    0.00000000
                                                     2        1.2000000       -2.11746981    0.00000000
                                      S - F
                                                     0        0.0000010        0.14449603    0.00000000
                                                     2        0.1200000       -0.56378993    0.00000000
                                                     2        0.1400000        0.63941249    0.00000000
                                                     2        0.2600000       -0.58461015    0.00000000
                                                     2        0.5000000        1.00157293    0.00000000
                                                     2        1.8000000       -0.14135838    0.00000000
                                      P - F
                                                     0        0.0000010       -0.09353646    0.00000000
                                                     2        0.1200000        0.31768975    0.00000000
                                                     2        0.2000000       -0.71747951    0.00000000
                                                     2        0.4000000        0.65752308    0.00000000
                                                     2        1.7000000        2.94052587    0.00000000
                                      D - F
                                                     0        0.0000010       -0.04491202    0.00000000
                                                     2        0.1200000       -0.02862031    0.00000000
                                                     2        0.1800000       -0.21515263    0.00000000
                                                     2        0.3000000        0.80560647    0.00000000
                                                     2        0.4000000        0.47351754    0.00000000
                                                     2        0.7000000       -4.57051794    0.00000000
                                                     2        1.6000000       18.53737826    0.00000000
    8          6            6
                                      G and up 
                                                     0        0.0000010       -0.00286759    0.00000000
                                                     2        0.1200000        0.03193960    0.00000000
                                                     2        0.1600000       -0.04027782    0.00000000
                                                     2        0.2600000        0.24782456    0.00000000
                                                     2        0.4000000       -0.62266671    0.00000000
                                                     2        0.7000000        0.35695227    0.00000000
                                      S - G
                                                     0        0.0000010       -0.06602313    0.00000000
                                                     2        0.1200000        1.47277455    0.00000000
                                                     2        0.1600000       -4.06924166    0.00000000
                                                     2        0.3000000        5.02952802    0.00000000
                                                     2        0.7000000       -5.65856978    0.00000000
                                                     2        1.7000000        8.57604414    0.00000000
                                      P - G
                                                     0        0.0000010        0.49434425    0.00000000
                                                     2        0.1200000       -1.37391547    0.00000000
                                                     2        0.1600000        3.65411806    0.00000000
                                                     2        0.2800000       -7.36479843    0.00000000
                                                     2        0.6000000       17.22091285    0.00000000
                                                     2        1.1000000      -23.50107827    0.00000000
                                                     2        3.0000000       16.29464063    0.00000000
                                      D - G
                                                     0        0.0000010       -0.28693103    0.00000000
                                                     2        0.1200000        0.12273044    0.00000000
                                                     2        0.3000000       -0.43416384    0.00000000
                                                     2        0.7000000        2.23358493    0.00000000
                                      F - G
                                                     0        0.0000010        0.07263570    0.00000000
                                                     2        0.1400000       -0.76152861    0.00000000
                                                     2        0.2200000        1.98045593    0.00000000
                                                     2        0.4000000       -2.42426427    0.00000000
                                                     2        0.7000000        0.52335237    0.00000000
    9          7            7
                                      G and up 
                                                     0        0.0000010        0.00420138    0.00000000
                                                     2        0.1200000        0.05872431    0.00000000
                                                     2        0.1400000       -0.08436978    0.00000000
                                                     2        0.2000000        0.05409159    0.00000000
                                                     2        0.2600000        0.14199713    0.00000000
                                                     2        0.6000000       -0.79062770    0.00000000
                                                     2        0.7000000       -0.14441060    0.00000000
                                                     2        1.5000000        0.73772979    0.00000000
                                      S - G
                                                     0        0.0000010       -0.03094411    0.00000000
                                                     2        0.1200000        0.65332522    0.00000000
                                                     2        0.1800000       -1.38149133    0.00000000
                                                     2        1.3000000        3.29267299    0.00000000
                                      P - G
                                                     0        0.0000010        0.07303105    0.00000000
                                                     2        0.1200000        0.23145115    0.00000000
                                                     2        0.2000000       -1.20679699    0.00000000
                                                     2        0.4000000        1.75088447    0.00000000
                                                     2        1.2000000       -0.67486559    0.00000000
                                      D - G
                                                     0        0.0000010        0.07560739    0.00000000
                                                     2        0.3000000       -0.68679114    0.00000000
                                                     2        0.9000000        3.60133241    0.00000000
                                      F - G
                                                     0        0.0000010       -0.18221184    0.00000000
                                                     2        0.1200000       -0.39369067    0.00000000
                                                     2        0.1800000        0.72091725    0.00000000
                                                     2        0.6000000        0.15946111    0.00000000
   10          6            6
                                      G and up 
                                                     0        0.0000010       -0.00286759    0.00000000
                                                     2        0.1200000        0.03193960    0.00000000
                                                     2        0.1600000       -0.04027782    0.00000000
                                                     2        0.2600000        0.24782456    0.00000000
                                                     2        0.4000000       -0.62266671    0.00000000
                                                     2        0.7000000        0.35695227    0.00000000
                                      S - G
                                                     0        0.0000010       -0.06602313    0.00000000
                                                     2        0.1200000        1.47277455    0.00000000
                                                     2        0.1600000       -4.06924166    0.00000000
                                                     2        0.3000000        5.02952802    0.00000000
                                                     2        0.7000000       -5.65856978    0.00000000
                                                     2        1.7000000        8.57604414    0.00000000
                                      P - G
                                                     0        0.0000010        0.49434425    0.00000000
                                                     2        0.1200000       -1.37391547    0.00000000
                                                     2        0.1600000        3.65411806    0.00000000
                                                     2        0.2800000       -7.36479843    0.00000000
                                                     2        0.6000000       17.22091285    0.00000000
                                                     2        1.1000000      -23.50107827    0.00000000
                                                     2        3.0000000       16.29464063    0.00000000
                                      D - G
                                                     0        0.0000010       -0.28693103    0.00000000
                                                     2        0.1200000        0.12273044    0.00000000
                                                     2        0.3000000       -0.43416384    0.00000000
                                                     2        0.7000000        2.23358493    0.00000000
                                      F - G
                                                     0        0.0000010        0.07263570    0.00000000
                                                     2        0.1400000       -0.76152861    0.00000000
                                                     2        0.2200000        1.98045593    0.00000000
                                                     2        0.4000000       -2.42426427    0.00000000
                                                     2        0.7000000        0.52335237    0.00000000
 ======================================================================================================
   160 basis functions,   270 primitive gaussians,   170 cartesian basis functions
    19 alpha electrons       19 beta electrons
       nuclear repulsion energy       157.1825141968 Hartrees.
 NAtoms=   10 NActive=   10 NUniq=    8 SFac= 1.56D+00 NAtFMM=   60 NAOKFM=F Big=F
   2 Symmetry operations used in ECPInt.
 ECPInt:  NShTT=    2485 NPrTT=   11565 LenC2=    2480 LenP2D=    9318.
 LDataN:  DoStor=T MaxTD1= 6 Len=  172
 Initial guess from the checkpoint file:  "methoxyacetonitrile.chk"
 B after Tr=     0.000000    0.000000    0.000000
         Rot=    1.000000    0.000000    0.000000   -0.000000 Ang=  -0.00 deg.
 Initial guess orbital symmetries:
       Occupied  (A') (A') (A') (A') (A') (A') (A') (A') (A') (A')
                 (A") (A') (A') (A") (A') (A') (A") (A') (A")
       Virtual   (A') (A') (A") (A') (A") (A') (A') (A') (A") (A')
                 (A') (A") (A') (A') (A") (A") (A') (A') (A') (A')
                 (A') (A') (A") (A") (A") (A') (A') (A') (A') (A")
                 (A') (A') (A") (A') (A') (A") (A') (A") (A') (A')
                 (A") (A') (A") (A') (A') (A') (A") (A") (A') (A')
                 (A") (A") (A') (A') (A') (A") (A') (A') (A") (A')
                 (A") (A') (A') (A') (A") (A') (A") (A') (A") (A')
                 (A') (A") (A') (A') (A') (A") (A') (A") (A') (A')
                 (A") (A') (A') (A") (A') (A") (A') (A') (A') (A")
                 (A") (A') (A') (A') (A") (A") (A') (A") (A") (A")
                 (A') (A') (A') (A") (A') (A') (A') (A") (A") (A")
                 (A') (A') (A') (A') (A") (A') (A') (A') (A") (A')
                 (A') (A") (A') (A") (A') (A') (A') (A") (A') (A")
                 (A') (A') (A") (A') (A') (A') (A") (A') (A") (A')
                 (A')
 >>>>>>>>>> Convergence criterion not met.
 SCF Done:  E(RHF) =  -246.928455063     A.U. after    2 cycles
            NFock=  1  Conv=0.20D+00     -V/T= 2.0278

 **********************************************************************

            Population analysis using the SCF Density.

 **********************************************************************

 Orbital symmetries:
       Occupied  (A') (A') (A') (A') (A') (A') (A') (A') (A') (A')
                 (A") (A') (A") (A') (A') (A') (A") (A') (A")
       Virtual   (A') (A') (A") (A') (A") (A') (A') (A') (A') (A")
                 (A') (A') (A") (A') (A') (A") (A") (A') (A') (A')
                 (A') (A") (A") (A') (A") (A') (A') (A') (A') (A")
                 (A') (A") (A') (A') (A") (A") (A') (A') (A') (A")
                 (A') (A") (A') (A') (A') (A") (A') (A") (A') (A')
                 (A") (A') (A') (A") (A') (A') (A") (A') (A") (A')
                 (A") (A') (A') (A') (A") (A') (A") (A') (A") (A')
                 (A') (A") (A') (A') (A') (A") (A') (A") (A') (A")
                 (A') (A') (A") (A') (A') (A") (A') (A") (A') (A')
                 (A") (A') (A") (A") (A') (A") (A') (A') (A") (A')
                 (A") (A") (A') (A') (A') (A") (A') (A') (A") (A')
                 (A') (A') (A") (A') (A') (A") (A') (A') (A") (A')
                 (A') (A") (A") (A') (A') (A') (A') (A') (A") (A')
                 (A") (A') (A") (A') (A') (A') (A") (A') (A") (A')
                 (A')
 The electronic state is 1-A'.
 Alpha  occ. eigenvalues --  -21.07983 -15.76583 -11.49191 -11.43332 -11.42338
 Alpha  occ. eigenvalues --   -1.78755  -1.31151  -1.09963  -0.97113  -0.73931
 Alpha  occ. eigenvalues --   -0.69012  -0.63219  -0.60355  -0.58310  -0.51215
 Alpha  occ. eigenvalues --   -0.45030  -0.44393  -0.41931  -0.33200
 Alpha virt. eigenvalues --    0.02803   0.04912   0.05227   0.05616   0.06719
 Alpha virt. eigenvalues --    0.09371   0.10623   0.11737   0.12428   0.12696
 Alpha virt. eigenvalues --    0.14017   0.15460   0.15783   0.16434   0.17656
 Alpha virt. eigenvalues --    0.18457   0.19339   0.19582   0.22040   0.24908
 Alpha virt. eigenvalues --    0.26265   0.26986   0.27600   0.27656   0.29932
 Alpha virt. eigenvalues --    0.31162   0.32126   0.34043   0.34769   0.35459
 Alpha virt. eigenvalues --    0.37288   0.38904   0.39340   0.41625   0.43500
 Alpha virt. eigenvalues --    0.44285   0.44375   0.45202   0.46168   0.50048
 Alpha virt. eigenvalues --    0.50664   0.51684   0.51693   0.54656   0.55956
 Alpha virt. eigenvalues --    0.58068   0.59215   0.60195   0.61578   0.62575
 Alpha virt. eigenvalues --    0.62721   0.65526   0.66882   0.67114   0.69012
 Alpha virt. eigenvalues --    0.70607   0.70938   0.74865   0.76541   0.78135
 Alpha virt. eigenvalues --    0.78362   0.80735   0.82669   0.85168   0.89432
 Alpha virt. eigenvalues --    0.89705   0.92669   0.95363   1.00011   1.01453
 Alpha virt. eigenvalues --    1.05039   1.06255   1.09715   1.14654   1.18961
 Alpha virt. eigenvalues --    1.22880   1.24904   1.28775   1.31802   1.33291
 Alpha virt. eigenvalues --    1.35236   1.40616   1.44217   1.54284   1.59332
 Alpha virt. eigenvalues --    1.65060   1.69896   1.75768   1.77549   1.83130
 Alpha virt. eigenvalues --    1.84715   1.86131   1.90597   1.91855   1.91949
 Alpha virt. eigenvalues --    1.97402   1.99044   2.00793   2.01558   2.05739
 Alpha virt. eigenvalues --    2.13161   2.14395   2.15957   2.23715   2.29108
 Alpha virt. eigenvalues --    2.35655   2.38417   2.40031   2.45836   2.50760
 Alpha virt. eigenvalues --    2.55674   2.59293   2.59723   2.61060   2.63786
 Alpha virt. eigenvalues --    2.72798   2.73992   2.75900   2.81832   2.84312
 Alpha virt. eigenvalues --    2.91270   2.96299   3.00979   3.01285   3.10108
 Alpha virt. eigenvalues --    3.24157   3.35819   3.45279   3.45837   3.59650
 Alpha virt. eigenvalues --    3.59682   3.60207   3.64691   3.80786   3.90498
 Alpha virt. eigenvalues --    4.23203   6.06203   6.06597   6.21220   6.33375
 Alpha virt. eigenvalues --    6.37244
          Condensed to atoms (all electrons):
 Mulliken charges:
               1
     1  H    1.302749
     2  H    1.331023
     3  H    1.331023
     4  C   -2.790872
     5  O   -2.688245
     6  H    1.466769
     7  H    1.466769
     8  C   -1.236896
     9  N   -2.322450
    10  C    2.140130
 Sum of Mulliken charges =   0.00000
 Mulliken charges with hydrogens summed into heavy atoms:
               1
     4  C    1.173922
     5  O   -2.688245
     8  C    1.696643
     9  N   -2.322450
    10  C    2.140130
 Electronic spatial extent (au):  <R**2>=            525.9426
 Charge=              0.0000 electrons
 Dipole moment (field-independent basis, Debye):
    X=              3.9495    Y=              0.7543    Z=              0.0000  Tot=              4.0208

 Test job not archived.
 1\1\GINC-SE108\SP\RHF\Aug-CC-pVDZ\C3H5N1O1\OHZDE\06-Apr-2025\0\\#t hf 
 aug-cc-pvdz iop(5/13=1,5/36=2,99/5=2) pseudo=read geom=check guess=(re
 ad,tcheck) scf=(maxcycle=1)\\title\\0,1\H,0,2.599637,-1.376904,0.\H,0,
 2.446132,0.154878,0.89187\H,0,2.446132,0.154878,-0.89187\C,0,2.130026,
 -0.397042,0.\O,0,0.728282,-0.616731,0.\H,0,0.23003,1.194926,-0.885833\
 H,0,0.23003,1.194926,0.885833\C,0,0.,0.588434,0.\N,0,-2.565567,0.10047
 1,0.\C,0,-1.433235,0.293249,0.\\Version=ES64L-G16RevC.01\State=1-A'\HF
 =-246.9284551\RMSD=2.017e-01\Dipole=1.5538345,0.2967571,0.\Quadrupole=
 -3.4380013,1.7474794,1.6905218,-0.7457791,0.,0.\PG=CS [SG(C3H1N1O1),X(
 H4)]\\@


 GARBAGE IN, GARBAGE OUT
 Job cpu time:       0 days  0 hours  0 minutes 25.3 seconds.
 Elapsed time:       0 days  0 hours  0 minutes  2.5 seconds.
 File lengths (MBytes):  RWF=     10 Int=      0 D2E=      0 Chk=      4 Scr=      1
 Normal termination of Gaussian 16 at Sun Apr  6 08:19:16 2025.
