 Entering Gaussian System, Link 0=g16
 Input=N-N-N--trimethylethanimidamide.gjf
 Output=N-N-N--trimethylethanimidamide.log
 Initial command:
 /arc/software/Gaussian/g16.c01/l1.exe "/tmp/slurm/4819894/Gau-4102776.inp" -scrdir="/tmp/slurm/4819894/"
 Entering Link 1 = /arc/software/Gaussian/g16.c01/l1.exe PID=   4102777.
  
 Copyright (c) 1988-2019, Gaussian, Inc.  All Rights Reserved.
  
 This is part of the Gaussian(R) 16 program.  It is based on
 the Gaussian(R) 09 system (copyright 2009, Gaussian, Inc.),
 the Gaussian(R) 03 system (copyright 2003, Gaussian, Inc.),
 the Gaussian(R) 98 system (copyright 1998, Gaussian, Inc.),
 the Gaussian(R) 94 system (copyright 1995, Gaussian, Inc.),
 the Gaussian 92(TM) system (copyright 1992, Gaussian, Inc.),
 the Gaussian 90(TM) system (copyright 1990, Gaussian, Inc.),
 the Gaussian 88(TM) system (copyright 1988, Gaussian, Inc.),
 the Gaussian 86(TM) system (copyright 1986, Carnegie Mellon
 University), and the Gaussian 82(TM) system (copyright 1983,
 Carnegie Mellon University). Gaussian is a federally registered
 trademark of Gaussian, Inc.
  
 This software contains proprietary and confidential information,
 including trade secrets, belonging to Gaussian, Inc.
  
 This software is provided under written license and may be
 used, copied, transmitted, or stored only in accord with that
 written license.
  
 The following legend is applicable only to US Government
 contracts under FAR:
  
                    RESTRICTED RIGHTS LEGEND
  
 Use, reproduction and disclosure by the US Government is
 subject to restrictions as set forth in subparagraphs (a)
 and (c) of the Commercial Computer Software - Restricted
 Rights clause in FAR 52.227-19.
  
 Gaussian, Inc.
 340 Quinnipiac St., Bldg. 40, Wallingford CT 06492
  
  
 ---------------------------------------------------------------
 Warning -- This program may not be used in any manner that
 competes with the business of Gaussian, Inc. or will provide
 assistance to any competitor of Gaussian, Inc.  The licensee
 of this program is prohibited from giving any competitor of
 Gaussian, Inc. access to this program.  By using this program,
 the user acknowledges that Gaussian, Inc. is engaged in the
 business of creating and licensing software in the field of
 computational chemistry and represents and warrants to the
 licensee that it is not a competitor of Gaussian, Inc. and that
 it will not use this program in any manner prohibited above.
 ---------------------------------------------------------------
  

 Cite this work as:
 Gaussian 16, Revision C.01,
 M. J. Frisch, G. W. Trucks, H. B. Schlegel, G. E. Scuseria, 
 M. A. Robb, J. R. Cheeseman, G. Scalmani, V. Barone, 
 G. A. Petersson, H. Nakatsuji, X. Li, M. Caricato, A. V. Marenich, 
 J. Bloino, B. G. Janesko, R. Gomperts, B. Mennucci, H. P. Hratchian, 
 J. V. Ortiz, A. F. Izmaylov, J. L. Sonnenberg, D. Williams-Young, 
 F. Ding, F. Lipparini, F. Egidi, J. Goings, B. Peng, A. Petrone, 
 T. Henderson, D. Ranasinghe, V. G. Zakrzewski, J. Gao, N. Rega, 
 G. Zheng, W. Liang, M. Hada, M. Ehara, K. Toyota, R. Fukuda, 
 J. Hasegawa, M. Ishida, T. Nakajima, Y. Honda, O. Kitao, H. Nakai, 
 T. Vreven, K. Throssell, J. A. Montgomery, Jr., J. E. Peralta, 
 F. Ogliaro, M. J. Bearpark, J. J. Heyd, E. N. Brothers, K. N. Kudin, 
 V. N. Staroverov, T. A. Keith, R. Kobayashi, J. Normand, 
 K. Raghavachari, A. P. Rendell, J. C. Burant, S. S. Iyengar, 
 J. Tomasi, M. Cossi, J. M. Millam, M. Klene, C. Adamo, R. Cammi, 
 J. W. Ochterski, R. L. Martin, K. Morokuma, O. Farkas, 
 J. B. Foresman, and D. J. Fox, Gaussian, Inc., Wallingford CT, 2019.
 
 ******************************************
 Gaussian 16:  ES64L-G16RevC.01  3-Jul-2019
                 6-Apr-2025 
 ******************************************
 %nprocs=16
 Will use up to   16 processors via shared memory.
 %mem=30GB
 %chk=N-N-N--trimethylethanimidamide.chk
 ----------------------------------------------------------------------
 #t hf aug-cc-pvdz symm=none int=(grid=ultrafine) guess=(read,tcheck) s
 table=(opt,rrhf)
 ----------------------------------------------------------------------
 -----
 title
 -----
 Symbolic Z-matrix:
 Charge =  0 Multiplicity = 1
 C                    -0.18791   0.65122   0.06287 
 C                     0.51635   1.96368   0.31975 
 C                    -2.24353  -0.48024  -0.36103 
 C                     0.40853  -1.67922   0.62335 
 C                     2.01338  -0.30096  -0.54781 
 N                    -1.46312   0.66572   0.05424 
 N                     0.62009  -0.47755  -0.17402 
 H                    -0.22565   2.69692   0.61932 
 H                     1.01287   2.33131  -0.5803 
 H                     1.27821   1.87296   1.09643 
 H                    -3.13348  -0.11431  -0.87491 
 H                    -2.59926  -1.05725   0.49855 
 H                    -1.70766  -1.16189  -1.03104 
 H                     1.08445  -1.6999    1.48916 
 H                     0.60024  -2.57287   0.0253 
 H                    -0.6078   -1.72762   0.99409 
 H                     2.36724  -1.22018  -1.01711 
 H                     2.66808  -0.09165   0.30958 
 H                     2.12304   0.50037  -1.2734 
 
                    Distance matrix (angstroms):
                    1          2          3          4          5
     1  C    0.000000
     2  C    1.511455   0.000000
     3  C    2.384430   3.748752   0.000000
     4  C    2.469986   3.657112   3.072458   0.000000
     5  C    2.474917   2.849967   4.264774   2.418000   0.000000
     6  N    1.275326   2.381910   1.447312   3.053797   3.658270
     7  N    1.408223   2.492816   2.869725   1.457586   1.453324
     8  H    2.120363   1.085335   3.889382   4.421855   3.919527
     9  H    2.162914   1.091682   4.307785   4.230637   2.816184
    10  H    2.170341   1.091736   4.479331   3.687562   2.823104
    11  H    3.184635   4.366522   1.090867   4.152059   5.160620
    12  H    2.987199   4.343389   1.094702   3.073964   4.789916
    13  H    2.606466   4.066941   1.095776   2.735486   3.849780
    14  H    3.030013   3.887422   3.998282   1.098601   2.639918
    15  H    3.319242   4.546865   3.551819   1.092256   2.736234
    16  H    2.588894   3.917154   2.463316   1.082927   3.359075
    17  H    3.346233   3.917899   4.715632   2.595833   1.091070
    18  H    2.961318   2.975640   4.972393   2.779277   1.098895
    19  H    2.673731   2.694599   4.567378   3.359727   1.086569
                    6          7          8          9         10
     6  N    0.000000
     7  N    2.387239   0.000000
     8  H    2.444675   3.379630   0.000000
     9  H    3.050794   2.865134   1.762575   0.000000
    10  H    3.171509   2.751733   1.779926   1.758382   0.000000
    11  H    2.064431   3.835689   4.311754   4.822867   5.224791
    12  H    2.111127   3.339558   4.443248   5.068899   4.896773
    13  H    2.139575   2.573174   4.450894   4.450488   4.759395
    14  H    3.761017   2.115639   4.669587   4.531932   3.599599
    15  H    3.840148   2.104875   5.367089   4.958624   4.623025
    16  H    2.709784   2.105914   4.456797   4.645443   4.065915
    17  H    4.401824   2.077221   4.974400   3.825989   3.901355
    18  H    4.207807   2.139406   4.030603   3.066327   2.531914
    19  H    3.827598   2.103287   3.731431   2.250605   2.865985
                   11         12         13         14         15
    11  H    0.000000
    12  H    1.749554   0.000000
    13  H    1.776172   1.773576   0.000000
    14  H    5.088606   3.868341   3.799570   0.000000
    15  H    4.560222   3.571822   2.903985   1.771836   0.000000
    16  H    3.531998   2.158904   2.372951   1.763401   1.764194
    17  H    5.612587   5.195185   4.075338   2.856055   2.457370
    18  H    5.921293   5.358454   4.699977   2.546712   3.242408
    19  H    5.307318   5.278838   4.182828   3.681245   3.667465
                   16         17         18         19
    16  H    0.000000
    17  H    3.626749   0.000000
    18  H    3.725098   1.767540   0.000000
    19  H    4.190814   1.756586   1.775784   0.000000
 Symmetry turned off by external request.
 Rotational constants (GHZ):           3.3068340           2.3661940           1.5635900
   269 basis functions,   433 primitive gaussians,   283 cartesian basis functions
    28 alpha electrons       28 beta electrons
       nuclear repulsion energy       325.7972265357 Hartrees.
 NAtoms=   19 NActive=   19 NUniq=   19 SFac= 1.00D+00 NAtFMM=   60 NAOKFM=F Big=F
 ExpMin= 2.97D-02 ExpMax= 9.05D+03 ExpMxC= 3.09D+02 IAcc=3 IRadAn=         5 AccDes= 0.00D+00
 Harris functional with IExCor=  205 and IRadAn=       5 diagonalized for initial guess.
 HarFok:  IExCor=  205 AccDes= 0.00D+00 IRadAn=         5 IDoV= 1 UseB2=F ITyADJ=14
 ICtDFT=  3500011 ScaDFX=  1.000000  1.000000  1.000000  1.000000
 FoFCou: FMM=F IPFlag=           0 FMFlag=      100000 FMFlg1=           0
         NFxFlg=           0 DoJE=T BraDBF=F KetDBF=T FulRan=T
         wScrn=  0.000000 ICntrl=       500 IOpCl=  0 I1Cent=   200000004 NGrid=           0
         NMat0=    1 NMatS0=      1 NMatT0=    0 NMatD0=    1 NMtDS0=    0 NMtDT0=    0
 Symmetry not used in FoFCou.
 SCF Done:  E(RHF) =  -305.222886156     A.U. after   14 cycles
            NFock= 14  Conv=0.32D-08     -V/T= 2.0013

 **********************************************************************

            Population analysis using the SCF Density.

 **********************************************************************

 Alpha  occ. eigenvalues --  -15.57279 -15.53087 -11.30866 -11.26403 -11.26233
 Alpha  occ. eigenvalues --  -11.23697 -11.22600  -1.27291  -1.17782  -1.01087
 Alpha  occ. eigenvalues --   -0.96413  -0.91472  -0.88686  -0.72496  -0.65888
 Alpha  occ. eigenvalues --   -0.65311  -0.63957  -0.58621  -0.57305  -0.56991
 Alpha  occ. eigenvalues --   -0.55340  -0.55028  -0.53778  -0.52963  -0.50889
 Alpha  occ. eigenvalues --   -0.42286  -0.38436  -0.33331
 Alpha virt. eigenvalues --    0.03318   0.04324   0.04538   0.04833   0.06307
 Alpha virt. eigenvalues --    0.06550   0.06975   0.07073   0.07445   0.08908
 Alpha virt. eigenvalues --    0.09289   0.09943   0.10694   0.13000   0.13713
 Alpha virt. eigenvalues --    0.14834   0.15519   0.15723   0.16017   0.16690
 Alpha virt. eigenvalues --    0.16854   0.17453   0.18220   0.18317   0.18781
 Alpha virt. eigenvalues --    0.19256   0.20371   0.20527   0.21553   0.22355
 Alpha virt. eigenvalues --    0.22603   0.23131   0.24004   0.24874   0.26079
 Alpha virt. eigenvalues --    0.27989   0.29469   0.30693   0.30935   0.31889
 Alpha virt. eigenvalues --    0.32805   0.33676   0.34274   0.35102   0.35977
 Alpha virt. eigenvalues --    0.37295   0.39298   0.39431   0.40130   0.40859
 Alpha virt. eigenvalues --    0.41200   0.43085   0.43597   0.44330   0.44738
 Alpha virt. eigenvalues --    0.45488   0.45969   0.46138   0.46666   0.47665
 Alpha virt. eigenvalues --    0.47805   0.48395   0.48999   0.49497   0.50694
 Alpha virt. eigenvalues --    0.51574   0.52168   0.54371   0.55363   0.56237
 Alpha virt. eigenvalues --    0.56735   0.57365   0.57781   0.58129   0.59268
 Alpha virt. eigenvalues --    0.59667   0.60570   0.62112   0.62238   0.62939
 Alpha virt. eigenvalues --    0.63189   0.64117   0.65265   0.65852   0.66002
 Alpha virt. eigenvalues --    0.67342   0.67567   0.68173   0.69179   0.69591
 Alpha virt. eigenvalues --    0.70659   0.71144   0.72046   0.72439   0.73571
 Alpha virt. eigenvalues --    0.74630   0.76549   0.76824   0.77853   0.78359
 Alpha virt. eigenvalues --    0.79193   0.80636   0.80739   0.81982   0.82468
 Alpha virt. eigenvalues --    0.83627   0.85431   0.86260   0.87099   0.88254
 Alpha virt. eigenvalues --    0.88622   0.89305   0.90307   0.91388   0.93550
 Alpha virt. eigenvalues --    0.94142   0.94954   0.97706   0.99030   0.99991
 Alpha virt. eigenvalues --    1.02290   1.03303   1.05692   1.06121   1.09197
 Alpha virt. eigenvalues --    1.11484   1.12411   1.13703   1.14009   1.16000
 Alpha virt. eigenvalues --    1.17661   1.19737   1.21030   1.21504   1.24679
 Alpha virt. eigenvalues --    1.25778   1.26907   1.28231   1.30757   1.33833
 Alpha virt. eigenvalues --    1.35197   1.36558   1.40743   1.42044   1.46158
 Alpha virt. eigenvalues --    1.47615   1.53253   1.53445   1.55769   1.57934
 Alpha virt. eigenvalues --    1.61822   1.63043   1.66729   1.69851   1.70186
 Alpha virt. eigenvalues --    1.72321   1.74506   1.77036   1.77602   1.80276
 Alpha virt. eigenvalues --    1.82271   1.84714   1.85355   1.86503   1.88661
 Alpha virt. eigenvalues --    1.90768   1.91451   1.92894   1.96083   1.97560
 Alpha virt. eigenvalues --    1.98138   1.99389   2.00141   2.00701   2.03943
 Alpha virt. eigenvalues --    2.05990   2.09762   2.11292   2.13905   2.16994
 Alpha virt. eigenvalues --    2.17344   2.17851   2.19600   2.20590   2.22874
 Alpha virt. eigenvalues --    2.24401   2.25288   2.27604   2.29725   2.30461
 Alpha virt. eigenvalues --    2.32400   2.33337   2.34598   2.36506   2.37449
 Alpha virt. eigenvalues --    2.41401   2.41778   2.44699   2.47381   2.49329
 Alpha virt. eigenvalues --    2.49646   2.51497   2.53178   2.54168   2.56535
 Alpha virt. eigenvalues --    2.58840   2.62366   2.63414   2.64275   2.65509
 Alpha virt. eigenvalues --    2.69254   2.71491   2.73264   2.76073   2.77730
 Alpha virt. eigenvalues --    2.79992   2.82425   2.83978   2.88837   2.90870
 Alpha virt. eigenvalues --    2.92541   2.94762   2.95008   2.98142   3.00779
 Alpha virt. eigenvalues --    3.01318   3.01908   3.05949   3.11265   3.11622
 Alpha virt. eigenvalues --    3.16161   3.17758   3.20257   3.24266   3.27795
 Alpha virt. eigenvalues --    3.31418   3.33943   3.44318   3.49168   3.53276
 Alpha virt. eigenvalues --    3.93413
          Condensed to atoms (all electrons):
 Mulliken charges:
               1
     1  C    0.152288
     2  C    0.493870
     3  C    0.692615
     4  C    0.778773
     5  C    0.923182
     6  N   -0.807759
     7  N   -0.805976
     8  H   -0.168526
     9  H    0.095010
    10  H    0.064049
    11  H   -0.290409
    12  H   -0.055532
    13  H   -0.043257
    14  H   -0.014331
    15  H   -0.118092
    16  H   -0.391672
    17  H   -0.214758
    18  H   -0.078803
    19  H   -0.210673
 Sum of Mulliken charges =  -0.00000
 Mulliken charges with hydrogens summed into heavy atoms:
               1
     1  C    0.152288
     2  C    0.484403
     3  C    0.303417
     4  C    0.254678
     5  C    0.418949
     6  N   -0.807759
     7  N   -0.805976
 Electronic spatial extent (au):  <R**2>=            866.7237
 Charge=              0.0000 electrons
 Dipole moment (field-independent basis, Debye):
    X=              2.4531    Y=             -1.3345    Z=              0.0339  Tot=              2.7928
 NROrb=    269 NOA=    28 NOB=    28 NVA=   241 NVB=   241

 **** Warning!!: The largest alpha MO coefficient is  0.57040458D+02

    12 initial guesses have been made.
 Iteration     1 Dimension    12 NMult     0 NNew     12
 Iteration     2 Dimension    24 NMult    12 NNew     12
 Iteration     3 Dimension    27 NMult    24 NNew      3
 Iteration     4 Dimension    30 NMult    27 NNew      3
 Iteration     5 Dimension    33 NMult    30 NNew      3
 Iteration     6 Dimension    36 NMult    33 NNew      3
 ***********************************************************************
 Stability analysis using <AA,BB:AA,BB> singles matrix:
 ***********************************************************************
 Ground to excited state transition densities written to RWF  633

 Eigenvectors of the stability matrix:
 
 Excited state symmetry could not be determined.
 Eigenvector   1:      Singlet-?Sym  Eigenvalue= 0.2382702  <S**2>=0.000
      27 -> 48         0.19194
      27 -> 56         0.17300
      28 -> 29         0.50523
      28 -> 32         0.13356
      28 -> 37         0.10570
      28 -> 41         0.16091
      28 -> 49         0.10018
 The wavefunction is stable under the perturbations considered.
 The wavefunction is already stable.

 **********************************************************************

            Population analysis using the SCF Density.

 **********************************************************************

 Alpha  occ. eigenvalues --  -15.57279 -15.53087 -11.30866 -11.26403 -11.26233
 Alpha  occ. eigenvalues --  -11.23697 -11.22600  -1.27291  -1.17782  -1.01087
 Alpha  occ. eigenvalues --   -0.96413  -0.91472  -0.88686  -0.72496  -0.65888
 Alpha  occ. eigenvalues --   -0.65311  -0.63957  -0.58621  -0.57305  -0.56991
 Alpha  occ. eigenvalues --   -0.55340  -0.55028  -0.53778  -0.52963  -0.50889
 Alpha  occ. eigenvalues --   -0.42286  -0.38436  -0.33331
 Alpha virt. eigenvalues --    0.03318   0.04324   0.04538   0.04833   0.06307
 Alpha virt. eigenvalues --    0.06550   0.06975   0.07073   0.07445   0.08908
 Alpha virt. eigenvalues --    0.09289   0.09943   0.10694   0.13000   0.13713
 Alpha virt. eigenvalues --    0.14834   0.15519   0.15723   0.16017   0.16690
 Alpha virt. eigenvalues --    0.16854   0.17453   0.18220   0.18317   0.18781
 Alpha virt. eigenvalues --    0.19256   0.20371   0.20527   0.21553   0.22355
 Alpha virt. eigenvalues --    0.22603   0.23131   0.24004   0.24874   0.26079
 Alpha virt. eigenvalues --    0.27989   0.29469   0.30693   0.30935   0.31889
 Alpha virt. eigenvalues --    0.32805   0.33676   0.34274   0.35102   0.35977
 Alpha virt. eigenvalues --    0.37295   0.39298   0.39431   0.40130   0.40859
 Alpha virt. eigenvalues --    0.41200   0.43085   0.43597   0.44330   0.44738
 Alpha virt. eigenvalues --    0.45488   0.45969   0.46138   0.46666   0.47665
 Alpha virt. eigenvalues --    0.47805   0.48395   0.48999   0.49497   0.50694
 Alpha virt. eigenvalues --    0.51574   0.52168   0.54371   0.55363   0.56237
 Alpha virt. eigenvalues --    0.56735   0.57365   0.57781   0.58129   0.59268
 Alpha virt. eigenvalues --    0.59667   0.60570   0.62112   0.62238   0.62939
 Alpha virt. eigenvalues --    0.63189   0.64117   0.65265   0.65852   0.66002
 Alpha virt. eigenvalues --    0.67342   0.67567   0.68173   0.69179   0.69591
 Alpha virt. eigenvalues --    0.70659   0.71144   0.72046   0.72439   0.73571
 Alpha virt. eigenvalues --    0.74630   0.76549   0.76824   0.77853   0.78359
 Alpha virt. eigenvalues --    0.79193   0.80636   0.80739   0.81982   0.82468
 Alpha virt. eigenvalues --    0.83627   0.85431   0.86260   0.87099   0.88254
 Alpha virt. eigenvalues --    0.88622   0.89305   0.90307   0.91388   0.93550
 Alpha virt. eigenvalues --    0.94142   0.94954   0.97706   0.99030   0.99991
 Alpha virt. eigenvalues --    1.02290   1.03303   1.05692   1.06121   1.09197
 Alpha virt. eigenvalues --    1.11484   1.12411   1.13703   1.14009   1.16000
 Alpha virt. eigenvalues --    1.17661   1.19737   1.21030   1.21504   1.24679
 Alpha virt. eigenvalues --    1.25778   1.26907   1.28231   1.30757   1.33833
 Alpha virt. eigenvalues --    1.35197   1.36558   1.40743   1.42044   1.46158
 Alpha virt. eigenvalues --    1.47615   1.53253   1.53445   1.55769   1.57934
 Alpha virt. eigenvalues --    1.61822   1.63043   1.66729   1.69851   1.70186
 Alpha virt. eigenvalues --    1.72321   1.74506   1.77036   1.77602   1.80276
 Alpha virt. eigenvalues --    1.82271   1.84714   1.85355   1.86503   1.88661
 Alpha virt. eigenvalues --    1.90768   1.91451   1.92894   1.96083   1.97560
 Alpha virt. eigenvalues --    1.98138   1.99389   2.00141   2.00701   2.03943
 Alpha virt. eigenvalues --    2.05990   2.09762   2.11292   2.13905   2.16994
 Alpha virt. eigenvalues --    2.17344   2.17851   2.19600   2.20590   2.22874
 Alpha virt. eigenvalues --    2.24401   2.25288   2.27604   2.29725   2.30461
 Alpha virt. eigenvalues --    2.32400   2.33337   2.34598   2.36506   2.37449
 Alpha virt. eigenvalues --    2.41401   2.41778   2.44699   2.47381   2.49329
 Alpha virt. eigenvalues --    2.49646   2.51497   2.53178   2.54168   2.56535
 Alpha virt. eigenvalues --    2.58840   2.62366   2.63414   2.64275   2.65509
 Alpha virt. eigenvalues --    2.69254   2.71491   2.73264   2.76073   2.77730
 Alpha virt. eigenvalues --    2.79992   2.82425   2.83978   2.88837   2.90870
 Alpha virt. eigenvalues --    2.92541   2.94762   2.95008   2.98142   3.00779
 Alpha virt. eigenvalues --    3.01318   3.01908   3.05949   3.11265   3.11622
 Alpha virt. eigenvalues --    3.16161   3.17758   3.20257   3.24266   3.27795
 Alpha virt. eigenvalues --    3.31418   3.33943   3.44318   3.49168   3.53276
 Alpha virt. eigenvalues --    3.93413
          Condensed to atoms (all electrons):
 Mulliken charges:
               1
     1  C    0.152288
     2  C    0.493870
     3  C    0.692615
     4  C    0.778773
     5  C    0.923182
     6  N   -0.807759
     7  N   -0.805976
     8  H   -0.168526
     9  H    0.095010
    10  H    0.064049
    11  H   -0.290409
    12  H   -0.055532
    13  H   -0.043257
    14  H   -0.014331
    15  H   -0.118092
    16  H   -0.391672
    17  H   -0.214758
    18  H   -0.078803
    19  H   -0.210673
 Sum of Mulliken charges =  -0.00000
 Mulliken charges with hydrogens summed into heavy atoms:
               1
     1  C    0.152288
     2  C    0.484403
     3  C    0.303417
     4  C    0.254678
     5  C    0.418949
     6  N   -0.807759
     7  N   -0.805976
 Electronic spatial extent (au):  <R**2>=            866.7237
 Charge=              0.0000 electrons
 Dipole moment (field-independent basis, Debye):
    X=              2.4531    Y=             -1.3345    Z=              0.0339  Tot=              2.7928
 Unable to Open any file for archive entry.
 1\1\GINC-SE049\Stability\RHF\Aug-CC-pVDZ\C5H12N2\OHZDE\06-Apr-2025\0\\
 #t hf aug-cc-pvdz symm=none int=(grid=ultrafine) guess=(read,tcheck) s
 table=(opt,rrhf)\\title\\0,1\C,0,-0.187905,0.651224,0.062869\C,0,0.516
 351,1.963676,0.319752\C,0,-2.243533,-0.480238,-0.361032\C,0,0.408532,-
 1.679218,0.623345\C,0,2.013376,-0.300958,-0.547808\N,0,-1.463119,0.665
 717,0.054242\N,0,0.62009,-0.477546,-0.174016\H,0,-0.225648,2.696922,0.
 619317\H,0,1.012868,2.331307,-0.580297\H,0,1.278208,1.87296,1.096432\H
 ,0,-3.133483,-0.114305,-0.874912\H,0,-2.599264,-1.057251,0.498552\H,0,
 -1.707657,-1.161888,-1.031043\H,0,1.084452,-1.699902,1.489156\H,0,0.60
 0243,-2.572869,0.0253\H,0,-0.607803,-1.727617,0.994091\H,0,2.36724,-1.
 22018,-1.017111\H,0,2.668083,-0.091653,0.309584\H,0,2.123038,0.500365,
 -1.273403\\Version=ES64L-G16RevC.01\HF=-305.2228862\RMSD=3.217e-09\Dip
 ole=0.9651318,-0.5250252,0.0133517\Quadrupole=-0.341659,0.5758221,-0.2
 341631,2.4833181,0.0747049,-0.7022281\PG=Unknown\\@
 The archive entry for this job was punched.


 GETTING A SIMPLE ANSWER FROM A PROFESSOR IS LIKE
 GETTING A THIMBLE OF WATER FROM A FIRE HYDRANT.
     -- PROF. LEN SHAPIRO, NDSU
 Job cpu time:       0 days  0 hours 12 minutes 36.8 seconds.
 Elapsed time:       0 days  0 hours  0 minutes 57.8 seconds.
 File lengths (MBytes):  RWF=    293 Int=      0 D2E=      0 Chk=     10 Scr=      1
 Normal termination of Gaussian 16 at Sun Apr  6 08:08:47 2025.
 Initial command:
 /arc/software/Gaussian/g16.c01/l1.exe "/tmp/slurm/4819894/Gau-4102776.inp" -scrdir="/tmp/slurm/4819894/"
 Entering Link 1 = /arc/software/Gaussian/g16.c01/l1.exe PID=   4103010.
  
 Copyright (c) 1988-2019, Gaussian, Inc.  All Rights Reserved.
  
 This is part of the Gaussian(R) 16 program.  It is based on
 the Gaussian(R) 09 system (copyright 2009, Gaussian, Inc.),
 the Gaussian(R) 03 system (copyright 2003, Gaussian, Inc.),
 the Gaussian(R) 98 system (copyright 1998, Gaussian, Inc.),
 the Gaussian(R) 94 system (copyright 1995, Gaussian, Inc.),
 the Gaussian 92(TM) system (copyright 1992, Gaussian, Inc.),
 the Gaussian 90(TM) system (copyright 1990, Gaussian, Inc.),
 the Gaussian 88(TM) system (copyright 1988, Gaussian, Inc.),
 the Gaussian 86(TM) system (copyright 1986, Carnegie Mellon
 University), and the Gaussian 82(TM) system (copyright 1983,
 Carnegie Mellon University). Gaussian is a federally registered
 trademark of Gaussian, Inc.
  
 This software contains proprietary and confidential information,
 including trade secrets, belonging to Gaussian, Inc.
  
 This software is provided under written license and may be
 used, copied, transmitted, or stored only in accord with that
 written license.
  
 The following legend is applicable only to US Government
 contracts under FAR:
  
                    RESTRICTED RIGHTS LEGEND
  
 Use, reproduction and disclosure by the US Government is
 subject to restrictions as set forth in subparagraphs (a)
 and (c) of the Commercial Computer Software - Restricted
 Rights clause in FAR 52.227-19.
  
 Gaussian, Inc.
 340 Quinnipiac St., Bldg. 40, Wallingford CT 06492
  
  
 ---------------------------------------------------------------
 Warning -- This program may not be used in any manner that
 competes with the business of Gaussian, Inc. or will provide
 assistance to any competitor of Gaussian, Inc.  The licensee
 of this program is prohibited from giving any competitor of
 Gaussian, Inc. access to this program.  By using this program,
 the user acknowledges that Gaussian, Inc. is engaged in the
 business of creating and licensing software in the field of
 computational chemistry and represents and warrants to the
 licensee that it is not a competitor of Gaussian, Inc. and that
 it will not use this program in any manner prohibited above.
 ---------------------------------------------------------------
  

 Cite this work as:
 Gaussian 16, Revision C.01,
 M. J. Frisch, G. W. Trucks, H. B. Schlegel, G. E. Scuseria, 
 M. A. Robb, J. R. Cheeseman, G. Scalmani, V. Barone, 
 G. A. Petersson, H. Nakatsuji, X. Li, M. Caricato, A. V. Marenich, 
 J. Bloino, B. G. Janesko, R. Gomperts, B. Mennucci, H. P. Hratchian, 
 J. V. Ortiz, A. F. Izmaylov, J. L. Sonnenberg, D. Williams-Young, 
 F. Ding, F. Lipparini, F. Egidi, J. Goings, B. Peng, A. Petrone, 
 T. Henderson, D. Ranasinghe, V. G. Zakrzewski, J. Gao, N. Rega, 
 G. Zheng, W. Liang, M. Hada, M. Ehara, K. Toyota, R. Fukuda, 
 J. Hasegawa, M. Ishida, T. Nakajima, Y. Honda, O. Kitao, H. Nakai, 
 T. Vreven, K. Throssell, J. A. Montgomery, Jr., J. E. Peralta, 
 F. Ogliaro, M. J. Bearpark, J. J. Heyd, E. N. Brothers, K. N. Kudin, 
 V. N. Staroverov, T. A. Keith, R. Kobayashi, J. Normand, 
 K. Raghavachari, A. P. Rendell, J. C. Burant, S. S. Iyengar, 
 J. Tomasi, M. Cossi, J. M. Millam, M. Klene, C. Adamo, R. Cammi, 
 J. W. Ochterski, R. L. Martin, K. Morokuma, O. Farkas, 
 J. B. Foresman, and D. J. Fox, Gaussian, Inc., Wallingford CT, 2019.
 
 ******************************************
 Gaussian 16:  ES64L-G16RevC.01  3-Jul-2019
                 6-Apr-2025 
 ******************************************
 %nprocs=16
 Will use up to   16 processors via shared memory.
 %mem=30GB
 %chk=N-N-N--trimethylethanimidamide.chk
 ----------------------------------------------------------------------
 #t hf aug-cc-pvdz iop(5/13=1,5/36=2,99/5=2) pseudo=read geom=check gue
 ss=(read,tcheck) scf=(maxcycle=1)
 ----------------------------------------------------------------------
 -----
 title
 -----
 Structure from the checkpoint file:  "N-N-N--trimethylethanimidamide.chk"
 Charge =  0 Multiplicity = 1
 Z-Matrix found in chk file.
 C,0,-0.187905,0.651224,0.062869
 C,0,0.516351,1.963676,0.319752
 C,0,-2.243533,-0.480238,-0.361032
 C,0,0.408532,-1.679218,0.623345
 C,0,2.013376,-0.300958,-0.547808
 N,0,-1.463119,0.665717,0.054242
 N,0,0.62009,-0.477546,-0.174016
 H,0,-0.225648,2.696922,0.619317
 H,0,1.012868,2.331307,-0.580297
 H,0,1.278208,1.87296,1.096432
 H,0,-3.133483,-0.114305,-0.874912
 H,0,-2.599264,-1.057251,0.498552
 H,0,-1.707657,-1.161888,-1.031043
 H,0,1.084452,-1.699902,1.489156
 H,0,0.600243,-2.572869,0.0253
 H,0,-0.607803,-1.727617,0.994091
 H,0,2.36724,-1.22018,-1.017111
 H,0,2.668083,-0.091653,0.309584
 H,0,2.123038,0.500365,-1.273403
 Recover connectivity data from disk.
                    Distance matrix (angstroms):
                    1          2          3          4          5
     1  C    0.000000
     2  C    1.511455   0.000000
     3  C    2.384430   3.748752   0.000000
     4  C    2.469986   3.657112   3.072458   0.000000
     5  C    2.474917   2.849967   4.264774   2.418000   0.000000
     6  N    1.275326   2.381910   1.447312   3.053797   3.658270
     7  N    1.408223   2.492816   2.869725   1.457586   1.453324
     8  H    2.120363   1.085335   3.889382   4.421855   3.919527
     9  H    2.162914   1.091682   4.307785   4.230637   2.816184
    10  H    2.170341   1.091736   4.479331   3.687562   2.823104
    11  H    3.184635   4.366522   1.090867   4.152059   5.160620
    12  H    2.987199   4.343389   1.094702   3.073964   4.789916
    13  H    2.606466   4.066941   1.095776   2.735486   3.849780
    14  H    3.030013   3.887422   3.998282   1.098601   2.639918
    15  H    3.319242   4.546865   3.551819   1.092256   2.736234
    16  H    2.588894   3.917154   2.463316   1.082927   3.359075
    17  H    3.346233   3.917899   4.715632   2.595833   1.091070
    18  H    2.961318   2.975640   4.972393   2.779277   1.098895
    19  H    2.673731   2.694599   4.567378   3.359727   1.086569
                    6          7          8          9         10
     6  N    0.000000
     7  N    2.387239   0.000000
     8  H    2.444675   3.379630   0.000000
     9  H    3.050794   2.865134   1.762575   0.000000
    10  H    3.171509   2.751733   1.779926   1.758382   0.000000
    11  H    2.064431   3.835689   4.311754   4.822867   5.224791
    12  H    2.111127   3.339558   4.443248   5.068899   4.896773
    13  H    2.139575   2.573174   4.450894   4.450488   4.759395
    14  H    3.761017   2.115639   4.669587   4.531932   3.599599
    15  H    3.840148   2.104875   5.367089   4.958624   4.623025
    16  H    2.709784   2.105914   4.456797   4.645443   4.065915
    17  H    4.401824   2.077221   4.974400   3.825989   3.901355
    18  H    4.207807   2.139406   4.030603   3.066327   2.531914
    19  H    3.827598   2.103287   3.731431   2.250605   2.865985
                   11         12         13         14         15
    11  H    0.000000
    12  H    1.749554   0.000000
    13  H    1.776172   1.773576   0.000000
    14  H    5.088606   3.868341   3.799570   0.000000
    15  H    4.560222   3.571822   2.903985   1.771836   0.000000
    16  H    3.531998   2.158904   2.372951   1.763401   1.764194
    17  H    5.612587   5.195185   4.075338   2.856055   2.457370
    18  H    5.921293   5.358454   4.699977   2.546712   3.242408
    19  H    5.307318   5.278838   4.182828   3.681245   3.667465
                   16         17         18         19
    16  H    0.000000
    17  H    3.626749   0.000000
    18  H    3.725098   1.767540   0.000000
    19  H    4.190814   1.756586   1.775784   0.000000
 Framework group  C1[X(C5H12N2)]
 Deg. of freedom    51
                         Standard orientation:                         
 ---------------------------------------------------------------------
 Center     Atomic      Atomic             Coordinates (Angstroms)
 Number     Number       Type             X           Y           Z
 ---------------------------------------------------------------------
      1          6           0       -0.187905    0.651224    0.062869
      2          6           0        0.516349    1.963676    0.319752
      3          6           0       -2.243533   -0.480240   -0.361032
      4          6           0        0.408533   -1.679218    0.623345
      5          6           0        2.013376   -0.300956   -0.547808
      6          7           0       -1.463120    0.665716    0.054242
      7          7           0        0.620090   -0.477546   -0.174016
      8          1           0       -0.225650    2.696922    0.619317
      9          1           0        1.012866    2.331308   -0.580297
     10          1           0        1.278207    1.872961    1.096432
     11          1           0       -3.133483   -0.114307   -0.874912
     12          1           0       -2.599263   -1.057253    0.498552
     13          1           0       -1.707656   -1.161889   -1.031043
     14          1           0        1.084453   -1.699901    1.489156
     15          1           0        0.600245   -2.572869    0.025300
     16          1           0       -0.607802   -1.727618    0.994091
     17          1           0        2.367241   -1.220178   -1.017111
     18          1           0        2.668083   -0.091651    0.309584
     19          1           0        2.123038    0.500367   -1.273403
 ---------------------------------------------------------------------
 Rotational constants (GHZ):           3.3068340           2.3661940           1.5635900
 ======================================================================================================
                                       Pseudopotential Parameters
 ======================================================================================================
  Center     Atomic      Valence      Angular      Power
  Number     Number     Electrons     Momentum     of R      Exponent        Coefficient   SO-Coeffient
 ======================================================================================================
    1          6            6
                                      G and up 
                                                     0        0.0000010       -0.00286759    0.00000000
                                                     2        0.1200000        0.03193960    0.00000000
                                                     2        0.1600000       -0.04027782    0.00000000
                                                     2        0.2600000        0.24782456    0.00000000
                                                     2        0.4000000       -0.62266671    0.00000000
                                                     2        0.7000000        0.35695227    0.00000000
                                      S - G
                                                     0        0.0000010       -0.06602313    0.00000000
                                                     2        0.1200000        1.47277455    0.00000000
                                                     2        0.1600000       -4.06924166    0.00000000
                                                     2        0.3000000        5.02952802    0.00000000
                                                     2        0.7000000       -5.65856978    0.00000000
                                                     2        1.7000000        8.57604414    0.00000000
                                      P - G
                                                     0        0.0000010        0.49434425    0.00000000
                                                     2        0.1200000       -1.37391547    0.00000000
                                                     2        0.1600000        3.65411806    0.00000000
                                                     2        0.2800000       -7.36479843    0.00000000
                                                     2        0.6000000       17.22091285    0.00000000
                                                     2        1.1000000      -23.50107827    0.00000000
                                                     2        3.0000000       16.29464063    0.00000000
                                      D - G
                                                     0        0.0000010       -0.28693103    0.00000000
                                                     2        0.1200000        0.12273044    0.00000000
                                                     2        0.3000000       -0.43416384    0.00000000
                                                     2        0.7000000        2.23358493    0.00000000
                                      F - G
                                                     0        0.0000010        0.07263570    0.00000000
                                                     2        0.1400000       -0.76152861    0.00000000
                                                     2        0.2200000        1.98045593    0.00000000
                                                     2        0.4000000       -2.42426427    0.00000000
                                                     2        0.7000000        0.52335237    0.00000000
    2          6            6
                                      G and up 
                                                     0        0.0000010       -0.00286759    0.00000000
                                                     2        0.1200000        0.03193960    0.00000000
                                                     2        0.1600000       -0.04027782    0.00000000
                                                     2        0.2600000        0.24782456    0.00000000
                                                     2        0.4000000       -0.62266671    0.00000000
                                                     2        0.7000000        0.35695227    0.00000000
                                      S - G
                                                     0        0.0000010       -0.06602313    0.00000000
                                                     2        0.1200000        1.47277455    0.00000000
                                                     2        0.1600000       -4.06924166    0.00000000
                                                     2        0.3000000        5.02952802    0.00000000
                                                     2        0.7000000       -5.65856978    0.00000000
                                                     2        1.7000000        8.57604414    0.00000000
                                      P - G
                                                     0        0.0000010        0.49434425    0.00000000
                                                     2        0.1200000       -1.37391547    0.00000000
                                                     2        0.1600000        3.65411806    0.00000000
                                                     2        0.2800000       -7.36479843    0.00000000
                                                     2        0.6000000       17.22091285    0.00000000
                                                     2        1.1000000      -23.50107827    0.00000000
                                                     2        3.0000000       16.29464063    0.00000000
                                      D - G
                                                     0        0.0000010       -0.28693103    0.00000000
                                                     2        0.1200000        0.12273044    0.00000000
                                                     2        0.3000000       -0.43416384    0.00000000
                                                     2        0.7000000        2.23358493    0.00000000
                                      F - G
                                                     0        0.0000010        0.07263570    0.00000000
                                                     2        0.1400000       -0.76152861    0.00000000
                                                     2        0.2200000        1.98045593    0.00000000
                                                     2        0.4000000       -2.42426427    0.00000000
                                                     2        0.7000000        0.52335237    0.00000000
    3          6            6
                                      G and up 
                                                     0        0.0000010       -0.00286759    0.00000000
                                                     2        0.1200000        0.03193960    0.00000000
                                                     2        0.1600000       -0.04027782    0.00000000
                                                     2        0.2600000        0.24782456    0.00000000
                                                     2        0.4000000       -0.62266671    0.00000000
                                                     2        0.7000000        0.35695227    0.00000000
                                      S - G
                                                     0        0.0000010       -0.06602313    0.00000000
                                                     2        0.1200000        1.47277455    0.00000000
                                                     2        0.1600000       -4.06924166    0.00000000
                                                     2        0.3000000        5.02952802    0.00000000
                                                     2        0.7000000       -5.65856978    0.00000000
                                                     2        1.7000000        8.57604414    0.00000000
                                      P - G
                                                     0        0.0000010        0.49434425    0.00000000
                                                     2        0.1200000       -1.37391547    0.00000000
                                                     2        0.1600000        3.65411806    0.00000000
                                                     2        0.2800000       -7.36479843    0.00000000
                                                     2        0.6000000       17.22091285    0.00000000
                                                     2        1.1000000      -23.50107827    0.00000000
                                                     2        3.0000000       16.29464063    0.00000000
                                      D - G
                                                     0        0.0000010       -0.28693103    0.00000000
                                                     2        0.1200000        0.12273044    0.00000000
                                                     2        0.3000000       -0.43416384    0.00000000
                                                     2        0.7000000        2.23358493    0.00000000
                                      F - G
                                                     0        0.0000010        0.07263570    0.00000000
                                                     2        0.1400000       -0.76152861    0.00000000
                                                     2        0.2200000        1.98045593    0.00000000
                                                     2        0.4000000       -2.42426427    0.00000000
                                                     2        0.7000000        0.52335237    0.00000000
    4          6            6
                                      G and up 
                                                     0        0.0000010       -0.00286759    0.00000000
                                                     2        0.1200000        0.03193960    0.00000000
                                                     2        0.1600000       -0.04027782    0.00000000
                                                     2        0.2600000        0.24782456    0.00000000
                                                     2        0.4000000       -0.62266671    0.00000000
                                                     2        0.7000000        0.35695227    0.00000000
                                      S - G
                                                     0        0.0000010       -0.06602313    0.00000000
                                                     2        0.1200000        1.47277455    0.00000000
                                                     2        0.1600000       -4.06924166    0.00000000
                                                     2        0.3000000        5.02952802    0.00000000
                                                     2        0.7000000       -5.65856978    0.00000000
                                                     2        1.7000000        8.57604414    0.00000000
                                      P - G
                                                     0        0.0000010        0.49434425    0.00000000
                                                     2        0.1200000       -1.37391547    0.00000000
                                                     2        0.1600000        3.65411806    0.00000000
                                                     2        0.2800000       -7.36479843    0.00000000
                                                     2        0.6000000       17.22091285    0.00000000
                                                     2        1.1000000      -23.50107827    0.00000000
                                                     2        3.0000000       16.29464063    0.00000000
                                      D - G
                                                     0        0.0000010       -0.28693103    0.00000000
                                                     2        0.1200000        0.12273044    0.00000000
                                                     2        0.3000000       -0.43416384    0.00000000
                                                     2        0.7000000        2.23358493    0.00000000
                                      F - G
                                                     0        0.0000010        0.07263570    0.00000000
                                                     2        0.1400000       -0.76152861    0.00000000
                                                     2        0.2200000        1.98045593    0.00000000
                                                     2        0.4000000       -2.42426427    0.00000000
                                                     2        0.7000000        0.52335237    0.00000000
    5          6            6
                                      G and up 
                                                     0        0.0000010       -0.00286759    0.00000000
                                                     2        0.1200000        0.03193960    0.00000000
                                                     2        0.1600000       -0.04027782    0.00000000
                                                     2        0.2600000        0.24782456    0.00000000
                                                     2        0.4000000       -0.62266671    0.00000000
                                                     2        0.7000000        0.35695227    0.00000000
                                      S - G
                                                     0        0.0000010       -0.06602313    0.00000000
                                                     2        0.1200000        1.47277455    0.00000000
                                                     2        0.1600000       -4.06924166    0.00000000
                                                     2        0.3000000        5.02952802    0.00000000
                                                     2        0.7000000       -5.65856978    0.00000000
                                                     2        1.7000000        8.57604414    0.00000000
                                      P - G
                                                     0        0.0000010        0.49434425    0.00000000
                                                     2        0.1200000       -1.37391547    0.00000000
                                                     2        0.1600000        3.65411806    0.00000000
                                                     2        0.2800000       -7.36479843    0.00000000
                                                     2        0.6000000       17.22091285    0.00000000
                                                     2        1.1000000      -23.50107827    0.00000000
                                                     2        3.0000000       16.29464063    0.00000000
                                      D - G
                                                     0        0.0000010       -0.28693103    0.00000000
                                                     2        0.1200000        0.12273044    0.00000000
                                                     2        0.3000000       -0.43416384    0.00000000
                                                     2        0.7000000        2.23358493    0.00000000
                                      F - G
                                                     0        0.0000010        0.07263570    0.00000000
                                                     2        0.1400000       -0.76152861    0.00000000
                                                     2        0.2200000        1.98045593    0.00000000
                                                     2        0.4000000       -2.42426427    0.00000000
                                                     2        0.7000000        0.52335237    0.00000000
    6          7            7
                                      G and up 
                                                     0        0.0000010        0.00420138    0.00000000
                                                     2        0.1200000        0.05872431    0.00000000
                                                     2        0.1400000       -0.08436978    0.00000000
                                                     2        0.2000000        0.05409159    0.00000000
                                                     2        0.2600000        0.14199713    0.00000000
                                                     2        0.6000000       -0.79062770    0.00000000
                                                     2        0.7000000       -0.14441060    0.00000000
                                                     2        1.5000000        0.73772979    0.00000000
                                      S - G
                                                     0        0.0000010       -0.03094411    0.00000000
                                                     2        0.1200000        0.65332522    0.00000000
                                                     2        0.1800000       -1.38149133    0.00000000
                                                     2        1.3000000        3.29267299    0.00000000
                                      P - G
                                                     0        0.0000010        0.07303105    0.00000000
                                                     2        0.1200000        0.23145115    0.00000000
                                                     2        0.2000000       -1.20679699    0.00000000
                                                     2        0.4000000        1.75088447    0.00000000
                                                     2        1.2000000       -0.67486559    0.00000000
                                      D - G
                                                     0        0.0000010        0.07560739    0.00000000
                                                     2        0.3000000       -0.68679114    0.00000000
                                                     2        0.9000000        3.60133241    0.00000000
                                      F - G
                                                     0        0.0000010       -0.18221184    0.00000000
                                                     2        0.1200000       -0.39369067    0.00000000
                                                     2        0.1800000        0.72091725    0.00000000
                                                     2        0.6000000        0.15946111    0.00000000
    7          7            7
                                      G and up 
                                                     0        0.0000010        0.00420138    0.00000000
                                                     2        0.1200000        0.05872431    0.00000000
                                                     2        0.1400000       -0.08436978    0.00000000
                                                     2        0.2000000        0.05409159    0.00000000
                                                     2        0.2600000        0.14199713    0.00000000
                                                     2        0.6000000       -0.79062770    0.00000000
                                                     2        0.7000000       -0.14441060    0.00000000
                                                     2        1.5000000        0.73772979    0.00000000
                                      S - G
                                                     0        0.0000010       -0.03094411    0.00000000
                                                     2        0.1200000        0.65332522    0.00000000
                                                     2        0.1800000       -1.38149133    0.00000000
                                                     2        1.3000000        3.29267299    0.00000000
                                      P - G
                                                     0        0.0000010        0.07303105    0.00000000
                                                     2        0.1200000        0.23145115    0.00000000
                                                     2        0.2000000       -1.20679699    0.00000000
                                                     2        0.4000000        1.75088447    0.00000000
                                                     2        1.2000000       -0.67486559    0.00000000
                                      D - G
                                                     0        0.0000010        0.07560739    0.00000000
                                                     2        0.3000000       -0.68679114    0.00000000
                                                     2        0.9000000        3.60133241    0.00000000
                                      F - G
                                                     0        0.0000010       -0.18221184    0.00000000
                                                     2        0.1200000       -0.39369067    0.00000000
                                                     2        0.1800000        0.72091725    0.00000000
                                                     2        0.6000000        0.15946111    0.00000000
    8          1            1
                                      F and up 
                                                     0        0.0000010        0.00072061    0.00000000
                                                     2        0.1200000        0.03832357    0.00000000
                                                     2        0.1400000       -0.08683256    0.00000000
                                                     2        0.1800000        0.09312970    0.00000000
                                                     2        0.2800000       -0.02532572    0.00000000
                                                     2        0.4000000       -0.09430787    0.00000000
                                                     2        0.7000000        0.42710831    0.00000000
                                                     2        1.2000000       -2.11746981    0.00000000
                                      S - F
                                                     0        0.0000010        0.14449603    0.00000000
                                                     2        0.1200000       -0.56378993    0.00000000
                                                     2        0.1400000        0.63941249    0.00000000
                                                     2        0.2600000       -0.58461015    0.00000000
                                                     2        0.5000000        1.00157293    0.00000000
                                                     2        1.8000000       -0.14135838    0.00000000
                                      P - F
                                                     0        0.0000010       -0.09353646    0.00000000
                                                     2        0.1200000        0.31768975    0.00000000
                                                     2        0.2000000       -0.71747951    0.00000000
                                                     2        0.4000000        0.65752308    0.00000000
                                                     2        1.7000000        2.94052587    0.00000000
                                      D - F
                                                     0        0.0000010       -0.04491202    0.00000000
                                                     2        0.1200000       -0.02862031    0.00000000
                                                     2        0.1800000       -0.21515263    0.00000000
                                                     2        0.3000000        0.80560647    0.00000000
                                                     2        0.4000000        0.47351754    0.00000000
                                                     2        0.7000000       -4.57051794    0.00000000
                                                     2        1.6000000       18.53737826    0.00000000
    9          1            1
                                      F and up 
                                                     0        0.0000010        0.00072061    0.00000000
                                                     2        0.1200000        0.03832357    0.00000000
                                                     2        0.1400000       -0.08683256    0.00000000
                                                     2        0.1800000        0.09312970    0.00000000
                                                     2        0.2800000       -0.02532572    0.00000000
                                                     2        0.4000000       -0.09430787    0.00000000
                                                     2        0.7000000        0.42710831    0.00000000
                                                     2        1.2000000       -2.11746981    0.00000000
                                      S - F
                                                     0        0.0000010        0.14449603    0.00000000
                                                     2        0.1200000       -0.56378993    0.00000000
                                                     2        0.1400000        0.63941249    0.00000000
                                                     2        0.2600000       -0.58461015    0.00000000
                                                     2        0.5000000        1.00157293    0.00000000
                                                     2        1.8000000       -0.14135838    0.00000000
                                      P - F
                                                     0        0.0000010       -0.09353646    0.00000000
                                                     2        0.1200000        0.31768975    0.00000000
                                                     2        0.2000000       -0.71747951    0.00000000
                                                     2        0.4000000        0.65752308    0.00000000
                                                     2        1.7000000        2.94052587    0.00000000
                                      D - F
                                                     0        0.0000010       -0.04491202    0.00000000
                                                     2        0.1200000       -0.02862031    0.00000000
                                                     2        0.1800000       -0.21515263    0.00000000
                                                     2        0.3000000        0.80560647    0.00000000
                                                     2        0.4000000        0.47351754    0.00000000
                                                     2        0.7000000       -4.57051794    0.00000000
                                                     2        1.6000000       18.53737826    0.00000000
   10          1            1
                                      F and up 
                                                     0        0.0000010        0.00072061    0.00000000
                                                     2        0.1200000        0.03832357    0.00000000
                                                     2        0.1400000       -0.08683256    0.00000000
                                                     2        0.1800000        0.09312970    0.00000000
                                                     2        0.2800000       -0.02532572    0.00000000
                                                     2        0.4000000       -0.09430787    0.00000000
                                                     2        0.7000000        0.42710831    0.00000000
                                                     2        1.2000000       -2.11746981    0.00000000
                                      S - F
                                                     0        0.0000010        0.14449603    0.00000000
                                                     2        0.1200000       -0.56378993    0.00000000
                                                     2        0.1400000        0.63941249    0.00000000
                                                     2        0.2600000       -0.58461015    0.00000000
                                                     2        0.5000000        1.00157293    0.00000000
                                                     2        1.8000000       -0.14135838    0.00000000
                                      P - F
                                                     0        0.0000010       -0.09353646    0.00000000
                                                     2        0.1200000        0.31768975    0.00000000
                                                     2        0.2000000       -0.71747951    0.00000000
                                                     2        0.4000000        0.65752308    0.00000000
                                                     2        1.7000000        2.94052587    0.00000000
                                      D - F
                                                     0        0.0000010       -0.04491202    0.00000000
                                                     2        0.1200000       -0.02862031    0.00000000
                                                     2        0.1800000       -0.21515263    0.00000000
                                                     2        0.3000000        0.80560647    0.00000000
                                                     2        0.4000000        0.47351754    0.00000000
                                                     2        0.7000000       -4.57051794    0.00000000
                                                     2        1.6000000       18.53737826    0.00000000
   11          1            1
                                      F and up 
                                                     0        0.0000010        0.00072061    0.00000000
                                                     2        0.1200000        0.03832357    0.00000000
                                                     2        0.1400000       -0.08683256    0.00000000
                                                     2        0.1800000        0.09312970    0.00000000
                                                     2        0.2800000       -0.02532572    0.00000000
                                                     2        0.4000000       -0.09430787    0.00000000
                                                     2        0.7000000        0.42710831    0.00000000
                                                     2        1.2000000       -2.11746981    0.00000000
                                      S - F
                                                     0        0.0000010        0.14449603    0.00000000
                                                     2        0.1200000       -0.56378993    0.00000000
                                                     2        0.1400000        0.63941249    0.00000000
                                                     2        0.2600000       -0.58461015    0.00000000
                                                     2        0.5000000        1.00157293    0.00000000
                                                     2        1.8000000       -0.14135838    0.00000000
                                      P - F
                                                     0        0.0000010       -0.09353646    0.00000000
                                                     2        0.1200000        0.31768975    0.00000000
                                                     2        0.2000000       -0.71747951    0.00000000
                                                     2        0.4000000        0.65752308    0.00000000
                                                     2        1.7000000        2.94052587    0.00000000
                                      D - F
                                                     0        0.0000010       -0.04491202    0.00000000
                                                     2        0.1200000       -0.02862031    0.00000000
                                                     2        0.1800000       -0.21515263    0.00000000
                                                     2        0.3000000        0.80560647    0.00000000
                                                     2        0.4000000        0.47351754    0.00000000
                                                     2        0.7000000       -4.57051794    0.00000000
                                                     2        1.6000000       18.53737826    0.00000000
   12          1            1
                                      F and up 
                                                     0        0.0000010        0.00072061    0.00000000
                                                     2        0.1200000        0.03832357    0.00000000
                                                     2        0.1400000       -0.08683256    0.00000000
                                                     2        0.1800000        0.09312970    0.00000000
                                                     2        0.2800000       -0.02532572    0.00000000
                                                     2        0.4000000       -0.09430787    0.00000000
                                                     2        0.7000000        0.42710831    0.00000000
                                                     2        1.2000000       -2.11746981    0.00000000
                                      S - F
                                                     0        0.0000010        0.14449603    0.00000000
                                                     2        0.1200000       -0.56378993    0.00000000
                                                     2        0.1400000        0.63941249    0.00000000
                                                     2        0.2600000       -0.58461015    0.00000000
                                                     2        0.5000000        1.00157293    0.00000000
                                                     2        1.8000000       -0.14135838    0.00000000
                                      P - F
                                                     0        0.0000010       -0.09353646    0.00000000
                                                     2        0.1200000        0.31768975    0.00000000
                                                     2        0.2000000       -0.71747951    0.00000000
                                                     2        0.4000000        0.65752308    0.00000000
                                                     2        1.7000000        2.94052587    0.00000000
                                      D - F
                                                     0        0.0000010       -0.04491202    0.00000000
                                                     2        0.1200000       -0.02862031    0.00000000
                                                     2        0.1800000       -0.21515263    0.00000000
                                                     2        0.3000000        0.80560647    0.00000000
                                                     2        0.4000000        0.47351754    0.00000000
                                                     2        0.7000000       -4.57051794    0.00000000
                                                     2        1.6000000       18.53737826    0.00000000
   13          1            1
                                      F and up 
                                                     0        0.0000010        0.00072061    0.00000000
                                                     2        0.1200000        0.03832357    0.00000000
                                                     2        0.1400000       -0.08683256    0.00000000
                                                     2        0.1800000        0.09312970    0.00000000
                                                     2        0.2800000       -0.02532572    0.00000000
                                                     2        0.4000000       -0.09430787    0.00000000
                                                     2        0.7000000        0.42710831    0.00000000
                                                     2        1.2000000       -2.11746981    0.00000000
                                      S - F
                                                     0        0.0000010        0.14449603    0.00000000
                                                     2        0.1200000       -0.56378993    0.00000000
                                                     2        0.1400000        0.63941249    0.00000000
                                                     2        0.2600000       -0.58461015    0.00000000
                                                     2        0.5000000        1.00157293    0.00000000
                                                     2        1.8000000       -0.14135838    0.00000000
                                      P - F
                                                     0        0.0000010       -0.09353646    0.00000000
                                                     2        0.1200000        0.31768975    0.00000000
                                                     2        0.2000000       -0.71747951    0.00000000
                                                     2        0.4000000        0.65752308    0.00000000
                                                     2        1.7000000        2.94052587    0.00000000
                                      D - F
                                                     0        0.0000010       -0.04491202    0.00000000
                                                     2        0.1200000       -0.02862031    0.00000000
                                                     2        0.1800000       -0.21515263    0.00000000
                                                     2        0.3000000        0.80560647    0.00000000
                                                     2        0.4000000        0.47351754    0.00000000
                                                     2        0.7000000       -4.57051794    0.00000000
                                                     2        1.6000000       18.53737826    0.00000000
   14          1            1
                                      F and up 
                                                     0        0.0000010        0.00072061    0.00000000
                                                     2        0.1200000        0.03832357    0.00000000
                                                     2        0.1400000       -0.08683256    0.00000000
                                                     2        0.1800000        0.09312970    0.00000000
                                                     2        0.2800000       -0.02532572    0.00000000
                                                     2        0.4000000       -0.09430787    0.00000000
                                                     2        0.7000000        0.42710831    0.00000000
                                                     2        1.2000000       -2.11746981    0.00000000
                                      S - F
                                                     0        0.0000010        0.14449603    0.00000000
                                                     2        0.1200000       -0.56378993    0.00000000
                                                     2        0.1400000        0.63941249    0.00000000
                                                     2        0.2600000       -0.58461015    0.00000000
                                                     2        0.5000000        1.00157293    0.00000000
                                                     2        1.8000000       -0.14135838    0.00000000
                                      P - F
                                                     0        0.0000010       -0.09353646    0.00000000
                                                     2        0.1200000        0.31768975    0.00000000
                                                     2        0.2000000       -0.71747951    0.00000000
                                                     2        0.4000000        0.65752308    0.00000000
                                                     2        1.7000000        2.94052587    0.00000000
                                      D - F
                                                     0        0.0000010       -0.04491202    0.00000000
                                                     2        0.1200000       -0.02862031    0.00000000
                                                     2        0.1800000       -0.21515263    0.00000000
                                                     2        0.3000000        0.80560647    0.00000000
                                                     2        0.4000000        0.47351754    0.00000000
                                                     2        0.7000000       -4.57051794    0.00000000
                                                     2        1.6000000       18.53737826    0.00000000
   15          1            1
                                      F and up 
                                                     0        0.0000010        0.00072061    0.00000000
                                                     2        0.1200000        0.03832357    0.00000000
                                                     2        0.1400000       -0.08683256    0.00000000
                                                     2        0.1800000        0.09312970    0.00000000
                                                     2        0.2800000       -0.02532572    0.00000000
                                                     2        0.4000000       -0.09430787    0.00000000
                                                     2        0.7000000        0.42710831    0.00000000
                                                     2        1.2000000       -2.11746981    0.00000000
                                      S - F
                                                     0        0.0000010        0.14449603    0.00000000
                                                     2        0.1200000       -0.56378993    0.00000000
                                                     2        0.1400000        0.63941249    0.00000000
                                                     2        0.2600000       -0.58461015    0.00000000
                                                     2        0.5000000        1.00157293    0.00000000
                                                     2        1.8000000       -0.14135838    0.00000000
                                      P - F
                                                     0        0.0000010       -0.09353646    0.00000000
                                                     2        0.1200000        0.31768975    0.00000000
                                                     2        0.2000000       -0.71747951    0.00000000
                                                     2        0.4000000        0.65752308    0.00000000
                                                     2        1.7000000        2.94052587    0.00000000
                                      D - F
                                                     0        0.0000010       -0.04491202    0.00000000
                                                     2        0.1200000       -0.02862031    0.00000000
                                                     2        0.1800000       -0.21515263    0.00000000
                                                     2        0.3000000        0.80560647    0.00000000
                                                     2        0.4000000        0.47351754    0.00000000
                                                     2        0.7000000       -4.57051794    0.00000000
                                                     2        1.6000000       18.53737826    0.00000000
   16          1            1
                                      F and up 
                                                     0        0.0000010        0.00072061    0.00000000
                                                     2        0.1200000        0.03832357    0.00000000
                                                     2        0.1400000       -0.08683256    0.00000000
                                                     2        0.1800000        0.09312970    0.00000000
                                                     2        0.2800000       -0.02532572    0.00000000
                                                     2        0.4000000       -0.09430787    0.00000000
                                                     2        0.7000000        0.42710831    0.00000000
                                                     2        1.2000000       -2.11746981    0.00000000
                                      S - F
                                                     0        0.0000010        0.14449603    0.00000000
                                                     2        0.1200000       -0.56378993    0.00000000
                                                     2        0.1400000        0.63941249    0.00000000
                                                     2        0.2600000       -0.58461015    0.00000000
                                                     2        0.5000000        1.00157293    0.00000000
                                                     2        1.8000000       -0.14135838    0.00000000
                                      P - F
                                                     0        0.0000010       -0.09353646    0.00000000
                                                     2        0.1200000        0.31768975    0.00000000
                                                     2        0.2000000       -0.71747951    0.00000000
                                                     2        0.4000000        0.65752308    0.00000000
                                                     2        1.7000000        2.94052587    0.00000000
                                      D - F
                                                     0        0.0000010       -0.04491202    0.00000000
                                                     2        0.1200000       -0.02862031    0.00000000
                                                     2        0.1800000       -0.21515263    0.00000000
                                                     2        0.3000000        0.80560647    0.00000000
                                                     2        0.4000000        0.47351754    0.00000000
                                                     2        0.7000000       -4.57051794    0.00000000
                                                     2        1.6000000       18.53737826    0.00000000
   17          1            1
                                      F and up 
                                                     0        0.0000010        0.00072061    0.00000000
                                                     2        0.1200000        0.03832357    0.00000000
                                                     2        0.1400000       -0.08683256    0.00000000
                                                     2        0.1800000        0.09312970    0.00000000
                                                     2        0.2800000       -0.02532572    0.00000000
                                                     2        0.4000000       -0.09430787    0.00000000
                                                     2        0.7000000        0.42710831    0.00000000
                                                     2        1.2000000       -2.11746981    0.00000000
                                      S - F
                                                     0        0.0000010        0.14449603    0.00000000
                                                     2        0.1200000       -0.56378993    0.00000000
                                                     2        0.1400000        0.63941249    0.00000000
                                                     2        0.2600000       -0.58461015    0.00000000
                                                     2        0.5000000        1.00157293    0.00000000
                                                     2        1.8000000       -0.14135838    0.00000000
                                      P - F
                                                     0        0.0000010       -0.09353646    0.00000000
                                                     2        0.1200000        0.31768975    0.00000000
                                                     2        0.2000000       -0.71747951    0.00000000
                                                     2        0.4000000        0.65752308    0.00000000
                                                     2        1.7000000        2.94052587    0.00000000
                                      D - F
                                                     0        0.0000010       -0.04491202    0.00000000
                                                     2        0.1200000       -0.02862031    0.00000000
                                                     2        0.1800000       -0.21515263    0.00000000
                                                     2        0.3000000        0.80560647    0.00000000
                                                     2        0.4000000        0.47351754    0.00000000
                                                     2        0.7000000       -4.57051794    0.00000000
                                                     2        1.6000000       18.53737826    0.00000000
   18          1            1
                                      F and up 
                                                     0        0.0000010        0.00072061    0.00000000
                                                     2        0.1200000        0.03832357    0.00000000
                                                     2        0.1400000       -0.08683256    0.00000000
                                                     2        0.1800000        0.09312970    0.00000000
                                                     2        0.2800000       -0.02532572    0.00000000
                                                     2        0.4000000       -0.09430787    0.00000000
                                                     2        0.7000000        0.42710831    0.00000000
                                                     2        1.2000000       -2.11746981    0.00000000
                                      S - F
                                                     0        0.0000010        0.14449603    0.00000000
                                                     2        0.1200000       -0.56378993    0.00000000
                                                     2        0.1400000        0.63941249    0.00000000
                                                     2        0.2600000       -0.58461015    0.00000000
                                                     2        0.5000000        1.00157293    0.00000000
                                                     2        1.8000000       -0.14135838    0.00000000
                                      P - F
                                                     0        0.0000010       -0.09353646    0.00000000
                                                     2        0.1200000        0.31768975    0.00000000
                                                     2        0.2000000       -0.71747951    0.00000000
                                                     2        0.4000000        0.65752308    0.00000000
                                                     2        1.7000000        2.94052587    0.00000000
                                      D - F
                                                     0        0.0000010       -0.04491202    0.00000000
                                                     2        0.1200000       -0.02862031    0.00000000
                                                     2        0.1800000       -0.21515263    0.00000000
                                                     2        0.3000000        0.80560647    0.00000000
                                                     2        0.4000000        0.47351754    0.00000000
                                                     2        0.7000000       -4.57051794    0.00000000
                                                     2        1.6000000       18.53737826    0.00000000
   19          1            1
                                      F and up 
                                                     0        0.0000010        0.00072061    0.00000000
                                                     2        0.1200000        0.03832357    0.00000000
                                                     2        0.1400000       -0.08683256    0.00000000
                                                     2        0.1800000        0.09312970    0.00000000
                                                     2        0.2800000       -0.02532572    0.00000000
                                                     2        0.4000000       -0.09430787    0.00000000
                                                     2        0.7000000        0.42710831    0.00000000
                                                     2        1.2000000       -2.11746981    0.00000000
                                      S - F
                                                     0        0.0000010        0.14449603    0.00000000
                                                     2        0.1200000       -0.56378993    0.00000000
                                                     2        0.1400000        0.63941249    0.00000000
                                                     2        0.2600000       -0.58461015    0.00000000
                                                     2        0.5000000        1.00157293    0.00000000
                                                     2        1.8000000       -0.14135838    0.00000000
                                      P - F
                                                     0        0.0000010       -0.09353646    0.00000000
                                                     2        0.1200000        0.31768975    0.00000000
                                                     2        0.2000000       -0.71747951    0.00000000
                                                     2        0.4000000        0.65752308    0.00000000
                                                     2        1.7000000        2.94052587    0.00000000
                                      D - F
                                                     0        0.0000010       -0.04491202    0.00000000
                                                     2        0.1200000       -0.02862031    0.00000000
                                                     2        0.1800000       -0.21515263    0.00000000
                                                     2        0.3000000        0.80560647    0.00000000
                                                     2        0.4000000        0.47351754    0.00000000
                                                     2        0.7000000       -4.57051794    0.00000000
                                                     2        1.6000000       18.53737826    0.00000000
 ======================================================================================================
   269 basis functions,   433 primitive gaussians,   283 cartesian basis functions
    28 alpha electrons       28 beta electrons
       nuclear repulsion energy       325.7972265357 Hartrees.
 NAtoms=   19 NActive=   19 NUniq=   19 SFac= 1.00D+00 NAtFMM=   60 NAOKFM=F Big=F
   1 Symmetry operations used in ECPInt.
 ECPInt:  NShTT=    7626 NPrTT=   30486 LenC2=    7623 LenP2D=   24653.
 LDataN:  DoStor=T MaxTD1= 6 Len=  172
 Initial guess from the checkpoint file:  "N-N-N--trimethylethanimidamide.chk"
 B after Tr=     0.000000   -0.000000   -0.000000
         Rot=    1.000000    0.000000    0.000000   -0.000000 Ang=  -0.00 deg.
 >>>>>>>>>> Convergence criterion not met.
 SCF Done:  E(RHF) =  -306.746661843     A.U. after    2 cycles
            NFock=  1  Conv=0.21D+00     -V/T= 2.0147

 **********************************************************************

            Population analysis using the SCF Density.

 **********************************************************************

 Orbital symmetries:
       Occupied  (A) (A) (A) (A) (A) (A) (A) (A) (A) (A) (A) (A)
                 (A) (A) (A) (A) (A) (A) (A) (A) (A) (A) (A) (A)
                 (A) (A) (A) (A)
       Virtual   (A) (A) (A) (A) (A) (A) (A) (A) (A) (A) (A) (A)
                 (A) (A) (A) (A) (A) (A) (A) (A) (A) (A) (A) (A)
                 (A) (A) (A) (A) (A) (A) (A) (A) (A) (A) (A) (A)
                 (A) (A) (A) (A) (A) (A) (A) (A) (A) (A) (A) (A)
                 (A) (A) (A) (A) (A) (A) (A) (A) (A) (A) (A) (A)
                 (A) (A) (A) (A) (A) (A) (A) (A) (A) (A) (A) (A)
                 (A) (A) (A) (A) (A) (A) (A) (A) (A) (A) (A) (A)
                 (A) (A) (A) (A) (A) (A) (A) (A) (A) (A) (A) (A)
                 (A) (A) (A) (A) (A) (A) (A) (A) (A) (A) (A) (A)
                 (A) (A) (A) (A) (A) (A) (A) (A) (A) (A) (A) (A)
                 (A) (A) (A) (A) (A) (A) (A) (A) (A) (A) (A) (A)
                 (A) (A) (A) (A) (A) (A) (A) (A) (A) (A) (A) (A)
                 (A) (A) (A) (A) (A) (A) (A) (A) (A) (A) (A) (A)
                 (A) (A) (A) (A) (A) (A) (A) (A) (A) (A) (A) (A)
                 (A) (A) (A) (A) (A) (A) (A) (A) (A) (A) (A) (A)
                 (A) (A) (A) (A) (A) (A) (A) (A) (A) (A) (A) (A)
                 (A) (A) (A) (A) (A) (A) (A) (A) (A) (A) (A) (A)
                 (A) (A) (A) (A) (A) (A) (A) (A) (A) (A) (A) (A)
                 (A) (A) (A) (A) (A) (A) (A) (A) (A) (A) (A) (A)
                 (A) (A) (A) (A) (A) (A) (A) (A) (A) (A) (A) (A)
                 (A)
 The electronic state is 1-A.
 Alpha  occ. eigenvalues --  -15.72096 -15.69140 -11.46133 -11.39894 -11.39088
 Alpha  occ. eigenvalues --  -11.36781 -11.36716  -1.47332  -1.31331  -1.10999
 Alpha  occ. eigenvalues --   -1.03958  -0.97367  -0.92052  -0.72770  -0.65652
 Alpha  occ. eigenvalues --   -0.64589  -0.63199  -0.58740  -0.57182  -0.55608
 Alpha  occ. eigenvalues --   -0.54961  -0.54826  -0.51441  -0.50898  -0.47666
 Alpha  occ. eigenvalues --   -0.39869  -0.33718  -0.28683
 Alpha virt. eigenvalues --    0.03646   0.05337   0.05393   0.05745   0.05880
 Alpha virt. eigenvalues --    0.06023   0.06712   0.07012   0.07067   0.08519
 Alpha virt. eigenvalues --    0.08834   0.09473   0.10752   0.12329   0.13126
 Alpha virt. eigenvalues --    0.13487   0.14874   0.15292   0.16147   0.16516
 Alpha virt. eigenvalues --    0.16767   0.17486   0.17823   0.18592   0.19251
 Alpha virt. eigenvalues --    0.19785   0.20540   0.21485   0.21897   0.21990
 Alpha virt. eigenvalues --    0.22245   0.22783   0.23781   0.24556   0.25703
 Alpha virt. eigenvalues --    0.27583   0.29224   0.30184   0.30375   0.32031
 Alpha virt. eigenvalues --    0.32364   0.33720   0.34458   0.34616   0.36272
 Alpha virt. eigenvalues --    0.37423   0.38856   0.39615   0.40576   0.41606
 Alpha virt. eigenvalues --    0.41875   0.43410   0.44059   0.44749   0.45533
 Alpha virt. eigenvalues --    0.45915   0.46245   0.46593   0.46895   0.47648
 Alpha virt. eigenvalues --    0.48243   0.48853   0.49269   0.49356   0.51307
 Alpha virt. eigenvalues --    0.51646   0.52412   0.53509   0.54996   0.55864
 Alpha virt. eigenvalues --    0.56684   0.57573   0.58499   0.58742   0.59900
 Alpha virt. eigenvalues --    0.60577   0.61726   0.62060   0.62940   0.63672
 Alpha virt. eigenvalues --    0.64399   0.64867   0.66203   0.66559   0.67636
 Alpha virt. eigenvalues --    0.68554   0.68769   0.69621   0.70057   0.70981
 Alpha virt. eigenvalues --    0.72436   0.72824   0.73446   0.74321   0.75703
 Alpha virt. eigenvalues --    0.76856   0.78549   0.78827   0.79677   0.80062
 Alpha virt. eigenvalues --    0.81299   0.82706   0.83303   0.84142   0.85009
 Alpha virt. eigenvalues --    0.85361   0.87567   0.88324   0.88984   0.90230
 Alpha virt. eigenvalues --    0.90822   0.91320   0.93098   0.93282   0.95706
 Alpha virt. eigenvalues --    0.96666   0.97365   0.99683   1.02046   1.02467
 Alpha virt. eigenvalues --    1.06162   1.06816   1.10386   1.12518   1.15432
 Alpha virt. eigenvalues --    1.16650   1.17636   1.20189   1.23580   1.24797
 Alpha virt. eigenvalues --    1.28939   1.29303   1.31683   1.33242   1.33599
 Alpha virt. eigenvalues --    1.36429   1.38510   1.40136   1.42808   1.49464
 Alpha virt. eigenvalues --    1.50365   1.53607   1.57049   1.58456   1.64151
 Alpha virt. eigenvalues --    1.65690   1.71494   1.73917   1.74700   1.79425
 Alpha virt. eigenvalues --    1.82258   1.83629   1.85594   1.88151   1.91389
 Alpha virt. eigenvalues --    1.91933   1.92970   1.93645   1.95911   1.98240
 Alpha virt. eigenvalues --    1.99386   2.00587   2.01934   2.03051   2.04771
 Alpha virt. eigenvalues --    2.05883   2.07849   2.08528   2.11643   2.12805
 Alpha virt. eigenvalues --    2.14230   2.15886   2.16800   2.18117   2.20785
 Alpha virt. eigenvalues --    2.25573   2.25917   2.28319   2.31348   2.34764
 Alpha virt. eigenvalues --    2.36598   2.37862   2.38536   2.41334   2.42089
 Alpha virt. eigenvalues --    2.45154   2.46346   2.51599   2.54086   2.56342
 Alpha virt. eigenvalues --    2.60713   2.61683   2.63029   2.66133   2.66414
 Alpha virt. eigenvalues --    2.69170   2.70073   2.71466   2.74736   2.76390
 Alpha virt. eigenvalues --    2.76698   2.78141   2.81435   2.84464   2.85753
 Alpha virt. eigenvalues --    2.86544   2.87582   2.90177   2.93654   2.94584
 Alpha virt. eigenvalues --    2.97776   3.02782   3.05211   3.07009   3.11603
 Alpha virt. eigenvalues --    3.13927   3.17252   3.22677   3.24581   3.26899
 Alpha virt. eigenvalues --    3.28827   3.31845   3.35585   3.37635   3.40148
 Alpha virt. eigenvalues --    3.50376   3.54059   3.56488   3.63483   3.70584
 Alpha virt. eigenvalues --    3.73822   3.76238   3.80457   3.82319   3.84353
 Alpha virt. eigenvalues --    3.85823   3.90858   3.94628   3.97878   4.04303
 Alpha virt. eigenvalues --    4.29065
          Condensed to atoms (all electrons):
 Mulliken charges:
               1
     1  C    5.208180
     2  C   -4.268479
     3  C   -3.646403
     4  C   -3.821030
     5  C   -3.632089
     6  N   -3.432220
     7  N   -3.197120
     8  H    1.206552
     9  H    1.242228
    10  H    1.361491
    11  H    1.304819
    12  H    1.336273
    13  H    1.494205
    14  H    1.329788
    15  H    1.270818
    16  H    1.741733
    17  H    1.460851
    18  H    1.498813
    19  H    1.541589
 Sum of Mulliken charges =   0.00000
 Mulliken charges with hydrogens summed into heavy atoms:
               1
     1  C    5.208180
     2  C   -0.458208
     3  C    0.488894
     4  C    0.521310
     5  C    0.869165
     6  N   -3.432220
     7  N   -3.197120
 Electronic spatial extent (au):  <R**2>=            888.5124
 Charge=             -0.0000 electrons
 Dipole moment (field-independent basis, Debye):
    X=              1.9882    Y=             -1.1553    Z=             -0.0693  Tot=              2.3006

 Test job not archived.
 1\1\GINC-SE049\SP\RHF\Aug-CC-pVDZ\C5H12N2\OHZDE\06-Apr-2025\0\\#t hf a
 ug-cc-pvdz iop(5/13=1,5/36=2,99/5=2) pseudo=read geom=check guess=(rea
 d,tcheck) scf=(maxcycle=1)\\title\\0,1\C,0,-0.187905,0.651224,0.062869
 \C,0,0.516351,1.963676,0.319752\C,0,-2.243533,-0.480238,-0.361032\C,0,
 0.408532,-1.679218,0.623345\C,0,2.013376,-0.300958,-0.547808\N,0,-1.46
 3119,0.665717,0.054242\N,0,0.62009,-0.477546,-0.174016\H,0,-0.225648,2
 .696922,0.619317\H,0,1.012868,2.331307,-0.580297\H,0,1.278208,1.87296,
 1.096432\H,0,-3.133483,-0.114305,-0.874912\H,0,-2.599264,-1.057251,0.4
 98552\H,0,-1.707657,-1.161888,-1.031043\H,0,1.084452,-1.699902,1.48915
 6\H,0,0.600243,-2.572869,0.0253\H,0,-0.607803,-1.727617,0.994091\H,0,2
 .36724,-1.22018,-1.017111\H,0,2.668083,-0.091653,0.309584\H,0,2.123038
 ,0.500365,-1.273403\\Version=ES64L-G16RevC.01\State=1-A\HF=-306.746661
 8\RMSD=2.058e-01\Dipole=0.7822253,-0.4545418,-0.0272651\Quadrupole=-0.
 4559514,0.1072241,0.3487273,1.8253613,-0.1178413,-0.6613989\PG=C01 [X(
 C5H12N2)]\\@


 THERE IS AN OLD, OLD RECIPE IN MAINE FOR STEWING COOT. PLACE THE
 BIRD IN A KETTLE OF WATER WITH A RED BUILDING BRICK FREE OF MORTAR AND
 BLEMISHES. PARBOIL THE COOT AND BRICK TOGETHER FOR THREE HOURS.
 POUR OFF THE WATER, REFILL THE KETTLE, AND AGAIN PARBOIL FOR THREE HOURS.
 ONCE AGAIN POUR OFF THE WATER, FOR THE LAST TIME ADD FRESH WATER,
 AND LET THE COOT AND BRICK SIMMER TOGETHER OVERNIGHT. IN THE MORNING,
 THROW AWAY THE COOT AND EAT THE BRICK.
 Job cpu time:       0 days  0 hours  1 minutes 34.6 seconds.
 Elapsed time:       0 days  0 hours  0 minutes  7.0 seconds.
 File lengths (MBytes):  RWF=     14 Int=      0 D2E=      0 Chk=     10 Scr=      1
 Normal termination of Gaussian 16 at Sun Apr  6 08:08:55 2025.
