 Entering Gaussian System, Link 0=g16
 Input=S-nitrosocysteine.gjf
 Output=S-nitrosocysteine.log
 Initial command:
 /arc/software/Gaussian/g16.c01/l1.exe "/tmp/slurm/4819953/Gau-4046979.inp" -scrdir="/tmp/slurm/4819953/"
 Entering Link 1 = /arc/software/Gaussian/g16.c01/l1.exe PID=   4046980.
  
 Copyright (c) 1988-2019, Gaussian, Inc.  All Rights Reserved.
  
 This is part of the Gaussian(R) 16 program.  It is based on
 the Gaussian(R) 09 system (copyright 2009, Gaussian, Inc.),
 the Gaussian(R) 03 system (copyright 2003, Gaussian, Inc.),
 the Gaussian(R) 98 system (copyright 1998, Gaussian, Inc.),
 the Gaussian(R) 94 system (copyright 1995, Gaussian, Inc.),
 the Gaussian 92(TM) system (copyright 1992, Gaussian, Inc.),
 the Gaussian 90(TM) system (copyright 1990, Gaussian, Inc.),
 the Gaussian 88(TM) system (copyright 1988, Gaussian, Inc.),
 the Gaussian 86(TM) system (copyright 1986, Carnegie Mellon
 University), and the Gaussian 82(TM) system (copyright 1983,
 Carnegie Mellon University). Gaussian is a federally registered
 trademark of Gaussian, Inc.
  
 This software contains proprietary and confidential information,
 including trade secrets, belonging to Gaussian, Inc.
  
 This software is provided under written license and may be
 used, copied, transmitted, or stored only in accord with that
 written license.
  
 The following legend is applicable only to US Government
 contracts under FAR:
  
                    RESTRICTED RIGHTS LEGEND
  
 Use, reproduction and disclosure by the US Government is
 subject to restrictions as set forth in subparagraphs (a)
 and (c) of the Commercial Computer Software - Restricted
 Rights clause in FAR 52.227-19.
  
 Gaussian, Inc.
 340 Quinnipiac St., Bldg. 40, Wallingford CT 06492
  
  
 ---------------------------------------------------------------
 Warning -- This program may not be used in any manner that
 competes with the business of Gaussian, Inc. or will provide
 assistance to any competitor of Gaussian, Inc.  The licensee
 of this program is prohibited from giving any competitor of
 Gaussian, Inc. access to this program.  By using this program,
 the user acknowledges that Gaussian, Inc. is engaged in the
 business of creating and licensing software in the field of
 computational chemistry and represents and warrants to the
 licensee that it is not a competitor of Gaussian, Inc. and that
 it will not use this program in any manner prohibited above.
 ---------------------------------------------------------------
  

 Cite this work as:
 Gaussian 16, Revision C.01,
 M. J. Frisch, G. W. Trucks, H. B. Schlegel, G. E. Scuseria, 
 M. A. Robb, J. R. Cheeseman, G. Scalmani, V. Barone, 
 G. A. Petersson, H. Nakatsuji, X. Li, M. Caricato, A. V. Marenich, 
 J. Bloino, B. G. Janesko, R. Gomperts, B. Mennucci, H. P. Hratchian, 
 J. V. Ortiz, A. F. Izmaylov, J. L. Sonnenberg, D. Williams-Young, 
 F. Ding, F. Lipparini, F. Egidi, J. Goings, B. Peng, A. Petrone, 
 T. Henderson, D. Ranasinghe, V. G. Zakrzewski, J. Gao, N. Rega, 
 G. Zheng, W. Liang, M. Hada, M. Ehara, K. Toyota, R. Fukuda, 
 J. Hasegawa, M. Ishida, T. Nakajima, Y. Honda, O. Kitao, H. Nakai, 
 T. Vreven, K. Throssell, J. A. Montgomery, Jr., J. E. Peralta, 
 F. Ogliaro, M. J. Bearpark, J. J. Heyd, E. N. Brothers, K. N. Kudin, 
 V. N. Staroverov, T. A. Keith, R. Kobayashi, J. Normand, 
 K. Raghavachari, A. P. Rendell, J. C. Burant, S. S. Iyengar, 
 J. Tomasi, M. Cossi, J. M. Millam, M. Klene, C. Adamo, R. Cammi, 
 J. W. Ochterski, R. L. Martin, K. Morokuma, O. Farkas, 
 J. B. Foresman, and D. J. Fox, Gaussian, Inc., Wallingford CT, 2019.
 
 ******************************************
 Gaussian 16:  ES64L-G16RevC.01  3-Jul-2019
                 6-Apr-2025 
 ******************************************
 %nprocs=16
 Will use up to   16 processors via shared memory.
 %mem=30GB
 %chk=S-nitrosocysteine.chk
 ----------------------------------------------------------------------
 #t hf aug-cc-pvdz symm=none int=(grid=ultrafine) guess=(read,tcheck) s
 table=(opt,rrhf)
 ----------------------------------------------------------------------
 -----
 title
 -----
 Symbolic Z-matrix:
 Charge =  0 Multiplicity = 1
 S                    -1.70806  -0.94454   0.23878 
 O                     2.54331   1.08266  -0.73684 
 O                     3.09984  -0.99562  -0.09141 
 O                    -3.63753   0.70492  -0.30855 
 N                     0.64821   1.17518   1.19836 
 N                    -2.50046   0.53881  -0.54386 
 C                     0.95815  -0.10804   0.59644 
 C                    -0.05748  -0.63832  -0.45039 
 C                     2.322    -0.07878  -0.08119 
 H                     1.04791  -0.84729   1.39098 
 H                     0.29331  -1.57305  -0.88585 
 H                    -0.19672   0.09063  -1.25158 
 H                    -0.22754   1.13295   1.70339 
 H                     0.58403   1.91038   0.5055 
 H                     3.4126    1.01618  -1.15919 
 
                    Distance matrix (angstroms):
                    1          2          3          4          5
     1  S    0.000000
     2  O    4.809942   0.000000
     3  O    4.819490   2.246232   0.000000
     4  O    2.596762   6.207173   6.952062   0.000000
     5  N    3.311497   2.710160   3.519422   4.567221   0.000000
     6  N    1.854928   5.076677   5.824303   1.172990   3.654367
     7  C    2.817149   2.389171   2.418210   4.753970   1.450870
     8  C    1.814695   3.131768   3.197687   3.826379   2.550516
     9  C    4.134403   1.351965   1.202386   6.015142   2.451777
    10  H    2.988707   3.238611   2.535724   5.220260   2.070570
    11  H    2.380179   3.483903   2.973417   4.579730   3.467371
    12  H    2.361539   2.959201   3.659676   3.620201   2.809330
    13  H    2.941599   3.692549   4.338614   3.982355   1.011825
    14  H    3.670882   2.463188   3.889778   4.465133   1.012269
    15  H    5.658604   0.968734   2.298974   7.108079   3.636634
                    6          7          8          9         10
     6  N    0.000000
     7  C    3.698740   0.000000
     8  C    2.713393   1.551950   0.000000
     9  C    4.883809   1.523190   2.472112   0.000000
    10  H    4.272679   1.088969   2.157822   2.093133   0.000000
    11  H    3.518811   2.187569   1.089224   2.644987   2.506014
    12  H    2.451313   2.188230   1.092086   2.782530   3.067882
    13  H    3.251045   2.042372   2.793758   3.339637   2.376076
    14  H    3.535028   2.054809   2.796623   2.705820   2.933258
    15  H    5.964118   3.220304   3.909115   1.884251   3.945582
                   11         12         13         14         15
    11  H    0.000000
    12  H    1.772489   0.000000
    13  H    3.781258   3.133565   0.000000
    14  H    3.762267   2.647331   1.642560   0.000000
    15  H    4.063103   3.727243   4.632343   3.401695   0.000000
 Symmetry turned off by external request.
 Rotational constants (GHZ):           3.1423055           0.6345122           0.5922343
   265 basis functions,   491 primitive gaussians,   283 cartesian basis functions
    39 alpha electrons       39 beta electrons
       nuclear repulsion energy       525.5074576747 Hartrees.
 NAtoms=   15 NActive=   15 NUniq=   15 SFac= 1.00D+00 NAtFMM=   60 NAOKFM=F Big=F
 ExpMin= 2.97D-02 ExpMax= 1.11D+05 ExpMxC= 1.07D+03 IAcc=3 IRadAn=         5 AccDes= 0.00D+00
 Harris functional with IExCor=  205 and IRadAn=       5 diagonalized for initial guess.
 HarFok:  IExCor=  205 AccDes= 0.00D+00 IRadAn=         5 IDoV= 1 UseB2=F ITyADJ=14
 ICtDFT=  3500011 ScaDFX=  1.000000  1.000000  1.000000  1.000000
 FoFCou: FMM=F IPFlag=           0 FMFlag=      100000 FMFlg1=           0
         NFxFlg=           0 DoJE=T BraDBF=F KetDBF=T FulRan=T
         wScrn=  0.000000 ICntrl=       500 IOpCl=  0 I1Cent=   200000004 NGrid=           0
         NMat0=    1 NMatS0=      1 NMatT0=    0 NMatD0=    1 NMtDS0=    0 NMtDT0=    0
 Symmetry not used in FoFCou.
 SCF Done:  E(RHF) =  -848.102677588     A.U. after   18 cycles
            NFock= 18  Conv=0.37D-08     -V/T= 2.0009

 **********************************************************************

            Population analysis using the SCF Density.

 **********************************************************************

 Alpha  occ. eigenvalues --  -92.00541 -20.68351 -20.63742 -20.57619 -15.77665
 Alpha  occ. eigenvalues --  -15.57337 -11.40942 -11.30723 -11.29701  -9.00578
 Alpha  occ. eigenvalues --   -6.68709  -6.68582  -6.68377  -1.58856  -1.48595
 Alpha  occ. eigenvalues --   -1.38331  -1.22212  -1.10293  -1.02039  -0.93826
 Alpha  occ. eigenvalues --   -0.85655  -0.82691  -0.73194  -0.71530  -0.70875
 Alpha  occ. eigenvalues --   -0.70144  -0.66879  -0.65784  -0.64852  -0.62577
 Alpha  occ. eigenvalues --   -0.60976  -0.58977  -0.55024  -0.50957  -0.49785
 Alpha  occ. eigenvalues --   -0.46551  -0.42054  -0.39493  -0.38930
 Alpha virt. eigenvalues --    0.03235   0.04503   0.04700   0.05111   0.05854
 Alpha virt. eigenvalues --    0.07003   0.07348   0.08194   0.08825   0.11196
 Alpha virt. eigenvalues --    0.11414   0.11913   0.13353   0.13712   0.14309
 Alpha virt. eigenvalues --    0.14957   0.15768   0.16188   0.16452   0.17164
 Alpha virt. eigenvalues --    0.18090   0.18672   0.18991   0.19499   0.19947
 Alpha virt. eigenvalues --    0.20263   0.21573   0.22193   0.23364   0.24025
 Alpha virt. eigenvalues --    0.24690   0.26614   0.27427   0.28461   0.29104
 Alpha virt. eigenvalues --    0.29817   0.30402   0.30779   0.31651   0.32322
 Alpha virt. eigenvalues --    0.33096   0.33762   0.34600   0.35268   0.35957
 Alpha virt. eigenvalues --    0.36583   0.37048   0.38934   0.39771   0.40877
 Alpha virt. eigenvalues --    0.42210   0.42969   0.44001   0.45209   0.46092
 Alpha virt. eigenvalues --    0.46446   0.46715   0.47203   0.48026   0.49576
 Alpha virt. eigenvalues --    0.50366   0.51866   0.52938   0.53590   0.55129
 Alpha virt. eigenvalues --    0.55976   0.57326   0.58572   0.59155   0.59720
 Alpha virt. eigenvalues --    0.61069   0.61840   0.62770   0.64067   0.65208
 Alpha virt. eigenvalues --    0.66667   0.67922   0.68348   0.68911   0.69639
 Alpha virt. eigenvalues --    0.70780   0.72090   0.72427   0.75203   0.76110
 Alpha virt. eigenvalues --    0.77169   0.78778   0.80544   0.81138   0.82629
 Alpha virt. eigenvalues --    0.83941   0.84477   0.85963   0.86717   0.86962
 Alpha virt. eigenvalues --    0.88772   0.90270   0.92165   0.93620   0.94936
 Alpha virt. eigenvalues --    0.96868   0.98136   0.98354   1.00523   1.01418
 Alpha virt. eigenvalues --    1.03122   1.04545   1.06995   1.07696   1.07787
 Alpha virt. eigenvalues --    1.09269   1.09731   1.11092   1.12974   1.13523
 Alpha virt. eigenvalues --    1.15155   1.17139   1.18504   1.19581   1.20179
 Alpha virt. eigenvalues --    1.21377   1.22860   1.23306   1.24950   1.26231
 Alpha virt. eigenvalues --    1.28405   1.29105   1.30205   1.30620   1.33398
 Alpha virt. eigenvalues --    1.36338   1.37101   1.38702   1.40210   1.40707
 Alpha virt. eigenvalues --    1.42713   1.44828   1.47151   1.51394   1.53807
 Alpha virt. eigenvalues --    1.54788   1.57656   1.61091   1.62253   1.63286
 Alpha virt. eigenvalues --    1.66346   1.69227   1.73150   1.77964   1.79254
 Alpha virt. eigenvalues --    1.82476   1.83346   1.85147   1.87155   1.89481
 Alpha virt. eigenvalues --    1.91696   1.94075   1.98319   2.02107   2.02611
 Alpha virt. eigenvalues --    2.03791   2.05156   2.08659   2.09970   2.11073
 Alpha virt. eigenvalues --    2.14770   2.15315   2.16393   2.19786   2.22735
 Alpha virt. eigenvalues --    2.25245   2.27771   2.30992   2.34750   2.35805
 Alpha virt. eigenvalues --    2.38340   2.40058   2.41820   2.44608   2.46103
 Alpha virt. eigenvalues --    2.46956   2.49809   2.50270   2.50741   2.52865
 Alpha virt. eigenvalues --    2.54726   2.56849   2.57033   2.57855   2.61398
 Alpha virt. eigenvalues --    2.62604   2.64665   2.71026   2.73864   2.81759
 Alpha virt. eigenvalues --    2.85808   2.89993   2.94108   2.97198   2.98397
 Alpha virt. eigenvalues --    3.03891   3.04977   3.11715   3.15774   3.24331
 Alpha virt. eigenvalues --    3.35594   3.39760   3.48485   3.55694   3.56877
 Alpha virt. eigenvalues --    3.58093   3.63070   3.67474   3.69261   3.75414
 Alpha virt. eigenvalues --    3.76555   3.78819   3.83056   3.86717   3.87682
 Alpha virt. eigenvalues --    3.88763   3.89988   4.06616   4.09940   4.19807
 Alpha virt. eigenvalues --    4.39458
          Condensed to atoms (all electrons):
 Mulliken charges:
               1
     1  S    0.634222
     2  O   -0.745533
     3  O   -0.773898
     4  O   -0.504061
     5  N   -0.356263
     6  N    0.031697
     7  C    0.351869
     8  C    0.042586
     9  C    1.250918
    10  H   -0.133860
    11  H   -0.062164
    12  H    0.019888
    13  H    0.023454
    14  H    0.025979
    15  H    0.195167
 Sum of Mulliken charges =  -0.00000
 Mulliken charges with hydrogens summed into heavy atoms:
               1
     1  S    0.634222
     2  O   -0.550367
     3  O   -0.773898
     4  O   -0.504061
     5  N   -0.306831
     6  N    0.031697
     7  C    0.218009
     8  C    0.000309
     9  C    1.250918
 Electronic spatial extent (au):  <R**2>=           1814.4940
 Charge=             -0.0000 electrons
 Dipole moment (field-independent basis, Debye):
    X=              0.1561    Y=              0.8718    Z=             -1.2043  Tot=              1.4949
 NROrb=    265 NOA=    39 NOB=    39 NVA=   226 NVB=   226

 **** Warning!!: The largest alpha MO coefficient is  0.73634619D+02

    12 initial guesses have been made.
 Iteration     1 Dimension    12 NMult     0 NNew     12
 New state      1 was old state      2
 Iteration     2 Dimension    24 NMult    12 NNew     12
 Iteration     3 Dimension    27 NMult    24 NNew      3
 Iteration     4 Dimension    30 NMult    27 NNew      3
 Iteration     5 Dimension    33 NMult    30 NNew      3
 Iteration     6 Dimension    36 NMult    33 NNew      3
 ***********************************************************************
 Stability analysis using <AA,BB:AA,BB> singles matrix:
 ***********************************************************************
 Ground to excited state transition densities written to RWF  633

 Eigenvectors of the stability matrix:
 
 Excited state symmetry could not be determined.
 Eigenvector   1:      Singlet-?Sym  Eigenvalue= 0.0839496  <S**2>=0.000
      38 -> 44         0.54460
      38 -> 45         0.13863
      38 -> 46        -0.26024
 The wavefunction is stable under the perturbations considered.
 The wavefunction is already stable.

 **********************************************************************

            Population analysis using the SCF Density.

 **********************************************************************

 Alpha  occ. eigenvalues --  -92.00541 -20.68351 -20.63742 -20.57619 -15.77665
 Alpha  occ. eigenvalues --  -15.57337 -11.40942 -11.30723 -11.29701  -9.00578
 Alpha  occ. eigenvalues --   -6.68709  -6.68582  -6.68377  -1.58856  -1.48595
 Alpha  occ. eigenvalues --   -1.38331  -1.22212  -1.10293  -1.02039  -0.93826
 Alpha  occ. eigenvalues --   -0.85655  -0.82691  -0.73194  -0.71530  -0.70875
 Alpha  occ. eigenvalues --   -0.70144  -0.66879  -0.65784  -0.64852  -0.62577
 Alpha  occ. eigenvalues --   -0.60976  -0.58977  -0.55024  -0.50957  -0.49785
 Alpha  occ. eigenvalues --   -0.46551  -0.42054  -0.39493  -0.38930
 Alpha virt. eigenvalues --    0.03235   0.04503   0.04700   0.05111   0.05854
 Alpha virt. eigenvalues --    0.07003   0.07348   0.08194   0.08825   0.11196
 Alpha virt. eigenvalues --    0.11414   0.11913   0.13353   0.13712   0.14309
 Alpha virt. eigenvalues --    0.14957   0.15768   0.16188   0.16452   0.17164
 Alpha virt. eigenvalues --    0.18090   0.18672   0.18991   0.19499   0.19947
 Alpha virt. eigenvalues --    0.20263   0.21573   0.22193   0.23364   0.24025
 Alpha virt. eigenvalues --    0.24690   0.26614   0.27427   0.28461   0.29104
 Alpha virt. eigenvalues --    0.29817   0.30402   0.30779   0.31651   0.32322
 Alpha virt. eigenvalues --    0.33096   0.33762   0.34600   0.35268   0.35957
 Alpha virt. eigenvalues --    0.36583   0.37048   0.38934   0.39771   0.40877
 Alpha virt. eigenvalues --    0.42210   0.42969   0.44001   0.45209   0.46092
 Alpha virt. eigenvalues --    0.46446   0.46715   0.47203   0.48026   0.49576
 Alpha virt. eigenvalues --    0.50366   0.51866   0.52938   0.53590   0.55129
 Alpha virt. eigenvalues --    0.55976   0.57326   0.58572   0.59155   0.59720
 Alpha virt. eigenvalues --    0.61069   0.61840   0.62770   0.64067   0.65208
 Alpha virt. eigenvalues --    0.66667   0.67922   0.68348   0.68911   0.69639
 Alpha virt. eigenvalues --    0.70780   0.72090   0.72427   0.75203   0.76110
 Alpha virt. eigenvalues --    0.77169   0.78778   0.80544   0.81138   0.82629
 Alpha virt. eigenvalues --    0.83941   0.84477   0.85963   0.86717   0.86962
 Alpha virt. eigenvalues --    0.88772   0.90270   0.92165   0.93620   0.94936
 Alpha virt. eigenvalues --    0.96868   0.98136   0.98354   1.00523   1.01418
 Alpha virt. eigenvalues --    1.03122   1.04545   1.06995   1.07696   1.07787
 Alpha virt. eigenvalues --    1.09269   1.09731   1.11092   1.12974   1.13523
 Alpha virt. eigenvalues --    1.15155   1.17139   1.18504   1.19581   1.20179
 Alpha virt. eigenvalues --    1.21377   1.22860   1.23306   1.24950   1.26231
 Alpha virt. eigenvalues --    1.28405   1.29105   1.30205   1.30620   1.33398
 Alpha virt. eigenvalues --    1.36338   1.37101   1.38702   1.40210   1.40707
 Alpha virt. eigenvalues --    1.42713   1.44828   1.47151   1.51394   1.53807
 Alpha virt. eigenvalues --    1.54788   1.57656   1.61091   1.62253   1.63286
 Alpha virt. eigenvalues --    1.66346   1.69227   1.73150   1.77964   1.79254
 Alpha virt. eigenvalues --    1.82476   1.83346   1.85147   1.87155   1.89481
 Alpha virt. eigenvalues --    1.91696   1.94075   1.98319   2.02107   2.02611
 Alpha virt. eigenvalues --    2.03791   2.05156   2.08659   2.09970   2.11073
 Alpha virt. eigenvalues --    2.14770   2.15315   2.16393   2.19786   2.22735
 Alpha virt. eigenvalues --    2.25245   2.27771   2.30992   2.34750   2.35805
 Alpha virt. eigenvalues --    2.38340   2.40058   2.41820   2.44608   2.46103
 Alpha virt. eigenvalues --    2.46956   2.49809   2.50270   2.50741   2.52865
 Alpha virt. eigenvalues --    2.54726   2.56849   2.57033   2.57855   2.61398
 Alpha virt. eigenvalues --    2.62604   2.64665   2.71026   2.73864   2.81759
 Alpha virt. eigenvalues --    2.85808   2.89993   2.94108   2.97198   2.98397
 Alpha virt. eigenvalues --    3.03891   3.04977   3.11715   3.15774   3.24331
 Alpha virt. eigenvalues --    3.35594   3.39760   3.48485   3.55694   3.56877
 Alpha virt. eigenvalues --    3.58093   3.63070   3.67474   3.69261   3.75414
 Alpha virt. eigenvalues --    3.76555   3.78819   3.83056   3.86717   3.87682
 Alpha virt. eigenvalues --    3.88763   3.89988   4.06616   4.09940   4.19807
 Alpha virt. eigenvalues --    4.39458
          Condensed to atoms (all electrons):
 Mulliken charges:
               1
     1  S    0.634222
     2  O   -0.745533
     3  O   -0.773898
     4  O   -0.504061
     5  N   -0.356263
     6  N    0.031697
     7  C    0.351869
     8  C    0.042586
     9  C    1.250918
    10  H   -0.133860
    11  H   -0.062164
    12  H    0.019888
    13  H    0.023454
    14  H    0.025979
    15  H    0.195167
 Sum of Mulliken charges =  -0.00000
 Mulliken charges with hydrogens summed into heavy atoms:
               1
     1  S    0.634222
     2  O   -0.550367
     3  O   -0.773898
     4  O   -0.504061
     5  N   -0.306831
     6  N    0.031697
     7  C    0.218009
     8  C    0.000309
     9  C    1.250918
 Electronic spatial extent (au):  <R**2>=           1814.4940
 Charge=             -0.0000 electrons
 Dipole moment (field-independent basis, Debye):
    X=              0.1561    Y=              0.8718    Z=             -1.2043  Tot=              1.4949
 Unable to Open any file for archive entry.
 1\1\GINC-SE155\Stability\RHF\Aug-CC-pVDZ\C3H6N2O3S1\OHZDE\06-Apr-2025\
 0\\#t hf aug-cc-pvdz symm=none int=(grid=ultrafine) guess=(read,tcheck
 ) stable=(opt,rrhf)\\title\\0,1\S,0,-1.708055,-0.944543,0.238777\O,0,2
 .543314,1.082665,-0.736842\O,0,3.09984,-0.995616,-0.091408\O,0,-3.6375
 33,0.70492,-0.308545\N,0,0.648212,1.17518,1.198357\N,0,-2.500457,0.538
 811,-0.543859\C,0,0.958154,-0.108039,0.596436\C,0,-0.057481,-0.638317,
 -0.450388\C,0,2.322002,-0.078776,-0.081186\H,0,1.047909,-0.847293,1.39
 098\H,0,0.293305,-1.573053,-0.885849\H,0,-0.19672,0.090629,-1.251576\H
 ,0,-0.227541,1.13295,1.703394\H,0,0.584033,1.910377,0.505497\H,0,3.412
 596,1.016178,-1.159186\\Version=ES64L-G16RevC.01\HF=-848.1026776\RMSD=
 3.658e-09\Dipole=0.0614215,0.343001,-0.4737994\Quadrupole=-4.7797893,1
 .19315,3.5866392,4.2921925,-4.0107985,-0.9862902\PG=Unknown\\@
 The archive entry for this job was punched.


 EXPERIENCE IS A WONDERFUL THING.  IT ENABLES
 YOU TO RECOGNIZE A MISTAKE WHEN YOU MAKE IT AGAIN.
           - BACK OF A SUGAR PACKET
 Job cpu time:       0 days  0 hours 14 minutes  9.7 seconds.
 Elapsed time:       0 days  0 hours  0 minutes 60.0 seconds.
 File lengths (MBytes):  RWF=    368 Int=      0 D2E=      0 Chk=     10 Scr=      1
 Normal termination of Gaussian 16 at Sun Apr  6 08:09:17 2025.
 Initial command:
 /arc/software/Gaussian/g16.c01/l1.exe "/tmp/slurm/4819953/Gau-4046979.inp" -scrdir="/tmp/slurm/4819953/"
 Entering Link 1 = /arc/software/Gaussian/g16.c01/l1.exe PID=   4047232.
  
 Copyright (c) 1988-2019, Gaussian, Inc.  All Rights Reserved.
  
 This is part of the Gaussian(R) 16 program.  It is based on
 the Gaussian(R) 09 system (copyright 2009, Gaussian, Inc.),
 the Gaussian(R) 03 system (copyright 2003, Gaussian, Inc.),
 the Gaussian(R) 98 system (copyright 1998, Gaussian, Inc.),
 the Gaussian(R) 94 system (copyright 1995, Gaussian, Inc.),
 the Gaussian 92(TM) system (copyright 1992, Gaussian, Inc.),
 the Gaussian 90(TM) system (copyright 1990, Gaussian, Inc.),
 the Gaussian 88(TM) system (copyright 1988, Gaussian, Inc.),
 the Gaussian 86(TM) system (copyright 1986, Carnegie Mellon
 University), and the Gaussian 82(TM) system (copyright 1983,
 Carnegie Mellon University). Gaussian is a federally registered
 trademark of Gaussian, Inc.
  
 This software contains proprietary and confidential information,
 including trade secrets, belonging to Gaussian, Inc.
  
 This software is provided under written license and may be
 used, copied, transmitted, or stored only in accord with that
 written license.
  
 The following legend is applicable only to US Government
 contracts under FAR:
  
                    RESTRICTED RIGHTS LEGEND
  
 Use, reproduction and disclosure by the US Government is
 subject to restrictions as set forth in subparagraphs (a)
 and (c) of the Commercial Computer Software - Restricted
 Rights clause in FAR 52.227-19.
  
 Gaussian, Inc.
 340 Quinnipiac St., Bldg. 40, Wallingford CT 06492
  
  
 ---------------------------------------------------------------
 Warning -- This program may not be used in any manner that
 competes with the business of Gaussian, Inc. or will provide
 assistance to any competitor of Gaussian, Inc.  The licensee
 of this program is prohibited from giving any competitor of
 Gaussian, Inc. access to this program.  By using this program,
 the user acknowledges that Gaussian, Inc. is engaged in the
 business of creating and licensing software in the field of
 computational chemistry and represents and warrants to the
 licensee that it is not a competitor of Gaussian, Inc. and that
 it will not use this program in any manner prohibited above.
 ---------------------------------------------------------------
  

 Cite this work as:
 Gaussian 16, Revision C.01,
 M. J. Frisch, G. W. Trucks, H. B. Schlegel, G. E. Scuseria, 
 M. A. Robb, J. R. Cheeseman, G. Scalmani, V. Barone, 
 G. A. Petersson, H. Nakatsuji, X. Li, M. Caricato, A. V. Marenich, 
 J. Bloino, B. G. Janesko, R. Gomperts, B. Mennucci, H. P. Hratchian, 
 J. V. Ortiz, A. F. Izmaylov, J. L. Sonnenberg, D. Williams-Young, 
 F. Ding, F. Lipparini, F. Egidi, J. Goings, B. Peng, A. Petrone, 
 T. Henderson, D. Ranasinghe, V. G. Zakrzewski, J. Gao, N. Rega, 
 G. Zheng, W. Liang, M. Hada, M. Ehara, K. Toyota, R. Fukuda, 
 J. Hasegawa, M. Ishida, T. Nakajima, Y. Honda, O. Kitao, H. Nakai, 
 T. Vreven, K. Throssell, J. A. Montgomery, Jr., J. E. Peralta, 
 F. Ogliaro, M. J. Bearpark, J. J. Heyd, E. N. Brothers, K. N. Kudin, 
 V. N. Staroverov, T. A. Keith, R. Kobayashi, J. Normand, 
 K. Raghavachari, A. P. Rendell, J. C. Burant, S. S. Iyengar, 
 J. Tomasi, M. Cossi, J. M. Millam, M. Klene, C. Adamo, R. Cammi, 
 J. W. Ochterski, R. L. Martin, K. Morokuma, O. Farkas, 
 J. B. Foresman, and D. J. Fox, Gaussian, Inc., Wallingford CT, 2019.
 
 ******************************************
 Gaussian 16:  ES64L-G16RevC.01  3-Jul-2019
                 6-Apr-2025 
 ******************************************
 %nprocs=16
 Will use up to   16 processors via shared memory.
 %mem=30GB
 %chk=S-nitrosocysteine.chk
 ----------------------------------------------------------------------
 #t hf aug-cc-pvdz iop(5/13=1,5/36=2,99/5=2) pseudo=read geom=check gue
 ss=(read,tcheck) scf=(maxcycle=1)
 ----------------------------------------------------------------------
 -----
 title
 -----
 Structure from the checkpoint file:  "S-nitrosocysteine.chk"
 Charge =  0 Multiplicity = 1
 Z-Matrix found in chk file.
 S,0,-1.708055,-0.944543,0.238777
 O,0,2.543314,1.082665,-0.736842
 O,0,3.09984,-0.995616,-0.091408
 O,0,-3.637533,0.70492,-0.308545
 N,0,0.648212,1.17518,1.198357
 N,0,-2.500457,0.538811,-0.543859
 C,0,0.958154,-0.108039,0.596436
 C,0,-0.057481,-0.638317,-0.450388
 C,0,2.322002,-0.078776,-0.081186
 H,0,1.047909,-0.847293,1.39098
 H,0,0.293305,-1.573053,-0.885849
 H,0,-0.19672,0.090629,-1.251576
 H,0,-0.227541,1.13295,1.703394
 H,0,0.584033,1.910377,0.505497
 H,0,3.412596,1.016178,-1.159186
 Recover connectivity data from disk.
                    Distance matrix (angstroms):
                    1          2          3          4          5
     1  S    0.000000
     2  O    4.809942   0.000000
     3  O    4.819490   2.246232   0.000000
     4  O    2.596762   6.207173   6.952062   0.000000
     5  N    3.311497   2.710160   3.519422   4.567221   0.000000
     6  N    1.854928   5.076677   5.824303   1.172990   3.654367
     7  C    2.817149   2.389171   2.418210   4.753970   1.450870
     8  C    1.814695   3.131768   3.197687   3.826379   2.550516
     9  C    4.134403   1.351965   1.202386   6.015142   2.451777
    10  H    2.988707   3.238611   2.535724   5.220260   2.070570
    11  H    2.380179   3.483903   2.973417   4.579730   3.467371
    12  H    2.361539   2.959201   3.659676   3.620201   2.809330
    13  H    2.941599   3.692549   4.338614   3.982355   1.011825
    14  H    3.670882   2.463188   3.889778   4.465133   1.012269
    15  H    5.658604   0.968734   2.298974   7.108079   3.636634
                    6          7          8          9         10
     6  N    0.000000
     7  C    3.698740   0.000000
     8  C    2.713393   1.551950   0.000000
     9  C    4.883809   1.523190   2.472112   0.000000
    10  H    4.272679   1.088969   2.157822   2.093133   0.000000
    11  H    3.518811   2.187569   1.089224   2.644987   2.506014
    12  H    2.451313   2.188230   1.092086   2.782530   3.067882
    13  H    3.251045   2.042372   2.793758   3.339637   2.376076
    14  H    3.535028   2.054809   2.796623   2.705820   2.933258
    15  H    5.964118   3.220304   3.909115   1.884251   3.945582
                   11         12         13         14         15
    11  H    0.000000
    12  H    1.772489   0.000000
    13  H    3.781258   3.133565   0.000000
    14  H    3.762267   2.647331   1.642560   0.000000
    15  H    4.063103   3.727243   4.632343   3.401695   0.000000
 Framework group  C1[X(C3H6N2O3S)]
 Deg. of freedom    39
                         Standard orientation:                         
 ---------------------------------------------------------------------
 Center     Atomic      Atomic             Coordinates (Angstroms)
 Number     Number       Type             X           Y           Z
 ---------------------------------------------------------------------
      1         16           0       -1.708055   -0.944543    0.238777
      2          8           0        2.543314    1.082665   -0.736842
      3          8           0        3.099840   -0.995616   -0.091408
      4          8           0       -3.637533    0.704920   -0.308545
      5          7           0        0.648212    1.175180    1.198357
      6          7           0       -2.500457    0.538811   -0.543859
      7          6           0        0.958154   -0.108039    0.596436
      8          6           0       -0.057481   -0.638317   -0.450388
      9          6           0        2.322002   -0.078776   -0.081186
     10          1           0        1.047909   -0.847293    1.390980
     11          1           0        0.293305   -1.573053   -0.885849
     12          1           0       -0.196720    0.090629   -1.251576
     13          1           0       -0.227541    1.132950    1.703394
     14          1           0        0.584033    1.910377    0.505497
     15          1           0        3.412596    1.016178   -1.159186
 ---------------------------------------------------------------------
 Rotational constants (GHZ):           3.1423055           0.6345122           0.5922343
 ======================================================================================================
                                       Pseudopotential Parameters
 ======================================================================================================
  Center     Atomic      Valence      Angular      Power
  Number     Number     Electrons     Momentum     of R      Exponent        Coefficient   SO-Coeffient
 ======================================================================================================
    1         16           16
                                      G and up 
                                                     0        0.0000010       -0.00444167    0.00000000
                                                     2        0.1200000        0.11677988    0.00000000
                                                     2        0.1400000       -0.22050378    0.00000000
                                                     2        0.1800000        0.26452031    0.00000000
                                                     2        0.2800000       -0.04353316    0.00000000
                                                     2        0.5000000       -1.18567514    0.00000000
                                      S - G
                                                     0        0.0000010        0.03992419    0.00000000
                                                     2        0.1200000       -0.56926432    0.00000000
                                                     2        0.3000000        0.88393965    0.00000000
                                      P - G
                                                     0        0.0000010       -0.92181603    0.00000000
                                                     2        0.1200000        1.30681810    0.00000000
                                                     2        0.2000000       -1.50828653    0.00000000
                                                     2        0.2400000       -2.25148793    0.00000000
                                                     2        0.6000000       10.10218731    0.00000000
                                      D - G
                                                     0        0.0000010        0.72039481    0.00000000
                                                     2        0.1200000       -0.56105075    0.00000000
                                                     2        0.2000000        0.42910414    0.00000000
                                                     2        0.8000000        0.44203418    0.00000000
                                      F - G
                                                     2        0.1200000       -0.62623060    0.00000000
                                                     2        0.1800000        0.89777932    0.00000000
                                                     2        0.5000000       -1.32991832    0.00000000
    2          8            8
                                      G and up 
                                                     0        0.0000010       -0.00165251    0.00000000
                                                     2        0.1200000       -0.10937202    0.00000000
                                                     2        0.1400000        0.35668905    0.00000000
                                                     2        0.1800000       -0.51696033    0.00000000
                                                     2        0.2400000        0.52446472    0.00000000
                                                     2        0.4000000       -0.07754493    0.00000000
                                                     2        0.8000000       -1.90560988    0.00000000
                                                     2        1.7000000        0.19857963    0.00000000
                                      S - G
                                                     0        0.0000010       -0.03845181    0.00000000
                                                     2        0.1400000        0.42024558    0.00000000
                                                     2        0.4000000       -4.10467779    0.00000000
                                                     2        1.3000000        9.99571838    0.00000000
                                      P - G
                                                     0        0.0000010        0.33206183    0.00000000
                                                     2        0.1200000       -0.18708141    0.00000000
                                                     2        0.2800000       -0.18179081    0.00000000
                                                     2        0.7000000        1.18820394    0.00000000
                                      D - G
                                                     0        0.0000010       -0.57891674    0.00000000
                                                     2        0.1200000        0.60487490    0.00000000
                                                     2        0.2400000       -0.24931464    0.00000000
                                                     2        0.3000000       -2.75054612    0.00000000
                                                     2        1.0000000       15.96776040    0.00000000
                                      F - G
                                                     0        0.0000010        0.37449041    0.00000000
                                                     2        0.1200000       -0.63373642    0.00000000
                                                     2        0.1400000       -0.08412804    0.00000000
                                                     2        0.2800000        2.62321406    0.00000000
                                                     2        0.6000000       -2.68223623    0.00000000
    3          8            8
                                      G and up 
                                                     0        0.0000010       -0.00165251    0.00000000
                                                     2        0.1200000       -0.10937202    0.00000000
                                                     2        0.1400000        0.35668905    0.00000000
                                                     2        0.1800000       -0.51696033    0.00000000
                                                     2        0.2400000        0.52446472    0.00000000
                                                     2        0.4000000       -0.07754493    0.00000000
                                                     2        0.8000000       -1.90560988    0.00000000
                                                     2        1.7000000        0.19857963    0.00000000
                                      S - G
                                                     0        0.0000010       -0.03845181    0.00000000
                                                     2        0.1400000        0.42024558    0.00000000
                                                     2        0.4000000       -4.10467779    0.00000000
                                                     2        1.3000000        9.99571838    0.00000000
                                      P - G
                                                     0        0.0000010        0.33206183    0.00000000
                                                     2        0.1200000       -0.18708141    0.00000000
                                                     2        0.2800000       -0.18179081    0.00000000
                                                     2        0.7000000        1.18820394    0.00000000
                                      D - G
                                                     0        0.0000010       -0.57891674    0.00000000
                                                     2        0.1200000        0.60487490    0.00000000
                                                     2        0.2400000       -0.24931464    0.00000000
                                                     2        0.3000000       -2.75054612    0.00000000
                                                     2        1.0000000       15.96776040    0.00000000
                                      F - G
                                                     0        0.0000010        0.37449041    0.00000000
                                                     2        0.1200000       -0.63373642    0.00000000
                                                     2        0.1400000       -0.08412804    0.00000000
                                                     2        0.2800000        2.62321406    0.00000000
                                                     2        0.6000000       -2.68223623    0.00000000
    4          8            8
                                      G and up 
                                                     0        0.0000010       -0.00165251    0.00000000
                                                     2        0.1200000       -0.10937202    0.00000000
                                                     2        0.1400000        0.35668905    0.00000000
                                                     2        0.1800000       -0.51696033    0.00000000
                                                     2        0.2400000        0.52446472    0.00000000
                                                     2        0.4000000       -0.07754493    0.00000000
                                                     2        0.8000000       -1.90560988    0.00000000
                                                     2        1.7000000        0.19857963    0.00000000
                                      S - G
                                                     0        0.0000010       -0.03845181    0.00000000
                                                     2        0.1400000        0.42024558    0.00000000
                                                     2        0.4000000       -4.10467779    0.00000000
                                                     2        1.3000000        9.99571838    0.00000000
                                      P - G
                                                     0        0.0000010        0.33206183    0.00000000
                                                     2        0.1200000       -0.18708141    0.00000000
                                                     2        0.2800000       -0.18179081    0.00000000
                                                     2        0.7000000        1.18820394    0.00000000
                                      D - G
                                                     0        0.0000010       -0.57891674    0.00000000
                                                     2        0.1200000        0.60487490    0.00000000
                                                     2        0.2400000       -0.24931464    0.00000000
                                                     2        0.3000000       -2.75054612    0.00000000
                                                     2        1.0000000       15.96776040    0.00000000
                                      F - G
                                                     0        0.0000010        0.37449041    0.00000000
                                                     2        0.1200000       -0.63373642    0.00000000
                                                     2        0.1400000       -0.08412804    0.00000000
                                                     2        0.2800000        2.62321406    0.00000000
                                                     2        0.6000000       -2.68223623    0.00000000
    5          7            7
                                      G and up 
                                                     0        0.0000010        0.00420138    0.00000000
                                                     2        0.1200000        0.05872431    0.00000000
                                                     2        0.1400000       -0.08436978    0.00000000
                                                     2        0.2000000        0.05409159    0.00000000
                                                     2        0.2600000        0.14199713    0.00000000
                                                     2        0.6000000       -0.79062770    0.00000000
                                                     2        0.7000000       -0.14441060    0.00000000
                                                     2        1.5000000        0.73772979    0.00000000
                                      S - G
                                                     0        0.0000010       -0.03094411    0.00000000
                                                     2        0.1200000        0.65332522    0.00000000
                                                     2        0.1800000       -1.38149133    0.00000000
                                                     2        1.3000000        3.29267299    0.00000000
                                      P - G
                                                     0        0.0000010        0.07303105    0.00000000
                                                     2        0.1200000        0.23145115    0.00000000
                                                     2        0.2000000       -1.20679699    0.00000000
                                                     2        0.4000000        1.75088447    0.00000000
                                                     2        1.2000000       -0.67486559    0.00000000
                                      D - G
                                                     0        0.0000010        0.07560739    0.00000000
                                                     2        0.3000000       -0.68679114    0.00000000
                                                     2        0.9000000        3.60133241    0.00000000
                                      F - G
                                                     0        0.0000010       -0.18221184    0.00000000
                                                     2        0.1200000       -0.39369067    0.00000000
                                                     2        0.1800000        0.72091725    0.00000000
                                                     2        0.6000000        0.15946111    0.00000000
    6          7            7
                                      G and up 
                                                     0        0.0000010        0.00420138    0.00000000
                                                     2        0.1200000        0.05872431    0.00000000
                                                     2        0.1400000       -0.08436978    0.00000000
                                                     2        0.2000000        0.05409159    0.00000000
                                                     2        0.2600000        0.14199713    0.00000000
                                                     2        0.6000000       -0.79062770    0.00000000
                                                     2        0.7000000       -0.14441060    0.00000000
                                                     2        1.5000000        0.73772979    0.00000000
                                      S - G
                                                     0        0.0000010       -0.03094411    0.00000000
                                                     2        0.1200000        0.65332522    0.00000000
                                                     2        0.1800000       -1.38149133    0.00000000
                                                     2        1.3000000        3.29267299    0.00000000
                                      P - G
                                                     0        0.0000010        0.07303105    0.00000000
                                                     2        0.1200000        0.23145115    0.00000000
                                                     2        0.2000000       -1.20679699    0.00000000
                                                     2        0.4000000        1.75088447    0.00000000
                                                     2        1.2000000       -0.67486559    0.00000000
                                      D - G
                                                     0        0.0000010        0.07560739    0.00000000
                                                     2        0.3000000       -0.68679114    0.00000000
                                                     2        0.9000000        3.60133241    0.00000000
                                      F - G
                                                     0        0.0000010       -0.18221184    0.00000000
                                                     2        0.1200000       -0.39369067    0.00000000
                                                     2        0.1800000        0.72091725    0.00000000
                                                     2        0.6000000        0.15946111    0.00000000
    7          6            6
                                      G and up 
                                                     0        0.0000010       -0.00286759    0.00000000
                                                     2        0.1200000        0.03193960    0.00000000
                                                     2        0.1600000       -0.04027782    0.00000000
                                                     2        0.2600000        0.24782456    0.00000000
                                                     2        0.4000000       -0.62266671    0.00000000
                                                     2        0.7000000        0.35695227    0.00000000
                                      S - G
                                                     0        0.0000010       -0.06602313    0.00000000
                                                     2        0.1200000        1.47277455    0.00000000
                                                     2        0.1600000       -4.06924166    0.00000000
                                                     2        0.3000000        5.02952802    0.00000000
                                                     2        0.7000000       -5.65856978    0.00000000
                                                     2        1.7000000        8.57604414    0.00000000
                                      P - G
                                                     0        0.0000010        0.49434425    0.00000000
                                                     2        0.1200000       -1.37391547    0.00000000
                                                     2        0.1600000        3.65411806    0.00000000
                                                     2        0.2800000       -7.36479843    0.00000000
                                                     2        0.6000000       17.22091285    0.00000000
                                                     2        1.1000000      -23.50107827    0.00000000
                                                     2        3.0000000       16.29464063    0.00000000
                                      D - G
                                                     0        0.0000010       -0.28693103    0.00000000
                                                     2        0.1200000        0.12273044    0.00000000
                                                     2        0.3000000       -0.43416384    0.00000000
                                                     2        0.7000000        2.23358493    0.00000000
                                      F - G
                                                     0        0.0000010        0.07263570    0.00000000
                                                     2        0.1400000       -0.76152861    0.00000000
                                                     2        0.2200000        1.98045593    0.00000000
                                                     2        0.4000000       -2.42426427    0.00000000
                                                     2        0.7000000        0.52335237    0.00000000
    8          6            6
                                      G and up 
                                                     0        0.0000010       -0.00286759    0.00000000
                                                     2        0.1200000        0.03193960    0.00000000
                                                     2        0.1600000       -0.04027782    0.00000000
                                                     2        0.2600000        0.24782456    0.00000000
                                                     2        0.4000000       -0.62266671    0.00000000
                                                     2        0.7000000        0.35695227    0.00000000
                                      S - G
                                                     0        0.0000010       -0.06602313    0.00000000
                                                     2        0.1200000        1.47277455    0.00000000
                                                     2        0.1600000       -4.06924166    0.00000000
                                                     2        0.3000000        5.02952802    0.00000000
                                                     2        0.7000000       -5.65856978    0.00000000
                                                     2        1.7000000        8.57604414    0.00000000
                                      P - G
                                                     0        0.0000010        0.49434425    0.00000000
                                                     2        0.1200000       -1.37391547    0.00000000
                                                     2        0.1600000        3.65411806    0.00000000
                                                     2        0.2800000       -7.36479843    0.00000000
                                                     2        0.6000000       17.22091285    0.00000000
                                                     2        1.1000000      -23.50107827    0.00000000
                                                     2        3.0000000       16.29464063    0.00000000
                                      D - G
                                                     0        0.0000010       -0.28693103    0.00000000
                                                     2        0.1200000        0.12273044    0.00000000
                                                     2        0.3000000       -0.43416384    0.00000000
                                                     2        0.7000000        2.23358493    0.00000000
                                      F - G
                                                     0        0.0000010        0.07263570    0.00000000
                                                     2        0.1400000       -0.76152861    0.00000000
                                                     2        0.2200000        1.98045593    0.00000000
                                                     2        0.4000000       -2.42426427    0.00000000
                                                     2        0.7000000        0.52335237    0.00000000
    9          6            6
                                      G and up 
                                                     0        0.0000010       -0.00286759    0.00000000
                                                     2        0.1200000        0.03193960    0.00000000
                                                     2        0.1600000       -0.04027782    0.00000000
                                                     2        0.2600000        0.24782456    0.00000000
                                                     2        0.4000000       -0.62266671    0.00000000
                                                     2        0.7000000        0.35695227    0.00000000
                                      S - G
                                                     0        0.0000010       -0.06602313    0.00000000
                                                     2        0.1200000        1.47277455    0.00000000
                                                     2        0.1600000       -4.06924166    0.00000000
                                                     2        0.3000000        5.02952802    0.00000000
                                                     2        0.7000000       -5.65856978    0.00000000
                                                     2        1.7000000        8.57604414    0.00000000
                                      P - G
                                                     0        0.0000010        0.49434425    0.00000000
                                                     2        0.1200000       -1.37391547    0.00000000
                                                     2        0.1600000        3.65411806    0.00000000
                                                     2        0.2800000       -7.36479843    0.00000000
                                                     2        0.6000000       17.22091285    0.00000000
                                                     2        1.1000000      -23.50107827    0.00000000
                                                     2        3.0000000       16.29464063    0.00000000
                                      D - G
                                                     0        0.0000010       -0.28693103    0.00000000
                                                     2        0.1200000        0.12273044    0.00000000
                                                     2        0.3000000       -0.43416384    0.00000000
                                                     2        0.7000000        2.23358493    0.00000000
                                      F - G
                                                     0        0.0000010        0.07263570    0.00000000
                                                     2        0.1400000       -0.76152861    0.00000000
                                                     2        0.2200000        1.98045593    0.00000000
                                                     2        0.4000000       -2.42426427    0.00000000
                                                     2        0.7000000        0.52335237    0.00000000
   10          1            1
                                      F and up 
                                                     0        0.0000010        0.00072061    0.00000000
                                                     2        0.1200000        0.03832357    0.00000000
                                                     2        0.1400000       -0.08683256    0.00000000
                                                     2        0.1800000        0.09312970    0.00000000
                                                     2        0.2800000       -0.02532572    0.00000000
                                                     2        0.4000000       -0.09430787    0.00000000
                                                     2        0.7000000        0.42710831    0.00000000
                                                     2        1.2000000       -2.11746981    0.00000000
                                      S - F
                                                     0        0.0000010        0.14449603    0.00000000
                                                     2        0.1200000       -0.56378993    0.00000000
                                                     2        0.1400000        0.63941249    0.00000000
                                                     2        0.2600000       -0.58461015    0.00000000
                                                     2        0.5000000        1.00157293    0.00000000
                                                     2        1.8000000       -0.14135838    0.00000000
                                      P - F
                                                     0        0.0000010       -0.09353646    0.00000000
                                                     2        0.1200000        0.31768975    0.00000000
                                                     2        0.2000000       -0.71747951    0.00000000
                                                     2        0.4000000        0.65752308    0.00000000
                                                     2        1.7000000        2.94052587    0.00000000
                                      D - F
                                                     0        0.0000010       -0.04491202    0.00000000
                                                     2        0.1200000       -0.02862031    0.00000000
                                                     2        0.1800000       -0.21515263    0.00000000
                                                     2        0.3000000        0.80560647    0.00000000
                                                     2        0.4000000        0.47351754    0.00000000
                                                     2        0.7000000       -4.57051794    0.00000000
                                                     2        1.6000000       18.53737826    0.00000000
   11          1            1
                                      F and up 
                                                     0        0.0000010        0.00072061    0.00000000
                                                     2        0.1200000        0.03832357    0.00000000
                                                     2        0.1400000       -0.08683256    0.00000000
                                                     2        0.1800000        0.09312970    0.00000000
                                                     2        0.2800000       -0.02532572    0.00000000
                                                     2        0.4000000       -0.09430787    0.00000000
                                                     2        0.7000000        0.42710831    0.00000000
                                                     2        1.2000000       -2.11746981    0.00000000
                                      S - F
                                                     0        0.0000010        0.14449603    0.00000000
                                                     2        0.1200000       -0.56378993    0.00000000
                                                     2        0.1400000        0.63941249    0.00000000
                                                     2        0.2600000       -0.58461015    0.00000000
                                                     2        0.5000000        1.00157293    0.00000000
                                                     2        1.8000000       -0.14135838    0.00000000
                                      P - F
                                                     0        0.0000010       -0.09353646    0.00000000
                                                     2        0.1200000        0.31768975    0.00000000
                                                     2        0.2000000       -0.71747951    0.00000000
                                                     2        0.4000000        0.65752308    0.00000000
                                                     2        1.7000000        2.94052587    0.00000000
                                      D - F
                                                     0        0.0000010       -0.04491202    0.00000000
                                                     2        0.1200000       -0.02862031    0.00000000
                                                     2        0.1800000       -0.21515263    0.00000000
                                                     2        0.3000000        0.80560647    0.00000000
                                                     2        0.4000000        0.47351754    0.00000000
                                                     2        0.7000000       -4.57051794    0.00000000
                                                     2        1.6000000       18.53737826    0.00000000
   12          1            1
                                      F and up 
                                                     0        0.0000010        0.00072061    0.00000000
                                                     2        0.1200000        0.03832357    0.00000000
                                                     2        0.1400000       -0.08683256    0.00000000
                                                     2        0.1800000        0.09312970    0.00000000
                                                     2        0.2800000       -0.02532572    0.00000000
                                                     2        0.4000000       -0.09430787    0.00000000
                                                     2        0.7000000        0.42710831    0.00000000
                                                     2        1.2000000       -2.11746981    0.00000000
                                      S - F
                                                     0        0.0000010        0.14449603    0.00000000
                                                     2        0.1200000       -0.56378993    0.00000000
                                                     2        0.1400000        0.63941249    0.00000000
                                                     2        0.2600000       -0.58461015    0.00000000
                                                     2        0.5000000        1.00157293    0.00000000
                                                     2        1.8000000       -0.14135838    0.00000000
                                      P - F
                                                     0        0.0000010       -0.09353646    0.00000000
                                                     2        0.1200000        0.31768975    0.00000000
                                                     2        0.2000000       -0.71747951    0.00000000
                                                     2        0.4000000        0.65752308    0.00000000
                                                     2        1.7000000        2.94052587    0.00000000
                                      D - F
                                                     0        0.0000010       -0.04491202    0.00000000
                                                     2        0.1200000       -0.02862031    0.00000000
                                                     2        0.1800000       -0.21515263    0.00000000
                                                     2        0.3000000        0.80560647    0.00000000
                                                     2        0.4000000        0.47351754    0.00000000
                                                     2        0.7000000       -4.57051794    0.00000000
                                                     2        1.6000000       18.53737826    0.00000000
   13          1            1
                                      F and up 
                                                     0        0.0000010        0.00072061    0.00000000
                                                     2        0.1200000        0.03832357    0.00000000
                                                     2        0.1400000       -0.08683256    0.00000000
                                                     2        0.1800000        0.09312970    0.00000000
                                                     2        0.2800000       -0.02532572    0.00000000
                                                     2        0.4000000       -0.09430787    0.00000000
                                                     2        0.7000000        0.42710831    0.00000000
                                                     2        1.2000000       -2.11746981    0.00000000
                                      S - F
                                                     0        0.0000010        0.14449603    0.00000000
                                                     2        0.1200000       -0.56378993    0.00000000
                                                     2        0.1400000        0.63941249    0.00000000
                                                     2        0.2600000       -0.58461015    0.00000000
                                                     2        0.5000000        1.00157293    0.00000000
                                                     2        1.8000000       -0.14135838    0.00000000
                                      P - F
                                                     0        0.0000010       -0.09353646    0.00000000
                                                     2        0.1200000        0.31768975    0.00000000
                                                     2        0.2000000       -0.71747951    0.00000000
                                                     2        0.4000000        0.65752308    0.00000000
                                                     2        1.7000000        2.94052587    0.00000000
                                      D - F
                                                     0        0.0000010       -0.04491202    0.00000000
                                                     2        0.1200000       -0.02862031    0.00000000
                                                     2        0.1800000       -0.21515263    0.00000000
                                                     2        0.3000000        0.80560647    0.00000000
                                                     2        0.4000000        0.47351754    0.00000000
                                                     2        0.7000000       -4.57051794    0.00000000
                                                     2        1.6000000       18.53737826    0.00000000
   14          1            1
                                      F and up 
                                                     0        0.0000010        0.00072061    0.00000000
                                                     2        0.1200000        0.03832357    0.00000000
                                                     2        0.1400000       -0.08683256    0.00000000
                                                     2        0.1800000        0.09312970    0.00000000
                                                     2        0.2800000       -0.02532572    0.00000000
                                                     2        0.4000000       -0.09430787    0.00000000
                                                     2        0.7000000        0.42710831    0.00000000
                                                     2        1.2000000       -2.11746981    0.00000000
                                      S - F
                                                     0        0.0000010        0.14449603    0.00000000
                                                     2        0.1200000       -0.56378993    0.00000000
                                                     2        0.1400000        0.63941249    0.00000000
                                                     2        0.2600000       -0.58461015    0.00000000
                                                     2        0.5000000        1.00157293    0.00000000
                                                     2        1.8000000       -0.14135838    0.00000000
                                      P - F
                                                     0        0.0000010       -0.09353646    0.00000000
                                                     2        0.1200000        0.31768975    0.00000000
                                                     2        0.2000000       -0.71747951    0.00000000
                                                     2        0.4000000        0.65752308    0.00000000
                                                     2        1.7000000        2.94052587    0.00000000
                                      D - F
                                                     0        0.0000010       -0.04491202    0.00000000
                                                     2        0.1200000       -0.02862031    0.00000000
                                                     2        0.1800000       -0.21515263    0.00000000
                                                     2        0.3000000        0.80560647    0.00000000
                                                     2        0.4000000        0.47351754    0.00000000
                                                     2        0.7000000       -4.57051794    0.00000000
                                                     2        1.6000000       18.53737826    0.00000000
   15          1            1
                                      F and up 
                                                     0        0.0000010        0.00072061    0.00000000
                                                     2        0.1200000        0.03832357    0.00000000
                                                     2        0.1400000       -0.08683256    0.00000000
                                                     2        0.1800000        0.09312970    0.00000000
                                                     2        0.2800000       -0.02532572    0.00000000
                                                     2        0.4000000       -0.09430787    0.00000000
                                                     2        0.7000000        0.42710831    0.00000000
                                                     2        1.2000000       -2.11746981    0.00000000
                                      S - F
                                                     0        0.0000010        0.14449603    0.00000000
                                                     2        0.1200000       -0.56378993    0.00000000
                                                     2        0.1400000        0.63941249    0.00000000
                                                     2        0.2600000       -0.58461015    0.00000000
                                                     2        0.5000000        1.00157293    0.00000000
                                                     2        1.8000000       -0.14135838    0.00000000
                                      P - F
                                                     0        0.0000010       -0.09353646    0.00000000
                                                     2        0.1200000        0.31768975    0.00000000
                                                     2        0.2000000       -0.71747951    0.00000000
                                                     2        0.4000000        0.65752308    0.00000000
                                                     2        1.7000000        2.94052587    0.00000000
                                      D - F
                                                     0        0.0000010       -0.04491202    0.00000000
                                                     2        0.1200000       -0.02862031    0.00000000
                                                     2        0.1800000       -0.21515263    0.00000000
                                                     2        0.3000000        0.80560647    0.00000000
                                                     2        0.4000000        0.47351754    0.00000000
                                                     2        0.7000000       -4.57051794    0.00000000
                                                     2        1.6000000       18.53737826    0.00000000
 ======================================================================================================
   265 basis functions,   491 primitive gaussians,   283 cartesian basis functions
    39 alpha electrons       39 beta electrons
       nuclear repulsion energy       525.5074576747 Hartrees.
 NAtoms=   15 NActive=   15 NUniq=   15 SFac= 1.00D+00 NAtFMM=   60 NAOKFM=F Big=F
   1 Symmetry operations used in ECPInt.
 ECPInt:  NShTT=    6441 NPrTT=   36815 LenC2=    6343 LenP2D=   25340.
 LDataN:  DoStor=T MaxTD1= 6 Len=  172
 Initial guess from the checkpoint file:  "S-nitrosocysteine.chk"
 B after Tr=    -0.000000    0.000000    0.000000
         Rot=    1.000000   -0.000000    0.000000    0.000000 Ang=   0.00 deg.
 >>>>>>>>>> Convergence criterion not met.
 SCF Done:  E(RHF) =  -850.276800635     A.U. after    2 cycles
            NFock=  1  Conv=0.39D+00     -V/T= 2.0117

 **********************************************************************

            Population analysis using the SCF Density.

 **********************************************************************

 Orbital symmetries:
       Occupied  (A) (A) (A) (A) (A) (A) (A) (A) (A) (A) (A) (A)
                 (A) (A) (A) (A) (A) (A) (A) (A) (A) (A) (A) (A)
                 (A) (A) (A) (A) (A) (A) (A) (A) (A) (A) (A) (A)
                 (A) (A) (A)
       Virtual   (A) (A) (A) (A) (A) (A) (A) (A) (A) (A) (A) (A)
                 (A) (A) (A) (A) (A) (A) (A) (A) (A) (A) (A) (A)
                 (A) (A) (A) (A) (A) (A) (A) (A) (A) (A) (A) (A)
                 (A) (A) (A) (A) (A) (A) (A) (A) (A) (A) (A) (A)
                 (A) (A) (A) (A) (A) (A) (A) (A) (A) (A) (A) (A)
                 (A) (A) (A) (A) (A) (A) (A) (A) (A) (A) (A) (A)
                 (A) (A) (A) (A) (A) (A) (A) (A) (A) (A) (A) (A)
                 (A) (A) (A) (A) (A) (A) (A) (A) (A) (A) (A) (A)
                 (A) (A) (A) (A) (A) (A) (A) (A) (A) (A) (A) (A)
                 (A) (A) (A) (A) (A) (A) (A) (A) (A) (A) (A) (A)
                 (A) (A) (A) (A) (A) (A) (A) (A) (A) (A) (A) (A)
                 (A) (A) (A) (A) (A) (A) (A) (A) (A) (A) (A) (A)
                 (A) (A) (A) (A) (A) (A) (A) (A) (A) (A) (A) (A)
                 (A) (A) (A) (A) (A) (A) (A) (A) (A) (A) (A) (A)
                 (A) (A) (A) (A) (A) (A) (A) (A) (A) (A) (A) (A)
                 (A) (A) (A) (A) (A) (A) (A) (A) (A) (A) (A) (A)
                 (A) (A) (A) (A) (A) (A) (A) (A) (A) (A) (A) (A)
                 (A) (A) (A) (A) (A) (A) (A) (A) (A) (A) (A) (A)
                 (A) (A) (A) (A) (A) (A) (A) (A) (A) (A)
 The electronic state is 1-A.
 Alpha  occ. eigenvalues --  -75.72735 -21.17197 -21.13659 -21.06822 -15.92522
 Alpha  occ. eigenvalues --  -15.75158 -13.16655 -13.12886 -13.07440 -11.54346
 Alpha  occ. eigenvalues --  -11.47956 -11.42540  -8.06740  -1.91370  -1.84338
 Alpha  occ. eigenvalues --   -1.66963  -1.38153  -1.23992  -1.09662  -0.97939
 Alpha  occ. eigenvalues --   -0.88375  -0.82031  -0.68983  -0.66978  -0.64526
 Alpha  occ. eigenvalues --   -0.63330  -0.61344  -0.60415  -0.57788  -0.57087
 Alpha  occ. eigenvalues --   -0.54834  -0.51416  -0.47605  -0.42021  -0.38059
 Alpha  occ. eigenvalues --   -0.35091  -0.30728  -0.26743  -0.26242
 Alpha virt. eigenvalues --    0.03655   0.05131   0.05403   0.05537   0.06173
 Alpha virt. eigenvalues --    0.06973   0.07939   0.09425   0.10516   0.11057
 Alpha virt. eigenvalues --    0.11796   0.12222   0.13507   0.13918   0.15074
 Alpha virt. eigenvalues --    0.15421   0.16421   0.17046   0.17242   0.17783
 Alpha virt. eigenvalues --    0.18665   0.18803   0.19312   0.19773   0.20518
 Alpha virt. eigenvalues --    0.20587   0.21231   0.22492   0.23391   0.24043
 Alpha virt. eigenvalues --    0.24927   0.26198   0.27060   0.27165   0.28232
 Alpha virt. eigenvalues --    0.29285   0.30877   0.31182   0.31620   0.31982
 Alpha virt. eigenvalues --    0.33093   0.33666   0.34591   0.35101   0.36078
 Alpha virt. eigenvalues --    0.37096   0.37148   0.38915   0.39902   0.40980
 Alpha virt. eigenvalues --    0.41830   0.42394   0.43459   0.45040   0.45091
 Alpha virt. eigenvalues --    0.46248   0.46630   0.47913   0.48794   0.49274
 Alpha virt. eigenvalues --    0.50603   0.51161   0.52655   0.54116   0.54687
 Alpha virt. eigenvalues --    0.56049   0.56794   0.58859   0.59702   0.60753
 Alpha virt. eigenvalues --    0.61807   0.62975   0.64320   0.65004   0.65464
 Alpha virt. eigenvalues --    0.67069   0.68400   0.69549   0.69708   0.70532
 Alpha virt. eigenvalues --    0.71626   0.73146   0.73550   0.75494   0.76270
 Alpha virt. eigenvalues --    0.77115   0.77800   0.80640   0.80791   0.82485
 Alpha virt. eigenvalues --    0.83421   0.85475   0.87247   0.88099   0.88566
 Alpha virt. eigenvalues --    0.89843   0.91628   0.93106   0.95575   0.97017
 Alpha virt. eigenvalues --    0.97742   0.99672   1.01479   1.02736   1.03781
 Alpha virt. eigenvalues --    1.05677   1.06971   1.07575   1.08906   1.09561
 Alpha virt. eigenvalues --    1.10642   1.13356   1.14206   1.18441   1.19786
 Alpha virt. eigenvalues --    1.20528   1.21650   1.22850   1.24915   1.26426
 Alpha virt. eigenvalues --    1.27555   1.29542   1.31588   1.32360   1.32654
 Alpha virt. eigenvalues --    1.34889   1.37055   1.38659   1.40833   1.43738
 Alpha virt. eigenvalues --    1.45608   1.50335   1.51201   1.53418   1.58257
 Alpha virt. eigenvalues --    1.59028   1.60249   1.65250   1.70982   1.71444
 Alpha virt. eigenvalues --    1.75821   1.77804   1.80731   1.85010   1.85805
 Alpha virt. eigenvalues --    1.92099   1.94282   1.98535   2.00566   2.02507
 Alpha virt. eigenvalues --    2.05411   2.05796   2.11319   2.12069   2.17663
 Alpha virt. eigenvalues --    2.19810   2.21374   2.23419   2.24980   2.26443
 Alpha virt. eigenvalues --    2.29352   2.31386   2.33719   2.34865   2.37102
 Alpha virt. eigenvalues --    2.38720   2.41613   2.44675   2.47435   2.50995
 Alpha virt. eigenvalues --    2.53124   2.53939   2.56682   2.57337   2.64127
 Alpha virt. eigenvalues --    2.67536   2.70930   2.74690   2.76366   2.78910
 Alpha virt. eigenvalues --    2.80799   2.83624   2.85388   2.88889   2.89993
 Alpha virt. eigenvalues --    2.93177   2.94719   2.96011   2.97950   2.99490
 Alpha virt. eigenvalues --    3.03038   3.04838   3.06823   3.09620   3.18600
 Alpha virt. eigenvalues --    3.24370   3.28733   3.38082   3.41887   3.49959
 Alpha virt. eigenvalues --    3.52777   3.57602   3.63977   3.67027   3.67762
 Alpha virt. eigenvalues --    3.80865   3.86954   3.89346   3.98336   4.06867
 Alpha virt. eigenvalues --    4.54118   5.84432   5.87486   5.95349   6.02742
 Alpha virt. eigenvalues --    6.03621   6.07067   6.09946   6.11275   6.11504
 Alpha virt. eigenvalues --    6.14327   6.14644   6.29139   6.34394   6.46410
 Alpha virt. eigenvalues --    6.91194
          Condensed to atoms (all electrons):
 Mulliken charges:
               1
     1  S    1.201037
     2  O   -3.083935
     3  O   -3.268648
     4  O   -1.886782
     5  N   -2.949076
     6  N    1.159175
     7  C   -0.935471
     8  C   -3.855077
     9  C    6.752681
    10  H    1.735383
    11  H    1.397704
    12  H    1.605740
    13  H    0.675543
    14  H    0.575624
    15  H    0.876103
 Sum of Mulliken charges =   0.00000
 Mulliken charges with hydrogens summed into heavy atoms:
               1
     1  S    1.201037
     2  O   -2.207832
     3  O   -3.268648
     4  O   -1.886782
     5  N   -1.697910
     6  N    1.159175
     7  C    0.799912
     8  C   -0.851633
     9  C    6.752681
 Electronic spatial extent (au):  <R**2>=           1841.2725
 Charge=              0.0000 electrons
 Dipole moment (field-independent basis, Debye):
    X=             -1.1434    Y=             -0.3087    Z=              0.0926  Tot=              1.1879

 Test job not archived.
 1\1\GINC-SE155\SP\RHF\Aug-CC-pVDZ\C3H6N2O3S1\OHZDE\06-Apr-2025\0\\#t h
 f aug-cc-pvdz iop(5/13=1,5/36=2,99/5=2) pseudo=read geom=check guess=(
 read,tcheck) scf=(maxcycle=1)\\title\\0,1\S,0,-1.708055,-0.944543,0.23
 8777\O,0,2.543314,1.082665,-0.736842\O,0,3.09984,-0.995616,-0.091408\O
 ,0,-3.637533,0.70492,-0.308545\N,0,0.648212,1.17518,1.198357\N,0,-2.50
 0457,0.538811,-0.543859\C,0,0.958154,-0.108039,0.596436\C,0,-0.057481,
 -0.638317,-0.450388\C,0,2.322002,-0.078776,-0.081186\H,0,1.047909,-0.8
 47293,1.39098\H,0,0.293305,-1.573053,-0.885849\H,0,-0.19672,0.090629,-
 1.251576\H,0,-0.227541,1.13295,1.703394\H,0,0.584033,1.910377,0.505497
 \H,0,3.412596,1.016178,-1.159186\\Version=ES64L-G16RevC.01\State=1-A\H
 F=-850.2768006\RMSD=3.861e-01\Dipole=-0.4498347,-0.1214371,0.0364326\Q
 uadrupole=-0.7543119,0.5743001,0.1800118,4.1690282,-4.3642592,-1.38102
 \PG=C01 [X(C3H6N2O3S1)]\\@


 GARLIC THEN HAVE POWER TO SAVE FROM DEATH
 BEAR WITH IT THOUGH IT MAKETH UNSAVORY BREATH,
 AND SCORN NOT GARLIC LIKE SOME THAT THINK
 IT ONLY MAKETH MEN WINK AND DRINK AND STINK.
   --  SIR JOHN HARRINGTON,
       "THE ENGLISHMAN'S DOCTOR", 1609
 Job cpu time:       0 days  0 hours  1 minutes 26.7 seconds.
 Elapsed time:       0 days  0 hours  0 minutes  6.5 seconds.
 File lengths (MBytes):  RWF=     14 Int=      0 D2E=      0 Chk=     10 Scr=      1
 Normal termination of Gaussian 16 at Sun Apr  6 08:10:11 2025.
