 Entering Gaussian System, Link 0=g16
 Input=37Conf8_Indometacin_6_mol1.gjf
 Output=37Conf8_Indometacin_6_mol1.log
 Initial command:
 /arc/software/Gaussian/g16.c01/l1.exe "/tmp/slurm/4832388/Gau-2310471.inp" -scrdir="/tmp/slurm/4832388/"
 Entering Link 1 = /arc/software/Gaussian/g16.c01/l1.exe PID=   2310472.
  
 Copyright (c) 1988-2019, Gaussian, Inc.  All Rights Reserved.
  
 This is part of the Gaussian(R) 16 program.  It is based on
 the Gaussian(R) 09 system (copyright 2009, Gaussian, Inc.),
 the Gaussian(R) 03 system (copyright 2003, Gaussian, Inc.),
 the Gaussian(R) 98 system (copyright 1998, Gaussian, Inc.),
 the Gaussian(R) 94 system (copyright 1995, Gaussian, Inc.),
 the Gaussian 92(TM) system (copyright 1992, Gaussian, Inc.),
 the Gaussian 90(TM) system (copyright 1990, Gaussian, Inc.),
 the Gaussian 88(TM) system (copyright 1988, Gaussian, Inc.),
 the Gaussian 86(TM) system (copyright 1986, Carnegie Mellon
 University), and the Gaussian 82(TM) system (copyright 1983,
 Carnegie Mellon University). Gaussian is a federally registered
 trademark of Gaussian, Inc.
  
 This software contains proprietary and confidential information,
 including trade secrets, belonging to Gaussian, Inc.
  
 This software is provided under written license and may be
 used, copied, transmitted, or stored only in accord with that
 written license.
  
 The following legend is applicable only to US Government
 contracts under FAR:
  
                    RESTRICTED RIGHTS LEGEND
  
 Use, reproduction and disclosure by the US Government is
 subject to restrictions as set forth in subparagraphs (a)
 and (c) of the Commercial Computer Software - Restricted
 Rights clause in FAR 52.227-19.
  
 Gaussian, Inc.
 340 Quinnipiac St., Bldg. 40, Wallingford CT 06492
  
  
 ---------------------------------------------------------------
 Warning -- This program may not be used in any manner that
 competes with the business of Gaussian, Inc. or will provide
 assistance to any competitor of Gaussian, Inc.  The licensee
 of this program is prohibited from giving any competitor of
 Gaussian, Inc. access to this program.  By using this program,
 the user acknowledges that Gaussian, Inc. is engaged in the
 business of creating and licensing software in the field of
 computational chemistry and represents and warrants to the
 licensee that it is not a competitor of Gaussian, Inc. and that
 it will not use this program in any manner prohibited above.
 ---------------------------------------------------------------
  

 Cite this work as:
 Gaussian 16, Revision C.01,
 M. J. Frisch, G. W. Trucks, H. B. Schlegel, G. E. Scuseria, 
 M. A. Robb, J. R. Cheeseman, G. Scalmani, V. Barone, 
 G. A. Petersson, H. Nakatsuji, X. Li, M. Caricato, A. V. Marenich, 
 J. Bloino, B. G. Janesko, R. Gomperts, B. Mennucci, H. P. Hratchian, 
 J. V. Ortiz, A. F. Izmaylov, J. L. Sonnenberg, D. Williams-Young, 
 F. Ding, F. Lipparini, F. Egidi, J. Goings, B. Peng, A. Petrone, 
 T. Henderson, D. Ranasinghe, V. G. Zakrzewski, J. Gao, N. Rega, 
 G. Zheng, W. Liang, M. Hada, M. Ehara, K. Toyota, R. Fukuda, 
 J. Hasegawa, M. Ishida, T. Nakajima, Y. Honda, O. Kitao, H. Nakai, 
 T. Vreven, K. Throssell, J. A. Montgomery, Jr., J. E. Peralta, 
 F. Ogliaro, M. J. Bearpark, J. J. Heyd, E. N. Brothers, K. N. Kudin, 
 V. N. Staroverov, T. A. Keith, R. Kobayashi, J. Normand, 
 K. Raghavachari, A. P. Rendell, J. C. Burant, S. S. Iyengar, 
 J. Tomasi, M. Cossi, J. M. Millam, M. Klene, C. Adamo, R. Cammi, 
 J. W. Ochterski, R. L. Martin, K. Morokuma, O. Farkas, 
 J. B. Foresman, and D. J. Fox, Gaussian, Inc., Wallingford CT, 2019.
 
 ******************************************
 Gaussian 16:  ES64L-G16RevC.01  3-Jul-2019
                 8-Apr-2025 
 ******************************************
 %nprocs=16
 Will use up to   16 processors via shared memory.
 %mem=30GB
 %chk=37Conf8_Indometacin_6_mol1.chk
 ----------------------------------------------------------------------
 #t hf aug-cc-pvdz symm=none int=(grid=ultrafine) guess=(read,tcheck) s
 table=(opt,rrhf)
 ----------------------------------------------------------------------
 -----
 title
 -----
 Symbolic Z-matrix:
 Charge =  0 Multiplicity = 1
 H                    -2.39137   4.93624   0.30488 
 O                    -1.63154   4.8482   -0.30125 
 C                    -1.1004    3.59312  -0.18783 
 C                    -1.75862   2.71348   0.88325 
 O                    -0.16066   3.27245  -0.87192 
 C                    -1.413     1.26982   0.77016 
 H                    -2.85219   2.84572   0.84762 
 H                    -1.43401   3.12866   1.85601 
 C                    -2.29724   0.21904   0.33315 
 C                    -0.1848    0.7144    1.04261 
 C                    -3.62874   0.2085   -0.08866 
 C                    -1.56226  -0.99273   0.38617 
 N                    -0.24724  -0.67046   0.78204 
 C                     0.99252   1.39165   1.65706 
 H                    -4.22659   1.11869  -0.15685 
 C                    -4.21222  -1.01185  -0.44616 
 C                    -2.13531  -2.20807   0.02897 
 C                     0.80361  -1.61188   0.79769 
 H                     1.67382   1.81761   0.90713 
 H                     0.64104   2.22264   2.28552 
 H                     1.57445   0.70993   2.29058 
 O                    -5.5229   -0.94584  -0.84303 
 C                    -3.46989  -2.20837  -0.38772 
 H                    -1.57099  -3.13578   0.09284 
 C                     2.14776  -1.13958   0.36448 
 O                     0.5901   -2.78719   1.06973 
 C                    -6.15464  -2.15946  -1.23167 
 H                    -3.93078  -3.1565   -0.65819 
 C                     3.28134  -1.77461   0.89279 
 C                     2.3048   -0.17999  -0.64711 
 H                    -5.64645  -2.62312  -2.09411 
 H                    -7.17715  -1.88681  -1.51707 
 H                    -6.18921  -2.88349  -0.39997 
 H                     3.14627  -2.54521   1.65278 
 C                     4.55496  -1.43207   0.45289 
 H                     1.42985   0.30541  -1.08304 
 C                     3.57386   0.15347  -1.11376 
 H                     5.44119  -1.90799   0.87169 
 C                     4.69102  -0.4675   -0.55081 
 H                     3.70037   0.88922  -1.90733 
 Cl                    6.27917  -0.04161  -1.11342 
 
                    Distance matrix (angstroms):
                    1          2          3          4          5
     1  H    0.000000
     2  O    0.975954   0.000000
     3  C    1.927002   1.367552   0.000000
     4  C    2.382341   2.444631   1.534351   0.000000
     5  O    3.021444   2.229830   1.205786   2.438554   0.000000
     6  C    3.823131   3.741722   2.532427   1.488757   2.876684
     7  H    2.208437   2.611478   2.167840   1.102113   3.222305
     8  H    2.567078   2.765792   2.122334   1.106349   3.013917
     9  C    4.718224   4.719613   3.617770   2.610546   3.916693
    10  C    4.820491   4.581192   3.261799   2.549240   3.195251
    11  C    4.902804   5.055771   4.225872   3.273665   4.693492
    12  C    5.987213   5.881650   4.644654   3.744548   4.662514
    13  N    6.021633   5.791840   4.454957   3.707501   4.276636
    14  C    5.083623   4.761135   3.553928   3.148776   3.356035
    15  H    4.260858   4.545809   3.987083   3.117056   4.656371
    16  C    6.265727   6.404771   5.563803   4.654629   5.911991
    17  C    7.154220   7.081933   5.896766   5.009326   5.894654
    18  C    7.302646   6.990727   5.629257   5.028030   5.251104
    19  H    5.158908   4.644358   3.470975   3.547506   2.940560
    20  H    4.525712   4.330077   3.320887   2.822349   3.422609
    21  H    6.126372   5.841338   4.648669   4.135716   4.424762
    22  O    6.761882   7.000508   6.371024   5.526343   6.822640
    23  C    7.258674   7.292612   6.269906   5.363620   6.420657
    24  H    8.116372   7.993930   6.751172   5.905404   6.632134
    25  C    7.584381   7.111949   5.766632   5.511352   5.130643
    26  O    8.314176   8.069353   6.719197   5.984031   6.407252
    27  C    8.177539   8.392343   7.728332   6.895174   8.097090
    28  H    8.293957   8.336014   7.334143   6.446005   7.455929
    29  C    8.806860   8.332091   7.012839   6.748647   6.358803
    30  C    7.009715   6.395083   5.103203   5.217811   4.248338
    31  H    8.572900   8.669168   7.933607   7.242872   8.145268
    32  H    8.530956   8.808653   8.289958   7.502311   8.733001
    33  H    8.721730   8.975585   8.239385   7.252783   8.629122
    34  H    9.405019   9.017107   7.687727   7.232146   7.152277
    35  C    9.424902   8.847785   7.592506   7.565189   6.791517
    36  H    6.162194   5.533556   4.244126   4.453250   3.373073
    37  C    7.776336   7.056688   5.876840   6.243160   4.871669
    38  H   10.416994   9.851162   8.612618   8.555430   7.826740
    39  C    8.949461   8.264001   7.082438   7.333009   6.134259
    40  H    7.640781   6.832443   5.771928   6.396549   4.653967
    41  Cl  10.097962   9.335373   8.278045   8.728303   7.246567
                    6          7          8          9         10
     6  C    0.000000
     7  H    2.135586   0.000000
     8  H    2.152858   1.762992   0.000000
     9  C    1.441179   2.733514   3.395609   0.000000
    10  C    1.375207   3.419871   2.837393   2.282787   0.000000
    11  C    2.602590   2.904235   4.138347   1.396756   3.660113
    12  C    2.299752   4.075605   4.377526   1.418236   2.289673
    13  N    2.263587   4.376481   4.122517   2.279301   1.410543
    14  C    2.566702   4.189428   2.990791   3.735006   1.490738
    15  H    2.966223   2.424988   3.986237   2.184459   4.235354
    16  C    3.810654   4.290034   5.492018   2.406151   4.627795
    17  C    3.628610   5.169613   5.684240   2.451451   3.656882
    18  C    3.635700   5.765203   5.347869   3.630886   2.539393
    19  H    3.138040   4.641693   3.503974   4.319050   2.165617
    20  H    2.724566   3.828634   2.304601   4.057050   2.121703
    21  H    3.398531   5.122389   3.884577   4.366061   2.156945
    22  O    4.939920   4.936286   6.372236   3.625635   5.899775
    23  C    4.203485   5.239413   6.137021   2.790534   4.623878
    24  H    4.460161   6.163563   6.509281   3.440931   4.200889
    25  C    4.318425   6.412140   5.768155   4.648102   3.055804
    26  O    4.534477   6.605177   6.301789   4.232812   3.586410
    27  C    6.184694   6.346767   7.731903   4.794315   7.005028
    28  H    5.288829   6.281518   7.215144   3.878850   5.648801
    29  C    5.596465   7.679172   6.870544   5.950495   4.269865
    30  C    4.234695   6.163091   5.584933   4.722172   3.138980
    31  H    6.425039   6.809543   8.150526   5.018633   7.127950
    32  H    6.958531   6.833292   8.337641   5.627738   7.887409
    33  H    6.436720   6.746557   7.990452   5.030963   7.146943
    34  H    6.010026   8.105056   7.294729   6.246143   4.700361
    35  C    6.558766   8.562778   7.657465   7.049337   5.236452
    36  H    3.527922   5.340083   4.981009   3.988014   2.700510
    37  C    5.446482   7.238048   6.538352   6.047120   4.369451
    38  H    7.555707   9.559210   8.579342   8.043481   6.209501
    39  C    6.482461   8.356617   7.499409   7.077323   5.263981
    40  H    5.784493   7.372495   6.748309   6.437408   4.881317
    41  Cl   8.027279   9.775689   8.852190   8.701455   6.855868
                   11         12         13         14         15
    11  C    0.000000
    12  C    2.436956   0.000000
    13  N    3.600727   1.410620   0.000000
    14  C    5.079707   3.718512   2.560266   0.000000
    15  H    1.091110   3.442618   4.462936   5.532078   0.000000
    16  C    1.399110   2.777666   4.164864   6.106526   2.150141
    17  C    2.843234   1.390334   2.548758   5.039046   3.933867
    18  C    4.872897   2.479927   1.410958   3.129760   5.802592
    19  H    5.630095   4.317595   3.145888   1.099094   6.036173
    20  H    5.284365   4.335973   3.379278   1.099566   5.556771
    21  H    5.743292   4.045340   2.738562   1.097603   6.309442
    22  O    2.342950   4.147264   5.527140   7.359688   2.532498
    23  C    2.440478   2.390761   3.757523   6.087230   3.419828
    24  H    3.930838   2.163049   2.881859   5.432862   5.021461
    25  C    5.949001   3.712989   2.475976   3.067975   6.782618
    26  O    5.302324   2.884440   2.294439   4.239057   6.321463
    27  C    3.646077   5.006857   6.416348   8.487464   3.952073
    28  H    3.426196   3.373792   4.671523   7.091187   4.314637
    29  C    7.255699   4.932389   3.698958   3.980956   8.114305
    30  C    5.972411   4.084405   2.965795   3.082423   6.677273
    31  H    4.013858   5.048819   6.421572   8.617748   4.446360
    32  H    4.361409   5.995723   7.401964   9.357719   4.425950
    33  H    4.026577   5.059808   6.449935   8.607290   4.464127
    34  H    7.517732   5.117104   3.973511   4.487485   8.429590
    35  C    8.364071   6.133339   4.873347   4.702595   9.164812
    36  H    5.156308   3.577215   2.691371   2.979819   5.789177
    37  C    7.275390   5.472047   4.344390   3.984200   7.917976
    38  H    9.362982   7.079671   5.822178   5.594202  10.182566
    39  C    8.359962   6.344865   5.118993   4.691485   9.066144
    40  H    7.582005   6.041287   5.024832   4.504416   8.121178
    41  Cl   9.963903   8.039989   6.825119   6.138278  10.612837
                   16         17         18         19         20
    16  C    0.000000
    17  C    2.443409   0.000000
    18  C    5.202475   3.095743   0.000000
    19  H    6.669536   5.611304   3.539865   0.000000
    20  H    6.440352   5.694851   4.116262   1.769362   0.000000
    21  H    6.628712   5.233729   2.865958   1.775039   1.777518
    22  O    1.371038   3.718787   6.569650   7.905219   7.604028
    23  C    1.409301   1.398118   4.474796   6.659047   6.609070
    24  H    3.431865   1.087742   2.908231   5.977285   6.197870
    25  C    6.412706   4.427067   1.489120   3.043692   4.155132
    26  O    5.339666   2.974293   1.225131   4.733400   5.155496
    27  C    2.388939   4.212670   7.268796   9.037496   8.817862
    28  H    2.173405   2.143693   5.188438   7.655295   7.648667
    29  C    7.650362   5.502197   2.484889   3.935527   4.988876
    30  C    6.572969   4.927958   2.528107   2.608487   4.140175
    31  H    2.714580   4.124056   7.140615   9.072700   9.066150
    32  H    3.271577   5.283332   8.314219   9.896421   9.616203
    33  H    2.722804   4.132104   7.207698   9.253977   8.940735
    34  H    7.804109   5.535839   2.662769   4.664579   5.423000
    35  C    8.823170   6.748451   3.771451   4.366660   5.659877
    36  H    5.828700   4.501612   2.757775   2.511383   3.955400
    37  C    7.901057   6.283098   3.800577   3.234735   4.943481
    38  H    9.784075   7.629127   4.647613   5.298531   6.488641
    39  C    8.920479   7.068558   4.270833   4.055960   5.628851
    40  H    8.267900   6.884593   4.686561   3.590264   5.358871
    41  Cl  10.557266   8.763679   6.008315   5.361769   6.961906
                   21         22         23         24         25
    21  H    0.000000
    22  O    7.933061   0.000000
    23  C    6.413668   2.452782   0.000000
    24  H    5.432618   4.614031   2.167221   0.000000
    25  C    2.731160   7.767538   5.767678   4.229386   0.000000
    26  O    3.832658   6.664682   4.352323   2.397111   2.374511
    27  C    8.965404   1.422326   2.814698   4.870049   8.515732
    28  H    7.345208   2.730573   1.088358   2.476506   6.485558
    29  C    3.322684   9.011913   6.885271   5.102726   1.402633
    30  C    3.155217   7.867515   6.126063   4.930108   1.403135
    31  H    9.081637   2.096124   2.796640   4.653487   8.306339
    32  H    9.890994   2.018984   3.888780   5.964962   9.542145
    33  H    8.968062   2.096368   2.801899   4.651287   8.551647
    34  H    3.670605   9.161963   6.931859   5.003472   2.152332
    35  C    4.104718  10.172467   8.106015   6.368636   2.426516
    36  H    3.400861   7.068519   5.550677   4.714820   2.167650
    37  C    3.987082   9.166942   7.464572   6.224510   2.427124
    38  H    4.880413  11.138998   9.004648   7.161337   3.419707
    39  C    4.378681  10.229289   8.346118   6.837161   2.785250
    40  H    4.708941   9.464084   7.957192   6.927376   3.418735
    41  Cl   5.855461  11.839747  10.013274   8.523729   4.523082
                   26         27         28         29         30
    26  O    0.000000
    27  C    7.154160   0.000000
    28  H    4.853911   2.503702   0.000000
    29  C    2.880868   9.679833   7.505320   0.000000
    30  C    3.561633   8.707591   6.909573   2.422341   0.000000
    31  H    6.995095   1.103196   2.299975   9.452353   8.443049
    32  H    8.236042   1.096046   3.590084  10.733128   9.673543
    33  H    6.937459   1.103240   2.289480   9.622482   8.917298
    34  H    2.632965   9.745552   7.469866   1.090712   3.404678
    35  C    4.235204  10.865651   8.730174   1.390307   2.800165
    36  H    3.860541   7.976350   6.395442   3.414440   1.091415
    37  C    4.724186  10.000363   8.214808   2.798089   1.392649
    38  H    4.934094  11.787732   9.577741   2.164067   3.889689
    39  C    4.982435  10.997938   9.032037   2.404104   2.405407
    40  H    5.661507  10.337901   8.727122   3.887448   2.163095
    41  Cl   6.683552  12.613441  10.684234   4.001894   4.004024
                   31         32         33         34         35
    31  H    0.000000
    32  H    1.793926   0.000000
    33  H    1.797913   1.793686   0.000000
    34  H    9.558095  10.819170   9.564487   0.000000
    35  C   10.581804  11.905038  10.875255   2.159450   0.000000
    36  H    7.724802   8.892393   8.287686   4.307765   3.891559
    37  C    9.679083  10.950325  10.249398   3.888374   2.435341
    38  H   11.499702  12.842474  11.740312   2.506553   1.089632
    39  C   10.672008  11.991729  11.146262   3.399844   1.398686
    40  H    9.986714  11.232946  10.691551   4.977622   3.418969
    41  Cl  12.241175  13.588239  12.808036   4.871852   2.712859
                   36         37         38         39         40
    36  H    0.000000
    37  C    2.149607   0.000000
    38  H    4.981060   3.417389   0.000000
    39  C    3.393507   1.396626   2.158998   0.000000
    40  H    2.485065   1.089535   4.310196   2.159218   0.000000
    41  Cl   4.861816   2.712335   2.850657   1.737853   2.854286
                   41
    41  Cl   0.000000
 Symmetry turned off by external request.
 Rotational constants (GHZ):           0.3050424           0.1113704           0.0890336
   723 basis functions,  1289 primitive gaussians,   773 cartesian basis functions
    93 alpha electrons       93 beta electrons
       nuclear repulsion energy      2220.3815604756 Hartrees.
 NAtoms=   41 NActive=   41 NUniq=   41 SFac= 1.00D+00 NAtFMM=   60 NAOKFM=F Big=F
 ExpMin= 2.97D-02 ExpMax= 1.28D+05 ExpMxC= 1.24D+03 IAcc=3 IRadAn=         5 AccDes= 0.00D+00
 Harris functional with IExCor=  205 and IRadAn=       5 diagonalized for initial guess.
 HarFok:  IExCor=  205 AccDes= 0.00D+00 IRadAn=         5 IDoV= 1 UseB2=F ITyADJ=14
 ICtDFT=  3500011 ScaDFX=  1.000000  1.000000  1.000000  1.000000
 FoFCou: FMM=F IPFlag=           0 FMFlag=      100000 FMFlg1=           0
         NFxFlg=           0 DoJE=T BraDBF=F KetDBF=T FulRan=T
         wScrn=  0.000000 ICntrl=       500 IOpCl=  0 I1Cent=   200000004 NGrid=           0
         NMat0=    1 NMatS0=      1 NMatT0=    0 NMatD0=    1 NMtDS0=    0 NMtDT0=    0
 Symmetry not used in FoFCou.
 SCF Done:  E(RHF) =  -1542.35879090     A.U. after   17 cycles
            NFock= 17  Conv=0.59D-08     -V/T= 2.0010

 **********************************************************************

            Population analysis using the SCF Density.

 **********************************************************************

 Alpha  occ. eigenvalues -- -104.85165 -20.63300 -20.59357 -20.56721 -20.56656
 Alpha  occ. eigenvalues --  -15.63404 -11.40751 -11.39337 -11.32979 -11.30662
 Alpha  occ. eigenvalues --  -11.30436 -11.29414 -11.28541 -11.27717 -11.27712
 Alpha  occ. eigenvalues --  -11.27551 -11.27339 -11.26985 -11.26920 -11.25408
 Alpha  occ. eigenvalues --  -11.25296 -11.24901 -11.24730 -11.23947 -11.23891
 Alpha  occ. eigenvalues --  -10.57780  -8.04563  -8.04223  -8.04215  -1.46762
 Alpha  occ. eigenvalues --   -1.41482  -1.40887  -1.37459  -1.30954  -1.20845
 Alpha  occ. eigenvalues --   -1.15308  -1.13793  -1.11626  -1.05076  -1.04374
 Alpha  occ. eigenvalues --   -1.03309  -1.02854  -1.01075  -0.94833  -0.93919
 Alpha  occ. eigenvalues --   -0.88541  -0.86478  -0.84455  -0.83230  -0.82086
 Alpha  occ. eigenvalues --   -0.79130  -0.77045  -0.73036  -0.72523  -0.70651
 Alpha  occ. eigenvalues --   -0.68945  -0.67610  -0.67427  -0.66824  -0.66262
 Alpha  occ. eigenvalues --   -0.65192  -0.65119  -0.63895  -0.63269  -0.61974
 Alpha  occ. eigenvalues --   -0.61416  -0.61117  -0.60244  -0.59423  -0.58497
 Alpha  occ. eigenvalues --   -0.57490  -0.57134  -0.56901  -0.55291  -0.54843
 Alpha  occ. eigenvalues --   -0.54319  -0.53671  -0.53055  -0.52532  -0.51555
 Alpha  occ. eigenvalues --   -0.50598  -0.48823  -0.48579  -0.47644  -0.46672
 Alpha  occ. eigenvalues --   -0.46104  -0.45229  -0.44225  -0.39019  -0.36480
 Alpha  occ. eigenvalues --   -0.35059  -0.29689  -0.29459
 Alpha virt. eigenvalues --    0.02311   0.03368   0.03526   0.04257   0.04733
 Alpha virt. eigenvalues --    0.04794   0.05425   0.05469   0.05672   0.05981
 Alpha virt. eigenvalues --    0.06274   0.07017   0.07306   0.07719   0.08151
 Alpha virt. eigenvalues --    0.08684   0.09024   0.09254   0.09436   0.09736
 Alpha virt. eigenvalues --    0.10194   0.10697   0.11031   0.11469   0.11800
 Alpha virt. eigenvalues --    0.12074   0.12378   0.12966   0.13073   0.13398
 Alpha virt. eigenvalues --    0.13792   0.14078   0.14288   0.14405   0.14735
 Alpha virt. eigenvalues --    0.15241   0.15462   0.15631   0.15758   0.15873
 Alpha virt. eigenvalues --    0.16124   0.16374   0.16631   0.16752   0.16930
 Alpha virt. eigenvalues --    0.17094   0.17300   0.17697   0.17975   0.18256
 Alpha virt. eigenvalues --    0.18431   0.18656   0.18986   0.19479   0.19620
 Alpha virt. eigenvalues --    0.19948   0.20409   0.20552   0.20636   0.21020
 Alpha virt. eigenvalues --    0.21604   0.21763   0.21885   0.22014   0.22340
 Alpha virt. eigenvalues --    0.22713   0.22940   0.23402   0.23664   0.24094
 Alpha virt. eigenvalues --    0.24367   0.24913   0.25419   0.25469   0.25916
 Alpha virt. eigenvalues --    0.26460   0.26579   0.26915   0.27196   0.27404
 Alpha virt. eigenvalues --    0.27935   0.28460   0.28605   0.28865   0.29426
 Alpha virt. eigenvalues --    0.29707   0.30189   0.30264   0.30680   0.31110
 Alpha virt. eigenvalues --    0.31291   0.31652   0.31851   0.32167   0.32679
 Alpha virt. eigenvalues --    0.32856   0.33379   0.33533   0.33696   0.33750
 Alpha virt. eigenvalues --    0.34024   0.34526   0.34560   0.34911   0.35406
 Alpha virt. eigenvalues --    0.35642   0.35944   0.36082   0.36354   0.36547
 Alpha virt. eigenvalues --    0.36799   0.37135   0.37268   0.37494   0.37749
 Alpha virt. eigenvalues --    0.38181   0.38446   0.38498   0.38828   0.39123
 Alpha virt. eigenvalues --    0.39340   0.39453   0.39992   0.40168   0.40676
 Alpha virt. eigenvalues --    0.40933   0.41216   0.41392   0.41603   0.42084
 Alpha virt. eigenvalues --    0.42324   0.42435   0.42700   0.43091   0.43512
 Alpha virt. eigenvalues --    0.43861   0.44110   0.44318   0.44714   0.45114
 Alpha virt. eigenvalues --    0.45310   0.46046   0.46196   0.46288   0.46623
 Alpha virt. eigenvalues --    0.46724   0.47192   0.47733   0.47883   0.48368
 Alpha virt. eigenvalues --    0.48731   0.48817   0.49438   0.49755   0.49972
 Alpha virt. eigenvalues --    0.50653   0.50838   0.51235   0.51527   0.51605
 Alpha virt. eigenvalues --    0.52528   0.52940   0.53273   0.53646   0.54277
 Alpha virt. eigenvalues --    0.54321   0.54731   0.54998   0.55601   0.56174
 Alpha virt. eigenvalues --    0.56353   0.56927   0.57359   0.57722   0.58062
 Alpha virt. eigenvalues --    0.58325   0.58868   0.59240   0.59709   0.59991
 Alpha virt. eigenvalues --    0.60513   0.60618   0.61079   0.61832   0.62225
 Alpha virt. eigenvalues --    0.62328   0.62843   0.63042   0.63195   0.63448
 Alpha virt. eigenvalues --    0.64093   0.64539   0.64697   0.65057   0.65699
 Alpha virt. eigenvalues --    0.65866   0.66042   0.66889   0.66963   0.67477
 Alpha virt. eigenvalues --    0.67660   0.67808   0.68174   0.68551   0.68760
 Alpha virt. eigenvalues --    0.68844   0.68896   0.69359   0.69725   0.69943
 Alpha virt. eigenvalues --    0.70086   0.70548   0.71008   0.71447   0.72038
 Alpha virt. eigenvalues --    0.72204   0.72491   0.72695   0.73102   0.73603
 Alpha virt. eigenvalues --    0.73835   0.74396   0.74672   0.74911   0.75281
 Alpha virt. eigenvalues --    0.75856   0.76006   0.76230   0.76531   0.76838
 Alpha virt. eigenvalues --    0.77842   0.77945   0.78199   0.78762   0.79205
 Alpha virt. eigenvalues --    0.79498   0.79677   0.80199   0.80470   0.80808
 Alpha virt. eigenvalues --    0.81254   0.82044   0.82318   0.82701   0.82736
 Alpha virt. eigenvalues --    0.83329   0.83628   0.84036   0.84522   0.84789
 Alpha virt. eigenvalues --    0.85078   0.85301   0.85707   0.86005   0.86473
 Alpha virt. eigenvalues --    0.87154   0.87563   0.88077   0.88255   0.89126
 Alpha virt. eigenvalues --    0.89538   0.89849   0.90481   0.90715   0.91139
 Alpha virt. eigenvalues --    0.91218   0.91742   0.91884   0.92146   0.92920
 Alpha virt. eigenvalues --    0.93554   0.93895   0.94722   0.94812   0.95253
 Alpha virt. eigenvalues --    0.95549   0.95869   0.97099   0.97147   0.97370
 Alpha virt. eigenvalues --    0.97856   0.98231   0.98451   0.99130   0.99501
 Alpha virt. eigenvalues --    0.99796   1.00201   1.01229   1.01608   1.01980
 Alpha virt. eigenvalues --    1.02878   1.03109   1.03389   1.04220   1.04472
 Alpha virt. eigenvalues --    1.05078   1.05633   1.05845   1.06049   1.07059
 Alpha virt. eigenvalues --    1.07758   1.07860   1.08230   1.08979   1.09642
 Alpha virt. eigenvalues --    1.09966   1.10632   1.11416   1.12158   1.12834
 Alpha virt. eigenvalues --    1.13111   1.13372   1.14032   1.14406   1.14988
 Alpha virt. eigenvalues --    1.16239   1.16892   1.17067   1.17082   1.17894
 Alpha virt. eigenvalues --    1.18774   1.19383   1.19698   1.20635   1.20862
 Alpha virt. eigenvalues --    1.21356   1.21928   1.22390   1.22910   1.23924
 Alpha virt. eigenvalues --    1.24688   1.25366   1.25921   1.26352   1.27337
 Alpha virt. eigenvalues --    1.27939   1.28361   1.29068   1.29715   1.30384
 Alpha virt. eigenvalues --    1.30771   1.31411   1.32719   1.33920   1.35202
 Alpha virt. eigenvalues --    1.35832   1.37113   1.37480   1.37951   1.38168
 Alpha virt. eigenvalues --    1.38977   1.39705   1.40288   1.40882   1.41811
 Alpha virt. eigenvalues --    1.42451   1.42841   1.43758   1.44197   1.44996
 Alpha virt. eigenvalues --    1.45559   1.46134   1.46378   1.47105   1.47761
 Alpha virt. eigenvalues --    1.48102   1.48392   1.48944   1.49362   1.49877
 Alpha virt. eigenvalues --    1.51225   1.51834   1.52199   1.53944   1.54297
 Alpha virt. eigenvalues --    1.54836   1.55493   1.56115   1.56520   1.57031
 Alpha virt. eigenvalues --    1.58092   1.58824   1.59695   1.59943   1.60676
 Alpha virt. eigenvalues --    1.61644   1.62349   1.62407   1.63252   1.63687
 Alpha virt. eigenvalues --    1.64532   1.65222   1.65701   1.66885   1.67990
 Alpha virt. eigenvalues --    1.68280   1.68343   1.68998   1.69093   1.71221
 Alpha virt. eigenvalues --    1.71425   1.71752   1.72226   1.72640   1.72877
 Alpha virt. eigenvalues --    1.73432   1.74308   1.74712   1.75626   1.75784
 Alpha virt. eigenvalues --    1.75985   1.77146   1.77292   1.78028   1.78532
 Alpha virt. eigenvalues --    1.78740   1.79530   1.80058   1.80856   1.81407
 Alpha virt. eigenvalues --    1.82302   1.82960   1.83719   1.83841   1.84285
 Alpha virt. eigenvalues --    1.84552   1.85125   1.86205   1.87214   1.88665
 Alpha virt. eigenvalues --    1.88905   1.89244   1.89601   1.90217   1.90970
 Alpha virt. eigenvalues --    1.91377   1.91601   1.91927   1.92605   1.92828
 Alpha virt. eigenvalues --    1.93268   1.94404   1.95117   1.95759   1.96315
 Alpha virt. eigenvalues --    1.96489   1.97131   1.98283   1.98493   1.99208
 Alpha virt. eigenvalues --    1.99916   2.00397   2.01682   2.02051   2.02332
 Alpha virt. eigenvalues --    2.02659   2.03312   2.03597   2.04603   2.04997
 Alpha virt. eigenvalues --    2.05729   2.06464   2.07474   2.08481   2.09030
 Alpha virt. eigenvalues --    2.09889   2.10993   2.11419   2.12349   2.13396
 Alpha virt. eigenvalues --    2.14418   2.15610   2.15699   2.16048   2.17166
 Alpha virt. eigenvalues --    2.17742   2.18112   2.19589   2.19695   2.21044
 Alpha virt. eigenvalues --    2.21754   2.21871   2.22338   2.23044   2.23326
 Alpha virt. eigenvalues --    2.24199   2.24450   2.24778   2.25674   2.26115
 Alpha virt. eigenvalues --    2.27431   2.27683   2.28470   2.29129   2.29424
 Alpha virt. eigenvalues --    2.29733   2.30199   2.31482   2.32075   2.32561
 Alpha virt. eigenvalues --    2.33047   2.33687   2.34616   2.34865   2.35820
 Alpha virt. eigenvalues --    2.36131   2.36334   2.37843   2.37971   2.38780
 Alpha virt. eigenvalues --    2.39626   2.39894   2.40503   2.41456   2.42093
 Alpha virt. eigenvalues --    2.42757   2.43448   2.44384   2.44523   2.45974
 Alpha virt. eigenvalues --    2.46754   2.47960   2.48498   2.49611   2.50098
 Alpha virt. eigenvalues --    2.50931   2.52277   2.52611   2.55101   2.55541
 Alpha virt. eigenvalues --    2.57465   2.58035   2.58653   2.59152   2.60196
 Alpha virt. eigenvalues --    2.61509   2.63267   2.63644   2.65126   2.65988
 Alpha virt. eigenvalues --    2.66553   2.67827   2.69487   2.69635   2.70334
 Alpha virt. eigenvalues --    2.70619   2.72666   2.73250   2.73984   2.75907
 Alpha virt. eigenvalues --    2.77269   2.78503   2.81147   2.82461   2.83352
 Alpha virt. eigenvalues --    2.85010   2.86604   2.88192   2.88965   2.91003
 Alpha virt. eigenvalues --    2.92060   2.94032   2.94284   2.94464   2.95149
 Alpha virt. eigenvalues --    2.95885   2.96696   2.98621   3.01615   3.02207
 Alpha virt. eigenvalues --    3.05502   3.08041   3.08526   3.09435   3.10396
 Alpha virt. eigenvalues --    3.11473   3.12784   3.14627   3.16522   3.17296
 Alpha virt. eigenvalues --    3.20038   3.23288   3.26124   3.27176   3.29590
 Alpha virt. eigenvalues --    3.30964   3.32692   3.34126   3.39344   3.39479
 Alpha virt. eigenvalues --    3.44842   3.46232   3.49347   3.54462   3.54876
 Alpha virt. eigenvalues --    3.69867   3.71167   3.72033   3.73463   3.74148
 Alpha virt. eigenvalues --    3.77893   3.78623   3.80479   3.80700   3.81867
 Alpha virt. eigenvalues --    3.83196   3.85044   3.86999   3.87205   3.90252
 Alpha virt. eigenvalues --    3.91630   3.92428   3.94717   3.97024   3.98450
 Alpha virt. eigenvalues --    4.04009   4.08346   4.10643   4.12599   4.17708
 Alpha virt. eigenvalues --    4.23007   4.24976   4.29129   4.35883   4.40232
 Alpha virt. eigenvalues --    4.61647   4.70318   5.15033
          Condensed to atoms (all electrons):
 Mulliken charges:
               1
     1  H    0.212889
     2  O   -0.769002
     3  C    1.221770
     4  C    0.078989
     5  O   -0.715256
     6  C    0.525970
     7  H   -0.165486
     8  H    0.133053
     9  C   -0.080214
    10  C   -0.806454
    11  C    1.153836
    12  C    0.246653
    13  N   -1.150870
    14  C    1.076671
    15  H   -0.680209
    16  C    0.409988
    17  C    0.823801
    18  C   -0.432442
    19  H    0.237645
    20  H   -0.090836
    21  H    0.015569
    22  O   -1.141522
    23  C    0.692431
    24  H   -0.696628
    25  C    1.611193
    26  O   -0.804807
    27  C    0.809240
    28  H   -0.801645
    29  C    0.290322
    30  C    0.930132
    31  H   -0.033602
    32  H   -0.344432
    33  H   -0.041502
    34  H   -0.680964
    35  C    0.803315
    36  H   -0.723041
    37  C    0.472915
    38  H   -0.412756
    39  C   -0.383156
    40  H   -0.448007
    41  Cl  -0.343551
 Sum of Mulliken charges =  -0.00000
 Mulliken charges with hydrogens summed into heavy atoms:
               1
     2  O   -0.556113
     3  C    1.221770
     4  C    0.046557
     5  O   -0.715256
     6  C    0.525970
     9  C   -0.080214
    10  C   -0.806454
    11  C    0.473627
    12  C    0.246653
    13  N   -1.150870
    14  C    1.239049
    16  C    0.409988
    17  C    0.127173
    18  C   -0.432442
    22  O   -1.141522
    23  C   -0.109214
    25  C    1.611193
    26  O   -0.804807
    27  C    0.389704
    29  C   -0.390642
    30  C    0.207091
    35  C    0.390559
    37  C    0.024908
    39  C   -0.383156
    41  Cl  -0.343551
 Electronic spatial extent (au):  <R**2>=          11515.7217
 Charge=             -0.0000 electrons
 Dipole moment (field-independent basis, Debye):
    X=             -2.1834    Y=              0.9614    Z=              2.6212  Tot=              3.5444
 NROrb=    721 NOA=    93 NOB=    93 NVA=   628 NVB=   628

 **** Warning!!: The largest alpha MO coefficient is  0.98890279D+02

    12 initial guesses have been made.
 Iteration     1 Dimension    12 NMult     0 NNew     12
 New state      1 was old state      3
 Iteration     2 Dimension    24 NMult    12 NNew     12
 New state      1 was old state      9
 Iteration     3 Dimension    27 NMult    24 NNew      3
 Iteration     4 Dimension    30 NMult    27 NNew      3
 Iteration     5 Dimension    33 NMult    30 NNew      3
 Iteration     6 Dimension    36 NMult    33 NNew      3
 Iteration     7 Dimension    39 NMult    36 NNew      3
 Iteration     8 Dimension    42 NMult    39 NNew      3
 Iteration     9 Dimension    45 NMult    42 NNew      3
 Iteration    10 Dimension    48 NMult    45 NNew      3
 Iteration    11 Dimension    51 NMult    48 NNew      3
 Iteration    12 Dimension    54 NMult    51 NNew      3
 Iteration    13 Dimension    57 NMult    54 NNew      3
 Iteration    14 Dimension    60 NMult    57 NNew      3
 ***********************************************************************
 Stability analysis using <AA,BB:AA,BB> singles matrix:
 ***********************************************************************
 Ground to excited state transition densities written to RWF  633

 Eigenvectors of the stability matrix:
 
 Excited state symmetry could not be determined.
 Eigenvector   1:      Singlet-?Sym  Eigenvalue= 0.1534922  <S**2>=0.000
      92 ->100        -0.15656
      92 ->111         0.10258
      92 ->112         0.26002
      92 ->114        -0.13170
      93 ->112        -0.26271
      93 ->113         0.10785
      93 ->114         0.11051
      93 ->119        -0.11276
      93 ->121         0.10986
 The wavefunction is stable under the perturbations considered.
 The wavefunction is already stable.

 **********************************************************************

            Population analysis using the SCF Density.

 **********************************************************************

 Alpha  occ. eigenvalues -- -104.85165 -20.63300 -20.59357 -20.56721 -20.56656
 Alpha  occ. eigenvalues --  -15.63404 -11.40751 -11.39337 -11.32979 -11.30662
 Alpha  occ. eigenvalues --  -11.30436 -11.29414 -11.28541 -11.27717 -11.27712
 Alpha  occ. eigenvalues --  -11.27551 -11.27339 -11.26985 -11.26920 -11.25408
 Alpha  occ. eigenvalues --  -11.25296 -11.24901 -11.24730 -11.23947 -11.23891
 Alpha  occ. eigenvalues --  -10.57780  -8.04563  -8.04223  -8.04215  -1.46762
 Alpha  occ. eigenvalues --   -1.41482  -1.40887  -1.37459  -1.30954  -1.20845
 Alpha  occ. eigenvalues --   -1.15308  -1.13793  -1.11626  -1.05076  -1.04374
 Alpha  occ. eigenvalues --   -1.03309  -1.02854  -1.01075  -0.94833  -0.93919
 Alpha  occ. eigenvalues --   -0.88541  -0.86478  -0.84455  -0.83230  -0.82086
 Alpha  occ. eigenvalues --   -0.79130  -0.77045  -0.73036  -0.72523  -0.70651
 Alpha  occ. eigenvalues --   -0.68945  -0.67610  -0.67427  -0.66824  -0.66262
 Alpha  occ. eigenvalues --   -0.65192  -0.65119  -0.63895  -0.63269  -0.61974
 Alpha  occ. eigenvalues --   -0.61416  -0.61117  -0.60244  -0.59423  -0.58497
 Alpha  occ. eigenvalues --   -0.57490  -0.57134  -0.56901  -0.55291  -0.54843
 Alpha  occ. eigenvalues --   -0.54319  -0.53671  -0.53055  -0.52532  -0.51555
 Alpha  occ. eigenvalues --   -0.50598  -0.48823  -0.48579  -0.47644  -0.46672
 Alpha  occ. eigenvalues --   -0.46104  -0.45229  -0.44225  -0.39019  -0.36480
 Alpha  occ. eigenvalues --   -0.35059  -0.29689  -0.29459
 Alpha virt. eigenvalues --    0.02311   0.03368   0.03526   0.04257   0.04733
 Alpha virt. eigenvalues --    0.04794   0.05425   0.05469   0.05672   0.05981
 Alpha virt. eigenvalues --    0.06274   0.07017   0.07306   0.07719   0.08151
 Alpha virt. eigenvalues --    0.08684   0.09024   0.09254   0.09436   0.09736
 Alpha virt. eigenvalues --    0.10194   0.10697   0.11031   0.11469   0.11800
 Alpha virt. eigenvalues --    0.12074   0.12378   0.12966   0.13073   0.13398
 Alpha virt. eigenvalues --    0.13792   0.14078   0.14288   0.14405   0.14735
 Alpha virt. eigenvalues --    0.15241   0.15462   0.15631   0.15758   0.15873
 Alpha virt. eigenvalues --    0.16124   0.16374   0.16631   0.16752   0.16930
 Alpha virt. eigenvalues --    0.17094   0.17300   0.17697   0.17975   0.18256
 Alpha virt. eigenvalues --    0.18431   0.18656   0.18986   0.19479   0.19620
 Alpha virt. eigenvalues --    0.19948   0.20409   0.20552   0.20636   0.21020
 Alpha virt. eigenvalues --    0.21604   0.21763   0.21885   0.22014   0.22340
 Alpha virt. eigenvalues --    0.22713   0.22940   0.23402   0.23664   0.24094
 Alpha virt. eigenvalues --    0.24367   0.24913   0.25419   0.25469   0.25916
 Alpha virt. eigenvalues --    0.26460   0.26579   0.26915   0.27196   0.27404
 Alpha virt. eigenvalues --    0.27935   0.28460   0.28605   0.28865   0.29426
 Alpha virt. eigenvalues --    0.29707   0.30189   0.30264   0.30680   0.31110
 Alpha virt. eigenvalues --    0.31291   0.31652   0.31851   0.32167   0.32679
 Alpha virt. eigenvalues --    0.32856   0.33379   0.33533   0.33696   0.33750
 Alpha virt. eigenvalues --    0.34024   0.34526   0.34560   0.34911   0.35406
 Alpha virt. eigenvalues --    0.35642   0.35944   0.36082   0.36354   0.36547
 Alpha virt. eigenvalues --    0.36799   0.37135   0.37268   0.37494   0.37749
 Alpha virt. eigenvalues --    0.38181   0.38446   0.38498   0.38828   0.39123
 Alpha virt. eigenvalues --    0.39340   0.39453   0.39992   0.40168   0.40676
 Alpha virt. eigenvalues --    0.40933   0.41216   0.41392   0.41603   0.42084
 Alpha virt. eigenvalues --    0.42324   0.42435   0.42700   0.43091   0.43512
 Alpha virt. eigenvalues --    0.43861   0.44110   0.44318   0.44714   0.45114
 Alpha virt. eigenvalues --    0.45310   0.46046   0.46196   0.46288   0.46623
 Alpha virt. eigenvalues --    0.46724   0.47192   0.47733   0.47883   0.48368
 Alpha virt. eigenvalues --    0.48731   0.48817   0.49438   0.49755   0.49972
 Alpha virt. eigenvalues --    0.50653   0.50838   0.51235   0.51527   0.51605
 Alpha virt. eigenvalues --    0.52528   0.52940   0.53273   0.53646   0.54277
 Alpha virt. eigenvalues --    0.54321   0.54731   0.54998   0.55601   0.56174
 Alpha virt. eigenvalues --    0.56353   0.56927   0.57359   0.57722   0.58062
 Alpha virt. eigenvalues --    0.58325   0.58868   0.59240   0.59709   0.59991
 Alpha virt. eigenvalues --    0.60513   0.60618   0.61079   0.61832   0.62225
 Alpha virt. eigenvalues --    0.62328   0.62843   0.63042   0.63195   0.63448
 Alpha virt. eigenvalues --    0.64093   0.64539   0.64697   0.65057   0.65699
 Alpha virt. eigenvalues --    0.65866   0.66042   0.66889   0.66963   0.67477
 Alpha virt. eigenvalues --    0.67660   0.67808   0.68174   0.68551   0.68760
 Alpha virt. eigenvalues --    0.68844   0.68896   0.69359   0.69725   0.69943
 Alpha virt. eigenvalues --    0.70086   0.70548   0.71008   0.71447   0.72038
 Alpha virt. eigenvalues --    0.72204   0.72491   0.72695   0.73102   0.73603
 Alpha virt. eigenvalues --    0.73835   0.74396   0.74672   0.74911   0.75281
 Alpha virt. eigenvalues --    0.75856   0.76006   0.76230   0.76531   0.76838
 Alpha virt. eigenvalues --    0.77842   0.77945   0.78199   0.78762   0.79205
 Alpha virt. eigenvalues --    0.79498   0.79677   0.80199   0.80470   0.80808
 Alpha virt. eigenvalues --    0.81254   0.82044   0.82318   0.82701   0.82736
 Alpha virt. eigenvalues --    0.83329   0.83628   0.84036   0.84522   0.84789
 Alpha virt. eigenvalues --    0.85078   0.85301   0.85707   0.86005   0.86473
 Alpha virt. eigenvalues --    0.87154   0.87563   0.88077   0.88255   0.89126
 Alpha virt. eigenvalues --    0.89538   0.89849   0.90481   0.90715   0.91139
 Alpha virt. eigenvalues --    0.91218   0.91742   0.91884   0.92146   0.92920
 Alpha virt. eigenvalues --    0.93554   0.93895   0.94722   0.94812   0.95253
 Alpha virt. eigenvalues --    0.95549   0.95869   0.97099   0.97147   0.97370
 Alpha virt. eigenvalues --    0.97856   0.98231   0.98451   0.99130   0.99501
 Alpha virt. eigenvalues --    0.99796   1.00201   1.01229   1.01608   1.01980
 Alpha virt. eigenvalues --    1.02878   1.03109   1.03389   1.04220   1.04472
 Alpha virt. eigenvalues --    1.05078   1.05633   1.05845   1.06049   1.07059
 Alpha virt. eigenvalues --    1.07758   1.07860   1.08230   1.08979   1.09642
 Alpha virt. eigenvalues --    1.09966   1.10632   1.11416   1.12158   1.12834
 Alpha virt. eigenvalues --    1.13111   1.13372   1.14032   1.14406   1.14988
 Alpha virt. eigenvalues --    1.16239   1.16892   1.17067   1.17082   1.17894
 Alpha virt. eigenvalues --    1.18774   1.19383   1.19698   1.20635   1.20862
 Alpha virt. eigenvalues --    1.21356   1.21928   1.22390   1.22910   1.23924
 Alpha virt. eigenvalues --    1.24688   1.25366   1.25921   1.26352   1.27337
 Alpha virt. eigenvalues --    1.27939   1.28361   1.29068   1.29715   1.30384
 Alpha virt. eigenvalues --    1.30771   1.31411   1.32719   1.33920   1.35202
 Alpha virt. eigenvalues --    1.35832   1.37113   1.37480   1.37951   1.38168
 Alpha virt. eigenvalues --    1.38977   1.39705   1.40288   1.40882   1.41811
 Alpha virt. eigenvalues --    1.42451   1.42841   1.43758   1.44197   1.44996
 Alpha virt. eigenvalues --    1.45559   1.46134   1.46378   1.47105   1.47761
 Alpha virt. eigenvalues --    1.48102   1.48392   1.48944   1.49362   1.49877
 Alpha virt. eigenvalues --    1.51225   1.51834   1.52199   1.53944   1.54297
 Alpha virt. eigenvalues --    1.54836   1.55493   1.56115   1.56520   1.57031
 Alpha virt. eigenvalues --    1.58092   1.58824   1.59695   1.59943   1.60676
 Alpha virt. eigenvalues --    1.61644   1.62349   1.62407   1.63252   1.63687
 Alpha virt. eigenvalues --    1.64532   1.65222   1.65701   1.66885   1.67990
 Alpha virt. eigenvalues --    1.68280   1.68343   1.68998   1.69093   1.71221
 Alpha virt. eigenvalues --    1.71425   1.71752   1.72226   1.72640   1.72877
 Alpha virt. eigenvalues --    1.73432   1.74308   1.74712   1.75626   1.75784
 Alpha virt. eigenvalues --    1.75985   1.77146   1.77292   1.78028   1.78532
 Alpha virt. eigenvalues --    1.78740   1.79530   1.80058   1.80856   1.81407
 Alpha virt. eigenvalues --    1.82302   1.82960   1.83719   1.83841   1.84285
 Alpha virt. eigenvalues --    1.84552   1.85125   1.86205   1.87214   1.88665
 Alpha virt. eigenvalues --    1.88905   1.89244   1.89601   1.90217   1.90970
 Alpha virt. eigenvalues --    1.91377   1.91601   1.91927   1.92605   1.92828
 Alpha virt. eigenvalues --    1.93268   1.94404   1.95117   1.95759   1.96315
 Alpha virt. eigenvalues --    1.96489   1.97131   1.98283   1.98493   1.99208
 Alpha virt. eigenvalues --    1.99916   2.00397   2.01682   2.02051   2.02332
 Alpha virt. eigenvalues --    2.02659   2.03312   2.03597   2.04603   2.04997
 Alpha virt. eigenvalues --    2.05729   2.06464   2.07474   2.08481   2.09030
 Alpha virt. eigenvalues --    2.09889   2.10993   2.11419   2.12349   2.13396
 Alpha virt. eigenvalues --    2.14418   2.15610   2.15699   2.16048   2.17166
 Alpha virt. eigenvalues --    2.17742   2.18112   2.19589   2.19695   2.21044
 Alpha virt. eigenvalues --    2.21754   2.21871   2.22338   2.23044   2.23326
 Alpha virt. eigenvalues --    2.24199   2.24450   2.24778   2.25674   2.26115
 Alpha virt. eigenvalues --    2.27431   2.27683   2.28470   2.29129   2.29424
 Alpha virt. eigenvalues --    2.29733   2.30199   2.31482   2.32075   2.32561
 Alpha virt. eigenvalues --    2.33047   2.33687   2.34616   2.34865   2.35820
 Alpha virt. eigenvalues --    2.36131   2.36334   2.37843   2.37971   2.38780
 Alpha virt. eigenvalues --    2.39626   2.39894   2.40503   2.41456   2.42093
 Alpha virt. eigenvalues --    2.42757   2.43448   2.44384   2.44523   2.45974
 Alpha virt. eigenvalues --    2.46754   2.47960   2.48498   2.49611   2.50098
 Alpha virt. eigenvalues --    2.50931   2.52277   2.52611   2.55101   2.55541
 Alpha virt. eigenvalues --    2.57465   2.58035   2.58653   2.59152   2.60196
 Alpha virt. eigenvalues --    2.61509   2.63267   2.63644   2.65126   2.65988
 Alpha virt. eigenvalues --    2.66553   2.67827   2.69487   2.69635   2.70334
 Alpha virt. eigenvalues --    2.70619   2.72666   2.73250   2.73984   2.75907
 Alpha virt. eigenvalues --    2.77269   2.78503   2.81147   2.82461   2.83352
 Alpha virt. eigenvalues --    2.85010   2.86604   2.88192   2.88965   2.91003
 Alpha virt. eigenvalues --    2.92060   2.94032   2.94284   2.94464   2.95149
 Alpha virt. eigenvalues --    2.95885   2.96696   2.98621   3.01615   3.02207
 Alpha virt. eigenvalues --    3.05502   3.08041   3.08526   3.09435   3.10396
 Alpha virt. eigenvalues --    3.11473   3.12784   3.14627   3.16522   3.17296
 Alpha virt. eigenvalues --    3.20038   3.23288   3.26124   3.27176   3.29590
 Alpha virt. eigenvalues --    3.30964   3.32692   3.34126   3.39344   3.39479
 Alpha virt. eigenvalues --    3.44842   3.46232   3.49347   3.54462   3.54876
 Alpha virt. eigenvalues --    3.69867   3.71167   3.72033   3.73463   3.74148
 Alpha virt. eigenvalues --    3.77893   3.78623   3.80479   3.80700   3.81867
 Alpha virt. eigenvalues --    3.83196   3.85044   3.86999   3.87205   3.90252
 Alpha virt. eigenvalues --    3.91630   3.92428   3.94717   3.97024   3.98450
 Alpha virt. eigenvalues --    4.04009   4.08346   4.10643   4.12599   4.17708
 Alpha virt. eigenvalues --    4.23007   4.24976   4.29129   4.35883   4.40232
 Alpha virt. eigenvalues --    4.61647   4.70318   5.15033
          Condensed to atoms (all electrons):
 Mulliken charges:
               1
     1  H    0.212889
     2  O   -0.769002
     3  C    1.221770
     4  C    0.078989
     5  O   -0.715256
     6  C    0.525970
     7  H   -0.165486
     8  H    0.133053
     9  C   -0.080214
    10  C   -0.806454
    11  C    1.153836
    12  C    0.246653
    13  N   -1.150870
    14  C    1.076671
    15  H   -0.680209
    16  C    0.409988
    17  C    0.823801
    18  C   -0.432442
    19  H    0.237645
    20  H   -0.090836
    21  H    0.015569
    22  O   -1.141522
    23  C    0.692431
    24  H   -0.696628
    25  C    1.611193
    26  O   -0.804807
    27  C    0.809240
    28  H   -0.801645
    29  C    0.290322
    30  C    0.930132
    31  H   -0.033602
    32  H   -0.344432
    33  H   -0.041502
    34  H   -0.680964
    35  C    0.803315
    36  H   -0.723041
    37  C    0.472915
    38  H   -0.412756
    39  C   -0.383156
    40  H   -0.448007
    41  Cl  -0.343551
 Sum of Mulliken charges =  -0.00000
 Mulliken charges with hydrogens summed into heavy atoms:
               1
     2  O   -0.556113
     3  C    1.221770
     4  C    0.046557
     5  O   -0.715256
     6  C    0.525970
     9  C   -0.080214
    10  C   -0.806454
    11  C    0.473627
    12  C    0.246653
    13  N   -1.150870
    14  C    1.239049
    16  C    0.409988
    17  C    0.127173
    18  C   -0.432442
    22  O   -1.141522
    23  C   -0.109214
    25  C    1.611193
    26  O   -0.804807
    27  C    0.389704
    29  C   -0.390642
    30  C    0.207091
    35  C    0.390559
    37  C    0.024908
    39  C   -0.383156
    41  Cl  -0.343551
 Electronic spatial extent (au):  <R**2>=          11515.7217
 Charge=             -0.0000 electrons
 Dipole moment (field-independent basis, Debye):
    X=             -2.1834    Y=              0.9614    Z=              2.6212  Tot=              3.5444
 Unable to Open any file for archive entry.
 1\1\GINC-SE073\Stability\RHF\Aug-CC-pVDZ\C19H16Cl1N1O4\OHZDE\08-Apr-20
 25\0\\#t hf aug-cc-pvdz symm=none int=(grid=ultrafine) guess=(read,tch
 eck) stable=(opt,rrhf)\\title\\0,1\H,0,-2.39137,4.93624,0.30488\O,0,-1
 .63154,4.8482,-0.30125\C,0,-1.1004,3.59312,-0.18783\C,0,-1.75862,2.713
 48,0.88325\O,0,-0.16066,3.27245,-0.87192\C,0,-1.413,1.26982,0.77016\H,
 0,-2.85219,2.84572,0.84762\H,0,-1.43401,3.12866,1.85601\C,0,-2.29724,0
 .21904,0.33315\C,0,-0.1848,0.7144,1.04261\C,0,-3.62874,0.2085,-0.08866
 \C,0,-1.56226,-0.99273,0.38617\N,0,-0.24724,-0.67046,0.78204\C,0,0.992
 52,1.39165,1.65706\H,0,-4.22659,1.11869,-0.15685\C,0,-4.21222,-1.01185
 ,-0.44616\C,0,-2.13531,-2.20807,0.02897\C,0,0.80361,-1.61188,0.79769\H
 ,0,1.67382,1.81761,0.90713\H,0,0.64104,2.22264,2.28552\H,0,1.57445,0.7
 0993,2.29058\O,0,-5.5229,-0.94584,-0.84303\C,0,-3.46989,-2.20837,-0.38
 772\H,0,-1.57099,-3.13578,0.09284\C,0,2.14776,-1.13958,0.36448\O,0,0.5
 901,-2.78719,1.06973\C,0,-6.15464,-2.15946,-1.23167\H,0,-3.93078,-3.15
 65,-0.65819\C,0,3.28134,-1.77461,0.89279\C,0,2.3048,-0.17999,-0.64711\
 H,0,-5.64645,-2.62312,-2.09411\H,0,-7.17715,-1.88681,-1.51707\H,0,-6.1
 8921,-2.88349,-0.39997\H,0,3.14627,-2.54521,1.65278\C,0,4.55496,-1.432
 07,0.45289\H,0,1.42985,0.30541,-1.08304\C,0,3.57386,0.15347,-1.11376\H
 ,0,5.44119,-1.90799,0.87169\C,0,4.69102,-0.4675,-0.55081\H,0,3.70037,0
 .88922,-1.90733\Cl,0,6.27917,-0.04161,-1.11342\\Version=ES64L-G16RevC.
 01\HF=-1542.3587909\RMSD=5.852e-09\Dipole=-0.8590294,0.3782554,1.03126
 61\Quadrupole=6.0157044,-2.8867698,-3.1289346,-3.64792,4.0039286,11.89
 66414\PG=Unknown\\@
 The archive entry for this job was punched.


 ... UNTIL SCIENCE IS MIXED WITH EMOTION AND APPEALS TO THE HEART AND
 IMAGINATION , IT IS LIKE DEAD INORGANIC MATTER; AND WHEN IT IS SO MIXED
 AND SO TRANSFORMED IT IS LITERATURE.

                                  -- JOHN BURROUGHS
 Job cpu time:       0 days 13 hours 17 minutes  3.2 seconds.
 Elapsed time:       0 days  0 hours 51 minutes 14.1 seconds.
 File lengths (MBytes):  RWF=   2332 Int=      0 D2E=      0 Chk=     67 Scr=      1
 Normal termination of Gaussian 16 at Tue Apr  8 18:02:41 2025.
 Initial command:
 /arc/software/Gaussian/g16.c01/l1.exe "/tmp/slurm/4832388/Gau-2310471.inp" -scrdir="/tmp/slurm/4832388/"
 Entering Link 1 = /arc/software/Gaussian/g16.c01/l1.exe PID=   2311866.
  
 Copyright (c) 1988-2019, Gaussian, Inc.  All Rights Reserved.
  
 This is part of the Gaussian(R) 16 program.  It is based on
 the Gaussian(R) 09 system (copyright 2009, Gaussian, Inc.),
 the Gaussian(R) 03 system (copyright 2003, Gaussian, Inc.),
 the Gaussian(R) 98 system (copyright 1998, Gaussian, Inc.),
 the Gaussian(R) 94 system (copyright 1995, Gaussian, Inc.),
 the Gaussian 92(TM) system (copyright 1992, Gaussian, Inc.),
 the Gaussian 90(TM) system (copyright 1990, Gaussian, Inc.),
 the Gaussian 88(TM) system (copyright 1988, Gaussian, Inc.),
 the Gaussian 86(TM) system (copyright 1986, Carnegie Mellon
 University), and the Gaussian 82(TM) system (copyright 1983,
 Carnegie Mellon University). Gaussian is a federally registered
 trademark of Gaussian, Inc.
  
 This software contains proprietary and confidential information,
 including trade secrets, belonging to Gaussian, Inc.
  
 This software is provided under written license and may be
 used, copied, transmitted, or stored only in accord with that
 written license.
  
 The following legend is applicable only to US Government
 contracts under FAR:
  
                    RESTRICTED RIGHTS LEGEND
  
 Use, reproduction and disclosure by the US Government is
 subject to restrictions as set forth in subparagraphs (a)
 and (c) of the Commercial Computer Software - Restricted
 Rights clause in FAR 52.227-19.
  
 Gaussian, Inc.
 340 Quinnipiac St., Bldg. 40, Wallingford CT 06492
  
  
 ---------------------------------------------------------------
 Warning -- This program may not be used in any manner that
 competes with the business of Gaussian, Inc. or will provide
 assistance to any competitor of Gaussian, Inc.  The licensee
 of this program is prohibited from giving any competitor of
 Gaussian, Inc. access to this program.  By using this program,
 the user acknowledges that Gaussian, Inc. is engaged in the
 business of creating and licensing software in the field of
 computational chemistry and represents and warrants to the
 licensee that it is not a competitor of Gaussian, Inc. and that
 it will not use this program in any manner prohibited above.
 ---------------------------------------------------------------
  

 Cite this work as:
 Gaussian 16, Revision C.01,
 M. J. Frisch, G. W. Trucks, H. B. Schlegel, G. E. Scuseria, 
 M. A. Robb, J. R. Cheeseman, G. Scalmani, V. Barone, 
 G. A. Petersson, H. Nakatsuji, X. Li, M. Caricato, A. V. Marenich, 
 J. Bloino, B. G. Janesko, R. Gomperts, B. Mennucci, H. P. Hratchian, 
 J. V. Ortiz, A. F. Izmaylov, J. L. Sonnenberg, D. Williams-Young, 
 F. Ding, F. Lipparini, F. Egidi, J. Goings, B. Peng, A. Petrone, 
 T. Henderson, D. Ranasinghe, V. G. Zakrzewski, J. Gao, N. Rega, 
 G. Zheng, W. Liang, M. Hada, M. Ehara, K. Toyota, R. Fukuda, 
 J. Hasegawa, M. Ishida, T. Nakajima, Y. Honda, O. Kitao, H. Nakai, 
 T. Vreven, K. Throssell, J. A. Montgomery, Jr., J. E. Peralta, 
 F. Ogliaro, M. J. Bearpark, J. J. Heyd, E. N. Brothers, K. N. Kudin, 
 V. N. Staroverov, T. A. Keith, R. Kobayashi, J. Normand, 
 K. Raghavachari, A. P. Rendell, J. C. Burant, S. S. Iyengar, 
 J. Tomasi, M. Cossi, J. M. Millam, M. Klene, C. Adamo, R. Cammi, 
 J. W. Ochterski, R. L. Martin, K. Morokuma, O. Farkas, 
 J. B. Foresman, and D. J. Fox, Gaussian, Inc., Wallingford CT, 2019.
 
 ******************************************
 Gaussian 16:  ES64L-G16RevC.01  3-Jul-2019
                 8-Apr-2025 
 ******************************************
 %nprocs=16
 Will use up to   16 processors via shared memory.
 %mem=30GB
 %chk=37Conf8_Indometacin_6_mol1.chk
 ----------------------------------------------------------------------
 #t hf aug-cc-pvdz iop(5/13=1,5/36=2,99/5=2) pseudo=read geom=check gue
 ss=(read,tcheck) scf=(maxcycle=1)
 ----------------------------------------------------------------------
 -----
 title
 -----
 Structure from the checkpoint file:  "37Conf8_Indometacin_6_mol1.chk"
 Charge =  0 Multiplicity = 1
 Z-Matrix found in chk file.
 H,0,-2.39137,4.93624,0.30488
 O,0,-1.63154,4.8482,-0.30125
 C,0,-1.1004,3.59312,-0.18783
 C,0,-1.75862,2.71348,0.88325
 O,0,-0.16066,3.27245,-0.87192
 C,0,-1.413,1.26982,0.77016
 H,0,-2.85219,2.84572,0.84762
 H,0,-1.43401,3.12866,1.85601
 C,0,-2.29724,0.21904,0.33315
 C,0,-0.1848,0.7144,1.04261
 C,0,-3.62874,0.2085,-0.08866
 C,0,-1.56226,-0.99273,0.38617
 N,0,-0.24724,-0.67046,0.78204
 C,0,0.99252,1.39165,1.65706
 H,0,-4.22659,1.11869,-0.15685
 C,0,-4.21222,-1.01185,-0.44616
 C,0,-2.13531,-2.20807,0.02897
 C,0,0.80361,-1.61188,0.79769
 H,0,1.67382,1.81761,0.90713
 H,0,0.64104,2.22264,2.28552
 H,0,1.57445,0.70993,2.29058
 O,0,-5.5229,-0.94584,-0.84303
 C,0,-3.46989,-2.20837,-0.38772
 H,0,-1.57099,-3.13578,0.09284
 C,0,2.14776,-1.13958,0.36448
 O,0,0.5901,-2.78719,1.06973
 C,0,-6.15464,-2.15946,-1.23167
 H,0,-3.93078,-3.1565,-0.65819
 C,0,3.28134,-1.77461,0.89279
 C,0,2.3048,-0.17999,-0.64711
 H,0,-5.64645,-2.62312,-2.09411
 H,0,-7.17715,-1.88681,-1.51707
 H,0,-6.18921,-2.88349,-0.39997
 H,0,3.14627,-2.54521,1.65278
 C,0,4.55496,-1.43207,0.45289
 H,0,1.42985,0.30541,-1.08304
 C,0,3.57386,0.15347,-1.11376
 H,0,5.44119,-1.90799,0.87169
 C,0,4.69102,-0.4675,-0.55081
 H,0,3.70037,0.88922,-1.90733
 Cl,0,6.27917,-0.04161,-1.11342
 Recover connectivity data from disk.
                    Distance matrix (angstroms):
                    1          2          3          4          5
     1  H    0.000000
     2  O    0.975954   0.000000
     3  C    1.927002   1.367552   0.000000
     4  C    2.382341   2.444631   1.534351   0.000000
     5  O    3.021444   2.229830   1.205786   2.438554   0.000000
     6  C    3.823131   3.741722   2.532427   1.488757   2.876684
     7  H    2.208437   2.611478   2.167840   1.102113   3.222305
     8  H    2.567078   2.765792   2.122334   1.106349   3.013917
     9  C    4.718224   4.719613   3.617770   2.610546   3.916693
    10  C    4.820491   4.581192   3.261799   2.549240   3.195251
    11  C    4.902804   5.055771   4.225872   3.273665   4.693492
    12  C    5.987213   5.881650   4.644654   3.744548   4.662514
    13  N    6.021633   5.791840   4.454957   3.707501   4.276636
    14  C    5.083623   4.761135   3.553928   3.148776   3.356035
    15  H    4.260858   4.545809   3.987083   3.117056   4.656371
    16  C    6.265727   6.404771   5.563803   4.654629   5.911991
    17  C    7.154220   7.081933   5.896766   5.009326   5.894654
    18  C    7.302646   6.990727   5.629257   5.028030   5.251104
    19  H    5.158908   4.644358   3.470975   3.547506   2.940560
    20  H    4.525712   4.330077   3.320887   2.822349   3.422609
    21  H    6.126372   5.841338   4.648669   4.135716   4.424762
    22  O    6.761882   7.000508   6.371024   5.526343   6.822640
    23  C    7.258674   7.292612   6.269906   5.363620   6.420657
    24  H    8.116372   7.993930   6.751172   5.905404   6.632134
    25  C    7.584381   7.111949   5.766632   5.511352   5.130643
    26  O    8.314176   8.069353   6.719197   5.984031   6.407252
    27  C    8.177539   8.392343   7.728332   6.895174   8.097090
    28  H    8.293957   8.336014   7.334143   6.446005   7.455929
    29  C    8.806860   8.332091   7.012839   6.748647   6.358803
    30  C    7.009715   6.395083   5.103203   5.217811   4.248338
    31  H    8.572900   8.669168   7.933607   7.242872   8.145268
    32  H    8.530956   8.808653   8.289958   7.502311   8.733001
    33  H    8.721730   8.975585   8.239385   7.252783   8.629122
    34  H    9.405019   9.017107   7.687727   7.232146   7.152277
    35  C    9.424902   8.847785   7.592506   7.565189   6.791517
    36  H    6.162194   5.533556   4.244126   4.453250   3.373073
    37  C    7.776336   7.056688   5.876840   6.243160   4.871669
    38  H   10.416994   9.851162   8.612618   8.555430   7.826740
    39  C    8.949461   8.264001   7.082438   7.333009   6.134259
    40  H    7.640781   6.832443   5.771928   6.396549   4.653967
    41  Cl  10.097962   9.335373   8.278045   8.728303   7.246567
                    6          7          8          9         10
     6  C    0.000000
     7  H    2.135586   0.000000
     8  H    2.152858   1.762992   0.000000
     9  C    1.441179   2.733514   3.395609   0.000000
    10  C    1.375207   3.419871   2.837393   2.282787   0.000000
    11  C    2.602590   2.904235   4.138347   1.396756   3.660113
    12  C    2.299752   4.075605   4.377526   1.418236   2.289673
    13  N    2.263587   4.376481   4.122517   2.279301   1.410543
    14  C    2.566702   4.189428   2.990791   3.735006   1.490738
    15  H    2.966223   2.424988   3.986237   2.184459   4.235354
    16  C    3.810654   4.290034   5.492018   2.406151   4.627795
    17  C    3.628610   5.169613   5.684240   2.451451   3.656882
    18  C    3.635700   5.765203   5.347869   3.630886   2.539393
    19  H    3.138040   4.641693   3.503974   4.319050   2.165617
    20  H    2.724566   3.828634   2.304601   4.057050   2.121703
    21  H    3.398531   5.122389   3.884577   4.366061   2.156945
    22  O    4.939920   4.936286   6.372236   3.625635   5.899775
    23  C    4.203485   5.239413   6.137021   2.790534   4.623878
    24  H    4.460161   6.163563   6.509281   3.440931   4.200889
    25  C    4.318425   6.412140   5.768155   4.648102   3.055804
    26  O    4.534477   6.605177   6.301789   4.232812   3.586410
    27  C    6.184694   6.346767   7.731903   4.794315   7.005028
    28  H    5.288829   6.281518   7.215144   3.878850   5.648801
    29  C    5.596465   7.679172   6.870544   5.950495   4.269865
    30  C    4.234695   6.163091   5.584933   4.722172   3.138980
    31  H    6.425039   6.809543   8.150526   5.018633   7.127950
    32  H    6.958531   6.833292   8.337641   5.627738   7.887409
    33  H    6.436720   6.746557   7.990452   5.030963   7.146943
    34  H    6.010026   8.105056   7.294729   6.246143   4.700361
    35  C    6.558766   8.562778   7.657465   7.049337   5.236452
    36  H    3.527922   5.340083   4.981009   3.988014   2.700510
    37  C    5.446482   7.238048   6.538352   6.047120   4.369451
    38  H    7.555707   9.559210   8.579342   8.043481   6.209501
    39  C    6.482461   8.356617   7.499409   7.077323   5.263981
    40  H    5.784493   7.372495   6.748309   6.437408   4.881317
    41  Cl   8.027279   9.775689   8.852190   8.701455   6.855868
                   11         12         13         14         15
    11  C    0.000000
    12  C    2.436956   0.000000
    13  N    3.600727   1.410620   0.000000
    14  C    5.079707   3.718512   2.560266   0.000000
    15  H    1.091110   3.442618   4.462936   5.532078   0.000000
    16  C    1.399110   2.777666   4.164864   6.106526   2.150141
    17  C    2.843234   1.390334   2.548758   5.039046   3.933867
    18  C    4.872897   2.479927   1.410958   3.129760   5.802592
    19  H    5.630095   4.317595   3.145888   1.099094   6.036173
    20  H    5.284365   4.335973   3.379278   1.099566   5.556771
    21  H    5.743292   4.045340   2.738562   1.097603   6.309442
    22  O    2.342950   4.147264   5.527140   7.359688   2.532498
    23  C    2.440478   2.390761   3.757523   6.087230   3.419828
    24  H    3.930838   2.163049   2.881859   5.432862   5.021461
    25  C    5.949001   3.712989   2.475976   3.067975   6.782618
    26  O    5.302324   2.884440   2.294439   4.239057   6.321463
    27  C    3.646077   5.006857   6.416348   8.487464   3.952073
    28  H    3.426196   3.373792   4.671523   7.091187   4.314637
    29  C    7.255699   4.932389   3.698958   3.980956   8.114305
    30  C    5.972411   4.084405   2.965795   3.082423   6.677273
    31  H    4.013858   5.048819   6.421572   8.617748   4.446360
    32  H    4.361409   5.995723   7.401964   9.357719   4.425950
    33  H    4.026577   5.059808   6.449935   8.607290   4.464127
    34  H    7.517732   5.117104   3.973511   4.487485   8.429590
    35  C    8.364071   6.133339   4.873347   4.702595   9.164812
    36  H    5.156308   3.577215   2.691371   2.979819   5.789177
    37  C    7.275390   5.472047   4.344390   3.984200   7.917976
    38  H    9.362982   7.079671   5.822178   5.594202  10.182566
    39  C    8.359962   6.344865   5.118993   4.691485   9.066144
    40  H    7.582005   6.041287   5.024832   4.504416   8.121178
    41  Cl   9.963903   8.039989   6.825119   6.138278  10.612837
                   16         17         18         19         20
    16  C    0.000000
    17  C    2.443409   0.000000
    18  C    5.202475   3.095743   0.000000
    19  H    6.669536   5.611304   3.539865   0.000000
    20  H    6.440352   5.694851   4.116262   1.769362   0.000000
    21  H    6.628712   5.233729   2.865958   1.775039   1.777518
    22  O    1.371038   3.718787   6.569650   7.905219   7.604028
    23  C    1.409301   1.398118   4.474796   6.659047   6.609070
    24  H    3.431865   1.087742   2.908231   5.977285   6.197870
    25  C    6.412706   4.427067   1.489120   3.043692   4.155132
    26  O    5.339666   2.974293   1.225131   4.733400   5.155496
    27  C    2.388939   4.212670   7.268796   9.037496   8.817862
    28  H    2.173405   2.143693   5.188438   7.655295   7.648667
    29  C    7.650362   5.502197   2.484889   3.935527   4.988876
    30  C    6.572969   4.927958   2.528107   2.608487   4.140175
    31  H    2.714580   4.124056   7.140615   9.072700   9.066150
    32  H    3.271577   5.283332   8.314219   9.896421   9.616203
    33  H    2.722804   4.132104   7.207698   9.253977   8.940735
    34  H    7.804109   5.535839   2.662769   4.664579   5.423000
    35  C    8.823170   6.748451   3.771451   4.366660   5.659877
    36  H    5.828700   4.501612   2.757775   2.511383   3.955400
    37  C    7.901057   6.283098   3.800577   3.234735   4.943481
    38  H    9.784075   7.629127   4.647613   5.298531   6.488641
    39  C    8.920479   7.068558   4.270833   4.055960   5.628851
    40  H    8.267900   6.884593   4.686561   3.590264   5.358871
    41  Cl  10.557266   8.763679   6.008315   5.361769   6.961906
                   21         22         23         24         25
    21  H    0.000000
    22  O    7.933061   0.000000
    23  C    6.413668   2.452782   0.000000
    24  H    5.432618   4.614031   2.167221   0.000000
    25  C    2.731160   7.767538   5.767678   4.229386   0.000000
    26  O    3.832658   6.664682   4.352323   2.397111   2.374511
    27  C    8.965404   1.422326   2.814698   4.870049   8.515732
    28  H    7.345208   2.730573   1.088358   2.476506   6.485558
    29  C    3.322684   9.011913   6.885271   5.102726   1.402633
    30  C    3.155217   7.867515   6.126063   4.930108   1.403135
    31  H    9.081637   2.096124   2.796640   4.653487   8.306339
    32  H    9.890994   2.018984   3.888780   5.964962   9.542145
    33  H    8.968062   2.096368   2.801899   4.651287   8.551647
    34  H    3.670605   9.161963   6.931859   5.003472   2.152332
    35  C    4.104718  10.172467   8.106015   6.368636   2.426516
    36  H    3.400861   7.068519   5.550677   4.714820   2.167650
    37  C    3.987082   9.166942   7.464572   6.224510   2.427124
    38  H    4.880413  11.138998   9.004648   7.161337   3.419707
    39  C    4.378681  10.229289   8.346118   6.837161   2.785250
    40  H    4.708941   9.464084   7.957192   6.927376   3.418735
    41  Cl   5.855461  11.839747  10.013274   8.523729   4.523082
                   26         27         28         29         30
    26  O    0.000000
    27  C    7.154160   0.000000
    28  H    4.853911   2.503702   0.000000
    29  C    2.880868   9.679833   7.505320   0.000000
    30  C    3.561633   8.707591   6.909573   2.422341   0.000000
    31  H    6.995095   1.103196   2.299975   9.452353   8.443049
    32  H    8.236042   1.096046   3.590084  10.733128   9.673543
    33  H    6.937459   1.103240   2.289480   9.622482   8.917298
    34  H    2.632965   9.745552   7.469866   1.090712   3.404678
    35  C    4.235204  10.865651   8.730174   1.390307   2.800165
    36  H    3.860541   7.976350   6.395442   3.414440   1.091415
    37  C    4.724186  10.000363   8.214808   2.798089   1.392649
    38  H    4.934094  11.787732   9.577741   2.164067   3.889689
    39  C    4.982435  10.997938   9.032037   2.404104   2.405407
    40  H    5.661507  10.337901   8.727122   3.887448   2.163095
    41  Cl   6.683552  12.613441  10.684234   4.001894   4.004024
                   31         32         33         34         35
    31  H    0.000000
    32  H    1.793926   0.000000
    33  H    1.797913   1.793686   0.000000
    34  H    9.558095  10.819170   9.564487   0.000000
    35  C   10.581804  11.905038  10.875255   2.159450   0.000000
    36  H    7.724802   8.892393   8.287686   4.307765   3.891559
    37  C    9.679083  10.950325  10.249398   3.888374   2.435341
    38  H   11.499702  12.842474  11.740312   2.506553   1.089632
    39  C   10.672008  11.991729  11.146262   3.399844   1.398686
    40  H    9.986714  11.232946  10.691551   4.977622   3.418969
    41  Cl  12.241175  13.588239  12.808036   4.871852   2.712859
                   36         37         38         39         40
    36  H    0.000000
    37  C    2.149607   0.000000
    38  H    4.981060   3.417389   0.000000
    39  C    3.393507   1.396626   2.158998   0.000000
    40  H    2.485065   1.089535   4.310196   2.159218   0.000000
    41  Cl   4.861816   2.712335   2.850657   1.737853   2.854286
                   41
    41  Cl   0.000000
 Framework group  C1[X(C19H16ClNO4)]
 Deg. of freedom   117
                         Standard orientation:                         
 ---------------------------------------------------------------------
 Center     Atomic      Atomic             Coordinates (Angstroms)
 Number     Number       Type             X           Y           Z
 ---------------------------------------------------------------------
      1          1           0       -2.391372    4.936240    0.304881
      2          8           0       -1.631542    4.848200   -0.301249
      3          6           0       -1.100401    3.593121   -0.187829
      4          6           0       -1.758621    2.713480    0.883251
      5          8           0       -0.160661    3.272451   -0.871919
      6          6           0       -1.413000    1.269820    0.770161
      7          1           0       -2.852191    2.845720    0.847621
      8          1           0       -1.434011    3.128660    1.856011
      9          6           0       -2.297240    0.219040    0.333151
     10          6           0       -0.184800    0.714401    1.042611
     11          6           0       -3.628740    0.208500   -0.088659
     12          6           0       -1.562259   -0.992730    0.386171
     13          7           0       -0.247240   -0.670459    0.782041
     14          6           0        0.992520    1.391651    1.657061
     15          1           0       -4.226590    1.118689   -0.156849
     16          6           0       -4.212219   -1.011851   -0.446159
     17          6           0       -2.135309   -2.208070    0.028971
     18          6           0        0.803611   -1.611879    0.797691
     19          1           0        1.673819    1.817612    0.907131
     20          1           0        0.641039    2.222641    2.285521
     21          1           0        1.574450    0.709932    2.290581
     22          8           0       -5.522899   -0.945841   -0.843029
     23          6           0       -3.469889   -2.208370   -0.387719
     24          1           0       -1.570989   -3.135780    0.092841
     25          6           0        2.147761   -1.139578    0.364481
     26          8           0        0.590101   -2.787189    1.069731
     27          6           0       -6.154639   -2.159461   -1.231669
     28          1           0       -3.930779   -3.156501   -0.658189
     29          6           0        3.281341   -1.774608    0.892791
     30          6           0        2.304800   -0.179988   -0.647109
     31          1           0       -5.646449   -2.623121   -2.094109
     32          1           0       -7.177149   -1.886812   -1.517069
     33          1           0       -6.189209   -2.883491   -0.399969
     34          1           0        3.146271   -2.545208    1.652781
     35          6           0        4.554961   -1.432067    0.452891
     36          1           0        1.429850    0.305412   -1.083039
     37          6           0        3.573860    0.153472   -1.113759
     38          1           0        5.441191   -1.907987    0.871691
     39          6           0        4.691020   -0.467497   -0.550809
     40          1           0        3.700370    0.889222   -1.907329
     41         17           0        6.279170   -0.041606   -1.113419
 ---------------------------------------------------------------------
 Rotational constants (GHZ):           0.3050424           0.1113704           0.0890336
 ======================================================================================================
                                       Pseudopotential Parameters
 ======================================================================================================
  Center     Atomic      Valence      Angular      Power
  Number     Number     Electrons     Momentum     of R      Exponent        Coefficient   SO-Coeffient
 ======================================================================================================
    1          1            1
                                      F and up 
                                                     0        0.0000010       -0.00000699    0.00000000
                                                     2        0.1200000        0.00123686    0.00000000
                                                     2        0.1800000       -0.00752022    0.00000000
                                                     2        0.2600000        0.02503380    0.00000000
                                                     2        0.4000000       -0.08702670    0.00000000
                                                     2        0.6000000        0.30134159    0.00000000
                                                     2        0.8000000       -0.50204959    0.00000000
                                                     2        1.2000000        0.52208372    0.00000000
                                      S - F
                                                     0        0.0000010       -0.01618346    0.00000000
                                                     2        0.1200000       -0.07880581    0.00000000
                                                     2        0.1600000        0.32040539    0.00000000
                                                     2        0.2400000       -0.47500956    0.00000000
                                                     2        0.5000000        0.54013668    0.00000000
                                                     2        1.5000000       -1.40434292    0.00000000
                                                     2        3.0000000        1.46283806    0.00000000
                                      P - F
                                                     0        0.0000010        0.00612970    0.00000000
                                                     2        0.1200000        0.02254406    0.00000000
                                                     2        0.1800000       -0.13874529    0.00000000
                                                     2        0.3000000        0.38299049    0.00000000
                                                     2        0.5000000       -0.57923512    0.00000000
                                                     2        1.0000000        0.63021625    0.00000000
                                                     2        2.0000000       -0.79201034    0.00000000
                                      D - F
                                                     0        0.0000010       -0.00296226    0.00000000
                                                     2        0.1200000       -0.00547344    0.00000000
                                                     2        0.1400000        0.01837884    0.00000000
                                                     2        0.2400000       -0.05565704    0.00000000
                                                     2        0.4000000        0.15376597    0.00000000
                                                     2        0.8000000       -0.32464795    0.00000000
    2          8            8
                                      G and up 
                                                     0        0.0000010        0.00001165    0.00000000
                                                     2        0.1200000       -0.01744018    0.00000000
                                                     2        0.1400000        0.05401326    0.00000000
                                                     2        0.1800000       -0.08231208    0.00000000
                                                     2        0.2600000        0.11570222    0.00000000
                                                     2        0.4000000       -0.20630360    0.00000000
                                                     2        0.7000000        0.38074319    0.00000000
                                                     2        1.2000000       -0.17045091    0.00000000
                                                     2        2.0000000       -1.45433187    0.00000000
                                      S - G
                                                     0        0.0000010       -0.00117944    0.00000000
                                                     2        0.1400000        0.04368312    0.00000000
                                                     2        0.3000000       -0.33477926    0.00000000
                                                     2        0.6000000        1.52630657    0.00000000
                                                     2        1.5000000       -2.50804716    0.00000000
                                                     2        3.0000000        2.89751681    0.00000000
                                      P - G
                                                     0        0.0000010        0.06576007    0.00000000
                                                     2        0.1200000       -0.10329304    0.00000000
                                                     2        0.2000000        0.24891756    0.00000000
                                                     2        0.4000000       -0.50800022    0.00000000
                                                     2        0.9000000        0.81480796    0.00000000
                                      D - G
                                                     0        0.0000010       -0.14101855    0.00000000
                                                     2        0.1200000        0.22105937    0.00000000
                                                     2        0.1800000       -0.45814988    0.00000000
                                                     2        0.3000000        0.46029282    0.00000000
                                      F - G
                                                     0        0.0000010        0.07483044    0.00000000
                                                     2        0.1200000       -0.09134252    0.00000000
                                                     2        0.1400000        0.04125459    0.00000000
                                                     2        0.3000000        0.37914837    0.00000000
                                                     2        0.5000000       -0.86881279    0.00000000
    3          6            6
                                      G and up 
                                                     0        0.0000010       -0.00011185    0.00000000
                                                     2        0.1200000       -0.02301220    0.00000000
                                                     2        0.1400000        0.13317600    0.00000000
                                                     2        0.1600000       -0.19690668    0.00000000
                                                     2        0.2200000        0.23163694    0.00000000
                                                     2        0.3000000       -0.36920489    0.00000000
                                                     2        0.4000000        0.36389709    0.00000000
                                                     2        0.7000000       -0.38862160    0.00000000
                                                     2        1.3000000        0.80803421    0.00000000
                                      S - G
                                                     0        0.0000010        0.00312304    0.00000000
[...]
 ECPInt:  NShTT=   47278 NPrTT=  251528 LenC2=   44336 LenP2D=  145186.
 LDataN:  DoStor=T MaxTD1= 6 Len=  172
 Initial guess from the checkpoint file:  "37Conf8_Indometacin_6_mol1.chk"
 B after Tr=     0.000000    0.000002    0.000001
         Rot=    1.000000    0.000000   -0.000000   -0.000000 Ang=  -0.00 deg.
 >>>>>>>>>> Convergence criterion not met.
 SCF Done:  E(RHF) =  -1542.69556069     A.U. after    2 cycles
            NFock=  1  Conv=0.16D-01     -V/T= 1.9996

 **********************************************************************

            Population analysis using the SCF Density.

 **********************************************************************

 Orbital symmetries:
       Occupied  (A) (A) (A) (A) (A) (A) (A) (A) (A) (A) (A) (A)
                 (A) (A) (A) (A) (A) (A) (A) (A) (A) (A) (A) (A)
                 (A) (A) (A) (A) (A) (A) (A) (A) (A) (A) (A) (A)
                 (A) (A) (A) (A) (A) (A) (A) (A) (A) (A) (A) (A)
                 (A) (A) (A) (A) (A) (A) (A) (A) (A) (A) (A) (A)
                 (A) (A) (A) (A) (A) (A) (A) (A) (A) (A) (A) (A)
                 (A) (A) (A) (A) (A) (A) (A) (A) (A) (A) (A) (A)
                 (A) (A) (A) (A) (A) (A) (A) (A) (A)
       Virtual   (A) (A) (A) (A) (A) (A) (A) (A) (A) (A) (A) (A)
                 (A) (A) (A) (A) (A) (A) (A) (A) (A) (A) (A) (A)
                 (A) (A) (A) (A) (A) (A) (A) (A) (A) (A) (A) (A)
                 (A) (A) (A) (A) (A) (A) (A) (A) (A) (A) (A) (A)
                 (A) (A) (A) (A) (A) (A) (A) (A) (A) (A) (A) (A)
                 (A) (A) (A) (A) (A) (A) (A) (A) (A) (A) (A) (A)
                 (A) (A) (A) (A) (A) (A) (A) (A) (A) (A) (A) (A)
                 (A) (A) (A) (A) (A) (A) (A) (A) (A) (A) (A) (A)
                 (A) (A) (A) (A) (A) (A) (A) (A) (A) (A) (A) (A)
                 (A) (A) (A) (A) (A) (A) (A) (A) (A) (A) (A) (A)
                 (A) (A) (A) (A) (A) (A) (A) (A) (A) (A) (A) (A)
                 (A) (A) (A) (A) (A) (A) (A) (A) (A) (A) (A) (A)
                 (A) (A) (A) (A) (A) (A) (A) (A) (A) (A) (A) (A)
                 (A) (A) (A) (A) (A) (A) (A) (A) (A) (A) (A) (A)
                 (A) (A) (A) (A) (A) (A) (A) (A) (A) (A) (A) (A)
                 (A) (A) (A) (A) (A) (A) (A) (A) (A) (A) (A) (A)
                 (A) (A) (A) (A) (A) (A) (A) (A) (A) (A) (A) (A)
                 (A) (A) (A) (A) (A) (A) (A) (A) (A) (A) (A) (A)
                 (A) (A) (A) (A) (A) (A) (A) (A) (A) (A) (A) (A)
                 (A) (A) (A) (A) (A) (A) (A) (A) (A) (A) (A) (A)
                 (A) (A) (A) (A) (A) (A) (A) (A) (A) (A) (A) (A)
                 (A) (A) (A) (A) (A) (A) (A) (A) (A) (A) (A) (A)
                 (A) (A) (A) (A) (A) (A) (A) (A) (A) (A) (A) (A)
                 (A) (A) (A) (A) (A) (A) (A) (A) (A) (A) (A) (A)
                 (A) (A) (A) (A) (A) (A) (A) (A) (A) (A) (A) (A)
                 (A) (A) (A) (A) (A) (A) (A) (A) (A) (A) (A) (A)
                 (A) (A) (A) (A) (A) (A) (A) (A) (A) (A) (A) (A)
                 (A) (A) (A) (A) (A) (A) (A) (A) (A) (A) (A) (A)
                 (A) (A) (A) (A) (A) (A) (A) (A) (A) (A) (A) (A)
                 (A) (A) (A) (A) (A) (A) (A) (A) (A) (A) (A) (A)
                 (A) (A) (A) (A) (A) (A) (A) (A) (A) (A) (A) (A)
                 (A) (A) (A) (A) (A) (A) (A) (A) (A) (A) (A) (A)
                 (A) (A) (A) (A) (A) (A) (A) (A) (A) (A) (A) (A)
                 (A) (A) (A) (A) (A) (A) (A) (A) (A) (A) (A) (A)
                 (A) (A) (A) (A) (A) (A) (A) (A) (A) (A) (A) (A)
                 (A) (A) (A) (A) (A) (A) (A) (A) (A) (A) (A) (A)
                 (A) (A) (A) (A) (A) (A) (A) (A) (A) (A) (A) (A)
                 (A) (A) (A) (A) (A) (A) (A) (A) (A) (A) (A) (A)
                 (A) (A) (A) (A) (A) (A) (A) (A) (A) (A) (A) (A)
                 (A) (A) (A) (A) (A) (A) (A) (A) (A) (A) (A) (A)
                 (A) (A) (A) (A) (A) (A) (A) (A) (A) (A) (A) (A)
                 (A) (A) (A) (A) (A) (A) (A) (A) (A) (A) (A) (A)
                 (A) (A) (A) (A) (A) (A) (A) (A) (A) (A) (A) (A)
                 (A) (A) (A) (A) (A) (A) (A) (A) (A) (A) (A) (A)
                 (A) (A) (A) (A) (A) (A) (A) (A) (A) (A) (A) (A)
                 (A) (A) (A) (A) (A) (A) (A) (A) (A) (A) (A) (A)
                 (A) (A) (A) (A) (A) (A) (A) (A) (A) (A) (A) (A)
                 (A) (A) (A) (A) (A) (A) (A) (A) (A) (A) (A) (A)
                 (A) (A) (A) (A) (A) (A) (A) (A) (A) (A) (A) (A)
                 (A) (A) (A) (A) (A) (A) (A) (A) (A) (A) (A) (A)
                 (A) (A) (A) (A) (A) (A) (A) (A) (A) (A) (A) (A)
                 (A) (A) (A) (A) (A) (A) (A) (A) (A) (A) (A) (A)
                 (A) (A) (A) (A)
 The electronic state is 1-A.
 Alpha  occ. eigenvalues -- -103.67870 -20.63731 -20.59805 -20.57212 -20.57144
 Alpha  occ. eigenvalues --  -15.69101 -11.41260 -11.39842 -11.33373 -11.31131
 Alpha  occ. eigenvalues --  -11.30885 -11.29833 -11.28899 -11.28176 -11.28084
 Alpha  occ. eigenvalues --  -11.27926 -11.27730 -11.27363 -11.27299 -11.25763
 Alpha  occ. eigenvalues --  -11.25699 -11.25287 -11.25126 -11.24320 -11.24270
 Alpha  occ. eigenvalues --  -10.71169  -8.36908  -8.36593  -8.36580  -1.42410
 Alpha  occ. eigenvalues --   -1.37465  -1.36470  -1.33678  -1.27665  -1.21497
 Alpha  occ. eigenvalues --   -1.15555  -1.13323  -1.10526  -1.04609  -1.04049
 Alpha  occ. eigenvalues --   -1.02770  -1.02181  -1.00734  -0.94708  -0.93664
 Alpha  occ. eigenvalues --   -0.88547  -0.86580  -0.85170  -0.83494  -0.82409
 Alpha  occ. eigenvalues --   -0.79443  -0.77370  -0.73576  -0.73241  -0.71367
 Alpha  occ. eigenvalues --   -0.69812  -0.68588  -0.68083  -0.67750  -0.66963
 Alpha  occ. eigenvalues --   -0.66260  -0.66028  -0.64514  -0.64145  -0.62653
 Alpha  occ. eigenvalues --   -0.62190  -0.61774  -0.60938  -0.60030  -0.59027
 Alpha  occ. eigenvalues --   -0.58379  -0.57718  -0.57468  -0.55886  -0.55450
 Alpha  occ. eigenvalues --   -0.55083  -0.54357  -0.53589  -0.53099  -0.52378
 Alpha  occ. eigenvalues --   -0.51431  -0.50630  -0.49469  -0.48609  -0.47912
 Alpha  occ. eigenvalues --   -0.47814  -0.46585  -0.44918  -0.39371  -0.36859
 Alpha  occ. eigenvalues --   -0.35710  -0.30149  -0.29791
 Alpha virt. eigenvalues --    0.02212   0.03194   0.03458   0.04220   0.04698
 Alpha virt. eigenvalues --    0.04739   0.05124   0.05532   0.05682   0.05976
 Alpha virt. eigenvalues --    0.06232   0.06948   0.07320   0.07698   0.08105
 Alpha virt. eigenvalues --    0.08582   0.08985   0.09172   0.09299   0.09737
 Alpha virt. eigenvalues --    0.10132   0.10638   0.11027   0.11439   0.11707
 Alpha virt. eigenvalues --    0.12024   0.12347   0.12865   0.12970   0.13316
 Alpha virt. eigenvalues --    0.13763   0.14027   0.14248   0.14337   0.14676
 Alpha virt. eigenvalues --    0.15250   0.15376   0.15514   0.15734   0.15761
 Alpha virt. eigenvalues --    0.16000   0.16243   0.16537   0.16695   0.16888
 Alpha virt. eigenvalues --    0.17092   0.17224   0.17598   0.17888   0.18165
 Alpha virt. eigenvalues --    0.18290   0.18582   0.18903   0.19446   0.19554
 Alpha virt. eigenvalues --    0.19895   0.20336   0.20437   0.20563   0.20967
 Alpha virt. eigenvalues --    0.21570   0.21673   0.21772   0.21850   0.22257
 Alpha virt. eigenvalues --    0.22626   0.22838   0.23280   0.23459   0.24005
 Alpha virt. eigenvalues --    0.24324   0.24911   0.25308   0.25385   0.25804
 Alpha virt. eigenvalues --    0.26415   0.26483   0.26869   0.27117   0.27303
 Alpha virt. eigenvalues --    0.27805   0.28392   0.28531   0.28834   0.29345
 Alpha virt. eigenvalues --    0.29607   0.30117   0.30169   0.30604   0.31064
 Alpha virt. eigenvalues --    0.31221   0.31543   0.31776   0.32057   0.32545
 Alpha virt. eigenvalues --    0.32747   0.33274   0.33384   0.33627   0.33643
 Alpha virt. eigenvalues --    0.33914   0.34398   0.34459   0.34833   0.35236
 Alpha virt. eigenvalues --    0.35494   0.35833   0.35951   0.36233   0.36445
 Alpha virt. eigenvalues --    0.36674   0.37009   0.37158   0.37387   0.37577
 Alpha virt. eigenvalues --    0.38057   0.38268   0.38357   0.38747   0.39007
 Alpha virt. eigenvalues --    0.39237   0.39339   0.39884   0.40012   0.40601
 Alpha virt. eigenvalues --    0.40720   0.41083   0.41245   0.41417   0.42002
 Alpha virt. eigenvalues --    0.42215   0.42325   0.42533   0.42937   0.43411
 Alpha virt. eigenvalues --    0.43759   0.43974   0.44170   0.44524   0.44964
 Alpha virt. eigenvalues --    0.45078   0.45831   0.46080   0.46138   0.46401
 Alpha virt. eigenvalues --    0.46602   0.47087   0.47542   0.47726   0.48111
 Alpha virt. eigenvalues --    0.48391   0.48654   0.49156   0.49526   0.49785
 Alpha virt. eigenvalues --    0.50462   0.50732   0.51093   0.51298   0.51431
 Alpha virt. eigenvalues --    0.52379   0.52825   0.53138   0.53475   0.54161
 Alpha virt. eigenvalues --    0.54176   0.54594   0.54875   0.55272   0.56015
 Alpha virt. eigenvalues --    0.56203   0.56710   0.57156   0.57547   0.57869
 Alpha virt. eigenvalues --    0.58046   0.58705   0.58999   0.59481   0.59873
 Alpha virt. eigenvalues --    0.60335   0.60386   0.60962   0.61599   0.62032
 Alpha virt. eigenvalues --    0.62090   0.62632   0.62854   0.63003   0.63246
 Alpha virt. eigenvalues --    0.63907   0.64269   0.64483   0.64924   0.65542
 Alpha virt. eigenvalues --    0.65734   0.65941   0.66643   0.66789   0.67308
 Alpha virt. eigenvalues --    0.67499   0.67629   0.67996   0.68371   0.68595
 Alpha virt. eigenvalues --    0.68647   0.68749   0.69230   0.69525   0.69809
 Alpha virt. eigenvalues --    0.69998   0.70399   0.70833   0.71252   0.71792
 Alpha virt. eigenvalues --    0.71996   0.72344   0.72588   0.72782   0.73460
 Alpha virt. eigenvalues --    0.73605   0.74245   0.74370   0.74752   0.75142
 Alpha virt. eigenvalues --    0.75758   0.75908   0.76010   0.76349   0.76660
 Alpha virt. eigenvalues --    0.77549   0.77751   0.78006   0.78538   0.79021
 Alpha virt. eigenvalues --    0.79221   0.79443   0.79982   0.80260   0.80516
 Alpha virt. eigenvalues --    0.81074   0.81906   0.82111   0.82397   0.82562
 Alpha virt. eigenvalues --    0.83112   0.83424   0.83680   0.84314   0.84556
 Alpha virt. eigenvalues --    0.84846   0.85112   0.85508   0.85790   0.86301
 Alpha virt. eigenvalues --    0.86829   0.87237   0.87809   0.87969   0.88942
 Alpha virt. eigenvalues --    0.89235   0.89371   0.90094   0.90308   0.90620
 Alpha virt. eigenvalues --    0.90852   0.91310   0.91500   0.91814   0.92520
 Alpha virt. eigenvalues --    0.93210   0.93559   0.94297   0.94553   0.94951
 Alpha virt. eigenvalues --    0.95271   0.95643   0.96724   0.96820   0.96935
 Alpha virt. eigenvalues --    0.97497   0.97862   0.98057   0.98784   0.99220
 Alpha virt. eigenvalues --    0.99506   0.99814   1.00844   1.01159   1.01513
 Alpha virt. eigenvalues --    1.02428   1.02701   1.02899   1.03910   1.04118
 Alpha virt. eigenvalues --    1.04624   1.05168   1.05422   1.05689   1.06667
 Alpha virt. eigenvalues --    1.07211   1.07467   1.07880   1.08582   1.09070
 Alpha virt. eigenvalues --    1.09640   1.10358   1.11129   1.11767   1.12226
 Alpha virt. eigenvalues --    1.12744   1.12951   1.13770   1.13941   1.14672
 Alpha virt. eigenvalues --    1.16009   1.16551   1.16693   1.16781   1.17500
 Alpha virt. eigenvalues --    1.18497   1.19116   1.19419   1.20326   1.20584
 Alpha virt. eigenvalues --    1.21169   1.21604   1.22170   1.22680   1.23645
 Alpha virt. eigenvalues --    1.24316   1.24993   1.25520   1.26022   1.26924
 Alpha virt. eigenvalues --    1.27628   1.28170   1.28717   1.29221   1.30008
 Alpha virt. eigenvalues --    1.30405   1.31116   1.32061   1.33527   1.34850
 Alpha virt. eigenvalues --    1.35450   1.36535   1.37034   1.37595   1.37797
 Alpha virt. eigenvalues --    1.38326   1.39237   1.39770   1.40391   1.41254
 Alpha virt. eigenvalues --    1.41760   1.42195   1.42956   1.43766   1.44493
 Alpha virt. eigenvalues --    1.44919   1.45246   1.45386   1.46332   1.46826
 Alpha virt. eigenvalues --    1.47542   1.47732   1.48122   1.48541   1.49263
 Alpha virt. eigenvalues --    1.50469   1.51073   1.51339   1.53222   1.53590
 Alpha virt. eigenvalues --    1.54024   1.54566   1.55144   1.55761   1.56166
 Alpha virt. eigenvalues --    1.57077   1.57910   1.58897   1.59149   1.59719
 Alpha virt. eigenvalues --    1.60843   1.61356   1.61464   1.62305   1.62783
 Alpha virt. eigenvalues --    1.63649   1.64232   1.64803   1.66017   1.66973
 Alpha virt. eigenvalues --    1.67285   1.67325   1.67930   1.68032   1.69980
 Alpha virt. eigenvalues --    1.70245   1.70750   1.71201   1.71523   1.71888
 Alpha virt. eigenvalues --    1.72437   1.73147   1.73549   1.74493   1.74538
 Alpha virt. eigenvalues --    1.75088   1.75920   1.76204   1.76950   1.77301
 Alpha virt. eigenvalues --    1.77539   1.78388   1.78968   1.79579   1.80282
 Alpha virt. eigenvalues --    1.81038   1.81664   1.82430   1.82554   1.83069
 Alpha virt. eigenvalues --    1.83221   1.84016   1.84872   1.85922   1.87187
 Alpha virt. eigenvalues --    1.87646   1.87945   1.88325   1.88902   1.89658
 Alpha virt. eigenvalues --    1.90144   1.90718   1.91032   1.91332   1.91711
 Alpha virt. eigenvalues --    1.92125   1.93160   1.93858   1.94417   1.95139
 Alpha virt. eigenvalues --    1.95249   1.95735   1.96898   1.97112   1.97767
 Alpha virt. eigenvalues --    1.98651   1.99108   2.00201   2.00748   2.00765
 Alpha virt. eigenvalues --    2.01429   2.01896   2.02183   2.03063   2.03758
 Alpha virt. eigenvalues --    2.04592   2.05229   2.06045   2.07144   2.07601
 Alpha virt. eigenvalues --    2.08514   2.09581   2.09927   2.10891   2.11869
 Alpha virt. eigenvalues --    2.13212   2.14210   2.14393   2.14551   2.15643
 Alpha virt. eigenvalues --    2.16200   2.16887   2.18095   2.18263   2.19493
 Alpha virt. eigenvalues --    2.19902   2.20183   2.21038   2.21594   2.21943
 Alpha virt. eigenvalues --    2.22865   2.22915   2.23236   2.23975   2.24671
 Alpha virt. eigenvalues --    2.26075   2.26155   2.27148   2.27608   2.27955
 Alpha virt. eigenvalues --    2.28287   2.28747   2.29872   2.30548   2.30900
 Alpha virt. eigenvalues --    2.31479   2.32176   2.32922   2.33523   2.34290
 Alpha virt. eigenvalues --    2.34455   2.34970   2.36025   2.36262   2.36939
 Alpha virt. eigenvalues --    2.38049   2.38619   2.39099   2.40043   2.40684
 Alpha virt. eigenvalues --    2.41188   2.41882   2.43033   2.43259   2.44227
 Alpha virt. eigenvalues --    2.45289   2.46327   2.47005   2.47896   2.48636
 Alpha virt. eigenvalues --    2.49470   2.50436   2.50853   2.53489   2.53959
 Alpha virt. eigenvalues --    2.55844   2.56387   2.57166   2.57269   2.58608
 Alpha virt. eigenvalues --    2.59777   2.61395   2.61743   2.63446   2.64067
 Alpha virt. eigenvalues --    2.64581   2.65854   2.67503   2.67951   2.68553
 Alpha virt. eigenvalues --    2.68774   2.70781   2.71233   2.72255   2.73827
 Alpha virt. eigenvalues --    2.75511   2.76926   2.79674   2.80574   2.81917
 Alpha virt. eigenvalues --    2.82894   2.85676   2.87038   2.87589   2.88814
 Alpha virt. eigenvalues --    2.90315   2.92546   2.92623   2.93534   2.94615
 Alpha virt. eigenvalues --    2.95142   2.95845   2.98598   2.99905   3.02669
 Alpha virt. eigenvalues --    3.05530   3.06780   3.08539   3.09498   3.09765
 Alpha virt. eigenvalues --    3.11289   3.12957   3.15056   3.16569   3.18418
 Alpha virt. eigenvalues --    3.20631   3.23080   3.24322   3.26388   3.28762
 Alpha virt. eigenvalues --    3.29487   3.31129   3.33616   3.38498   3.41707
 Alpha virt. eigenvalues --    3.43497   3.45504   3.48367   3.54886   3.56695
 Alpha virt. eigenvalues --    3.58641   3.59082   3.64722   3.65285   3.66950
 Alpha virt. eigenvalues --    3.67917   3.68184   3.68756   3.70046   3.71656
 Alpha virt. eigenvalues --    3.72310   3.74727   3.75999   3.77747   3.79035
 Alpha virt. eigenvalues --    3.80403   3.81269   3.83796   3.87491   3.91076
 Alpha virt. eigenvalues --    3.92844   3.98007   3.99645   4.04513   4.05208
 Alpha virt. eigenvalues --    4.10771   4.17073   4.25686   4.28156   4.37694
 Alpha virt. eigenvalues --    4.61800   4.70806   5.15532
          Condensed to atoms (all electrons):
 Mulliken charges:
               1
     1  H    0.196231
     2  O   -0.549717
     3  C    0.756234
     4  C   -0.210052
     5  O   -0.441970
     6  C    0.360406
     7  H   -0.145987
     8  H    0.152526
     9  C   -0.252263
    10  C   -0.808663
    11  C    0.928858
    12  C    0.143755
    13  N   -0.813153
    14  C    1.255323
    15  H   -0.646504
    16  C   -0.124017
    17  C    0.856650
    18  C   -0.687295
    19  H    0.213614
    20  H   -0.061945
    21  H    0.015826
    22  O   -0.711973
    23  C    0.971116
    24  H   -0.661635
    25  C    1.240820
    26  O   -0.497632
    27  C    0.821700
    28  H   -0.744285
    29  C    0.277861
    30  C    0.951693
    31  H   -0.053737
    32  H   -0.343500
    33  H   -0.062776
    34  H   -0.651126
    35  C    0.907126
    36  H   -0.702000
    37  C    0.592756
    38  H   -0.434033
    39  C   -0.243459
    40  H   -0.461248
    41  Cl  -0.333525
 Sum of Mulliken charges =   0.00000
 Mulliken charges with hydrogens summed into heavy atoms:
               1
     2  O   -0.353486
     3  C    0.756234
     4  C   -0.203512
     5  O   -0.441970
     6  C    0.360406
     9  C   -0.252263
    10  C   -0.808663
    11  C    0.282354
    12  C    0.143755
    13  N   -0.813153
    14  C    1.422818
    16  C   -0.124017
    17  C    0.195016
    18  C   -0.687295
    22  O   -0.711973
    23  C    0.226831
    25  C    1.240820
    26  O   -0.497632
    27  C    0.361688
    29  C   -0.373265
    30  C    0.249692
    35  C    0.473093
    37  C    0.131507
    39  C   -0.243459
    41  Cl  -0.333525
 Electronic spatial extent (au):  <R**2>=          11513.2444
 Charge=             -0.0000 electrons
 Dipole moment (field-independent basis, Debye):
    X=             -2.2656    Y=              1.0099    Z=              2.7763  Tot=              3.7229

 Test job not archived.
 1\1\GINC-SE073\SP\RHF\Aug-CC-pVDZ\C19H16Cl1N1O4\OHZDE\08-Apr-2025\0\\#
 t hf aug-cc-pvdz iop(5/13=1,5/36=2,99/5=2) pseudo=read geom=check gues
 s=(read,tcheck) scf=(maxcycle=1)\\title\\0,1\H,0,-2.39137,4.93624,0.30
 488\O,0,-1.63154,4.8482,-0.30125\C,0,-1.1004,3.59312,-0.18783\C,0,-1.7
 5862,2.71348,0.88325\O,0,-0.16066,3.27245,-0.87192\C,0,-1.413,1.26982,
 0.77016\H,0,-2.85219,2.84572,0.84762\H,0,-1.43401,3.12866,1.85601\C,0,
 -2.29724,0.21904,0.33315\C,0,-0.1848,0.7144,1.04261\C,0,-3.62874,0.208
 5,-0.08866\C,0,-1.56226,-0.99273,0.38617\N,0,-0.24724,-0.67046,0.78204
 \C,0,0.99252,1.39165,1.65706\H,0,-4.22659,1.11869,-0.15685\C,0,-4.2122
 2,-1.01185,-0.44616\C,0,-2.13531,-2.20807,0.02897\C,0,0.80361,-1.61188
 ,0.79769\H,0,1.67382,1.81761,0.90713\H,0,0.64104,2.22264,2.28552\H,0,1
 .57445,0.70993,2.29058\O,0,-5.5229,-0.94584,-0.84303\C,0,-3.46989,-2.2
 0837,-0.38772\H,0,-1.57099,-3.13578,0.09284\C,0,2.14776,-1.13958,0.364
 48\O,0,0.5901,-2.78719,1.06973\C,0,-6.15464,-2.15946,-1.23167\H,0,-3.9
 3078,-3.1565,-0.65819\C,0,3.28134,-1.77461,0.89279\C,0,2.3048,-0.17999
 ,-0.64711\H,0,-5.64645,-2.62312,-2.09411\H,0,-7.17715,-1.88681,-1.5170
 7\H,0,-6.18921,-2.88349,-0.39997\H,0,3.14627,-2.54521,1.65278\C,0,4.55
 496,-1.43207,0.45289\H,0,1.42985,0.30541,-1.08304\C,0,3.57386,0.15347,
 -1.11376\H,0,5.44119,-1.90799,0.87169\C,0,4.69102,-0.4675,-0.55081\H,0
 ,3.70037,0.88922,-1.90733\Cl,0,6.27917,-0.04161,-1.11342\\Version=ES64
 L-G16RevC.01\State=1-A\HF=-1542.6955607\RMSD=1.559e-02\Dipole=-0.89133
 78,0.3973114,1.0922716\Quadrupole=5.8808358,-3.110341,-2.7704947,-3.66
 4614,3.9961949,12.5494242\PG=C01 [X(C19H16Cl1N1O4)]\\@


 SUCCESS IS NEVER CERTAIN,
 FAILURE IS NEVER FINAL.
 Job cpu time:       0 days  0 hours 29 minutes 23.0 seconds.
 Elapsed time:       0 days  0 hours  1 minutes 59.0 seconds.
 File lengths (MBytes):  RWF=     71 Int=      0 D2E=      0 Chk=     67 Scr=      1
 Normal termination of Gaussian 16 at Tue Apr  8 18:04:43 2025.
