 Entering Gaussian System, Link 0=g16
 Input=37Conf8_Propranolol_8_mol2.gjf
 Output=37Conf8_Propranolol_8_mol2.log
 Initial command:
 /arc/software/Gaussian/g16.c01/l1.exe "/tmp/slurm/4832438/Gau-717368.inp" -scrdir="/tmp/slurm/4832438/"
 Entering Link 1 = /arc/software/Gaussian/g16.c01/l1.exe PID=    717369.
  
 Copyright (c) 1988-2019, Gaussian, Inc.  All Rights Reserved.
  
 This is part of the Gaussian(R) 16 program.  It is based on
 the Gaussian(R) 09 system (copyright 2009, Gaussian, Inc.),
 the Gaussian(R) 03 system (copyright 2003, Gaussian, Inc.),
 the Gaussian(R) 98 system (copyright 1998, Gaussian, Inc.),
 the Gaussian(R) 94 system (copyright 1995, Gaussian, Inc.),
 the Gaussian 92(TM) system (copyright 1992, Gaussian, Inc.),
 the Gaussian 90(TM) system (copyright 1990, Gaussian, Inc.),
 the Gaussian 88(TM) system (copyright 1988, Gaussian, Inc.),
 the Gaussian 86(TM) system (copyright 1986, Carnegie Mellon
 University), and the Gaussian 82(TM) system (copyright 1983,
 Carnegie Mellon University). Gaussian is a federally registered
 trademark of Gaussian, Inc.
  
 This software contains proprietary and confidential information,
 including trade secrets, belonging to Gaussian, Inc.
  
 This software is provided under written license and may be
 used, copied, transmitted, or stored only in accord with that
 written license.
  
 The following legend is applicable only to US Government
 contracts under FAR:
  
                    RESTRICTED RIGHTS LEGEND
  
 Use, reproduction and disclosure by the US Government is
 subject to restrictions as set forth in subparagraphs (a)
 and (c) of the Commercial Computer Software - Restricted
 Rights clause in FAR 52.227-19.
  
 Gaussian, Inc.
 340 Quinnipiac St., Bldg. 40, Wallingford CT 06492
  
  
 ---------------------------------------------------------------
 Warning -- This program may not be used in any manner that
 competes with the business of Gaussian, Inc. or will provide
 assistance to any competitor of Gaussian, Inc.  The licensee
 of this program is prohibited from giving any competitor of
 Gaussian, Inc. access to this program.  By using this program,
 the user acknowledges that Gaussian, Inc. is engaged in the
 business of creating and licensing software in the field of
 computational chemistry and represents and warrants to the
 licensee that it is not a competitor of Gaussian, Inc. and that
 it will not use this program in any manner prohibited above.
 ---------------------------------------------------------------
  

 Cite this work as:
 Gaussian 16, Revision C.01,
 M. J. Frisch, G. W. Trucks, H. B. Schlegel, G. E. Scuseria, 
 M. A. Robb, J. R. Cheeseman, G. Scalmani, V. Barone, 
 G. A. Petersson, H. Nakatsuji, X. Li, M. Caricato, A. V. Marenich, 
 J. Bloino, B. G. Janesko, R. Gomperts, B. Mennucci, H. P. Hratchian, 
 J. V. Ortiz, A. F. Izmaylov, J. L. Sonnenberg, D. Williams-Young, 
 F. Ding, F. Lipparini, F. Egidi, J. Goings, B. Peng, A. Petrone, 
 T. Henderson, D. Ranasinghe, V. G. Zakrzewski, J. Gao, N. Rega, 
 G. Zheng, W. Liang, M. Hada, M. Ehara, K. Toyota, R. Fukuda, 
 J. Hasegawa, M. Ishida, T. Nakajima, Y. Honda, O. Kitao, H. Nakai, 
 T. Vreven, K. Throssell, J. A. Montgomery, Jr., J. E. Peralta, 
 F. Ogliaro, M. J. Bearpark, J. J. Heyd, E. N. Brothers, K. N. Kudin, 
 V. N. Staroverov, T. A. Keith, R. Kobayashi, J. Normand, 
 K. Raghavachari, A. P. Rendell, J. C. Burant, S. S. Iyengar, 
 J. Tomasi, M. Cossi, J. M. Millam, M. Klene, C. Adamo, R. Cammi, 
 J. W. Ochterski, R. L. Martin, K. Morokuma, O. Farkas, 
 J. B. Foresman, and D. J. Fox, Gaussian, Inc., Wallingford CT, 2019.
 
 ******************************************
 Gaussian 16:  ES64L-G16RevC.01  3-Jul-2019
                 8-Apr-2025 
 ******************************************
 %nprocs=16
 Will use up to   16 processors via shared memory.
 %mem=30GB
 %chk=37Conf8_Propranolol_8_mol2.chk
 ----------------------------------------------------------------------
 #t hf aug-cc-pvdz symm=none int=(grid=ultrafine) guess=(read,tcheck) s
 table=(opt,rrhf)
 ----------------------------------------------------------------------
 -----
 title
 -----
 Symbolic Z-matrix:
 Charge =  0 Multiplicity = 1
 H                    -4.07516  -1.16573  -0.23352 
 O                    -3.81055  -1.64255  -1.05447 
 C                    -2.62327  -0.95958  -1.44034 
 C                    -2.79164   0.54767  -1.19111 
 C                    -1.45521  -1.57341  -0.66588 
 H                    -2.47649  -1.12917  -2.51927 
 N                    -3.24098   0.77586   0.18711 
 H                    -3.56697   0.90678  -1.88363 
 H                    -1.85613   1.0794   -1.4334 
 C                    -2.21279   1.21886   1.14988 
 H                    -4.01226   1.44454   0.20225 
 C                    -1.69669   2.63662   0.87862 
 C                    -2.77527   1.09257   2.56282 
 H                    -1.36411   0.52419   1.04898 
 H                    -1.29641   2.7348   -0.14036 
 H                    -2.50793   3.37205   1.00385 
 H                    -0.88866   2.90098   1.57619 
 H                    -3.64617   1.75537   2.69361 
 H                    -3.09964   0.06228   2.76282 
 H                    -2.0241    1.37833   3.31241 
 O                    -0.26723  -0.8324   -0.95992 
 H                    -1.3354   -2.63267  -0.94842 
 H                    -1.67559  -1.52927   0.41526 
 C                     0.83475  -1.05112  -0.18673 
 C                     0.94342  -2.06939   0.74564 
 C                     1.91219  -0.12955  -0.38918 
 H                     0.1275   -2.77475   0.89465 
 C                     2.12953  -2.20775   1.50456 
 C                     1.83001   0.93139  -1.32479 
 C                     3.10419  -0.28765   0.39115 
 H                     2.19484  -3.01952   2.23113 
 C                     3.18769  -1.34371   1.33779 
 H                     0.92097   1.04006  -1.91588 
 C                     2.88447   1.8072   -1.48959 
 C                     4.16754   0.63116   0.19264 
 H                     4.0997   -1.4559    1.92683 
 H                     2.80911   2.62032  -2.21351 
 C                     4.06329   1.65568  -0.72505 
 H                     5.07669   0.51021   0.786 
 H                     4.89199   2.35232  -0.8631 
 
                    Distance matrix (angstroms):
                    1          2          3          4          5
     1  H    0.000000
     2  O    0.985563   0.000000
     3  C    1.899183   1.423017   0.000000
     4  C    2.345238   2.419486   1.536967   0.000000
     5  C    2.686499   2.388181   1.530013   2.561424   0.000000
     6  H    2.789576   2.046684   1.101996   2.162203   2.162271
     7  N    2.154660   2.777524   2.458030   1.467470   3.071748
     8  H    2.697484   2.691825   2.137844   1.099855   3.477612
     9  H    3.377042   3.372293   2.178530   1.103005   2.790560
    10  C    3.326934   3.949641   3.409301   2.503158   3.415799
    11  H    2.647142   3.339185   3.226017   2.058092   4.049713
    12  C    4.620805   5.149421   4.378217   3.137899   4.490896
    13  C    3.822192   4.651610   4.501079   3.793307   4.390275
    14  H    3.442445   3.886429   3.159711   2.656388   2.710898
    15  H    4.790017   5.130077   4.135088   2.850145   4.343048
    16  H    4.957695   5.574918   4.974976   3.588240   5.324828
    17  H    5.474209   6.008451   5.197331   4.100896   5.036668
    18  H    4.157517   5.061718   5.050428   4.156899   5.212222
    19  H    3.381967   4.240701   4.351745   3.995501   4.139519
    20  H    4.822106   5.602389   5.330428   4.643362   4.986301
    21  O    3.890899   3.635987   2.407883   2.886293   1.430682
    22  H    3.188931   2.667949   2.167908   3.506294   1.102821
    23  H    2.512173   2.594416   2.160068   2.853011   1.104255
    24  C    4.911470   4.762518   3.679378   4.088473   2.397142
    25  C    5.192447   5.101257   4.327986   4.954864   2.826979
    26  C    6.078343   5.956638   4.729089   4.819516   3.674327
    27  H    4.639403   4.537531   4.039029   4.889811   2.526548
    28  C    6.527243   6.492506   5.728828   6.251151   4.238344
    29  C    6.360803   6.205978   4.839506   4.639478   4.183402
    30  C    7.259773   7.192997   6.050590   6.161341   4.853722
    31  H    6.987413   6.982544   6.398221   7.021507   4.879218
    32  C    7.433013   7.401863   6.452350   6.762029   5.062013
    33  H    5.714644   5.506878   4.097113   3.814605   3.746860
    34  C    7.671537   7.544097   6.163822   5.821832   5.562360
    35  C    8.447043   8.388979   7.163252   7.095909   6.100205
    36  H    8.460476   8.455474   7.535416   7.824731   6.131311
    37  H    8.102327   7.958350   6.551658   6.058843   6.177941
    38  C    8.627649   8.543079   7.215352   6.959523   6.394088
    39  H    9.359730   9.327633   8.149003   8.113013   7.008220
    40  H    9.653125   9.577568   8.232923   7.899527   7.465735
                    6          7          8          9         10
     6  H    0.000000
     7  N    3.396774   0.000000
     8  H    2.395470   2.100327   0.000000
     9  H    2.538059   2.153137   1.777492   0.000000
    10  C    4.364109   1.476601   3.336672   2.611511   0.000000
    11  H    4.048363   1.020899   2.199628   2.730856   2.046222
    12  C    5.131756   2.515044   3.757701   2.792095   1.532966
    13  C    5.554551   2.441555   4.520202   4.100581   1.526018
    14  H    4.086979   2.080577   3.687705   2.590859   1.101365
    15  H    4.688504   2.779575   3.396482   2.173842   2.191471
    16  H    5.716148   2.818622   3.941657   3.408999   2.178224
    17  H    5.961217   3.461082   4.808381   3.648532   2.182794
    18  H    6.071478   2.721426   4.655911   4.548999   2.173827
    19  H    5.450536   2.676463   4.745637   4.493230   2.173880
    20  H    6.364016   3.407531   5.440739   4.758181   2.176596
    21  O    2.720381   3.570065   3.842691   2.530566   3.527623
    22  H    2.455640   4.066785   4.287450   3.779660   4.472914
    23  H    3.068059   2.795733   3.846629   3.202389   2.894904
    24  C    4.051067   4.482096   5.107639   3.651594   4.028255
    25  C    4.820730   5.090836   6.009515   4.743477   4.575769
    26  C    4.979662   5.263748   5.773089   4.092944   4.604604
    27  H    4.598211   4.945109   5.909451   4.920272   4.635841
    28  C    6.210472   6.283310   7.323267   5.943269   5.542851
    29  C    4.921243   5.293862   5.425892   3.690709   4.748775
    30  C    6.350015   6.436914   7.148822   5.459174   5.578129
    31  H    6.925391   6.937656   8.096020   6.829369   6.209683
    32  C    6.856083   6.866181   7.814581   6.244283   5.980574
    33  H    4.075828   4.670567   4.490034   2.818975   4.387631
    34  C    6.198581   6.433982   6.525879   4.796471   5.770182
    35  C    7.388934   7.409935   8.013084   6.255360   6.478450
    36  H    7.944862   7.867208   8.881424   7.293203   6.899676
    37  H    6.487660   6.765249   6.610555   4.974683   6.204511
    38  C    7.330985   7.413399   7.753968   5.989440   6.564705
    39  H    8.406123   8.343433   9.055222   7.301624   7.332879
    40  H    8.316139   8.350651   8.642053   6.890769   7.470925
                   11         12         13         14         15
    11  H    0.000000
    12  C    2.690798   0.000000
    13  C    2.688181   2.526649   0.000000
    14  H    2.928599   2.145226   2.146192   0.000000
    15  H    3.026218   1.099174   3.491580   2.511157   0.000000
    16  H    2.573104   1.102112   2.774507   3.069311   1.784120
    17  H    3.710230   1.099728   2.793400   2.480551   1.772123
    18  H    2.537225   2.805577   1.102214   3.070572   3.809467
    19  H    3.049596   3.485069   1.098505   2.482473   4.338485
    20  H    3.691918   2.759316   1.099000   2.507640   3.780366
    21  O    4.534352   4.178239   4.733442   2.660669   3.802079
    22  H    5.011313   5.588741   5.317842   3.735799   5.428095
    23  H    3.788000   4.191633   3.563054   2.171478   4.316803
    24  C    5.465632   4.598107   5.018733   2.973813   4.344788
    25  C    6.099323   5.397629   5.208530   3.484733   5.374205
    26  C    6.158462   4.720490   5.672756   3.637282   4.308309
    27  H    5.951423   5.710591   5.115176   3.623772   5.783935
    28  C    7.263389   6.204811   6.005755   4.458315   6.234711
    29  C    6.060305   4.494490   6.028938   4.000375   3.798640
    30  C    7.326665   5.642467   6.417882   4.588848   5.364978
    31  H    7.910264   6.997514   6.459202   5.159601   7.136175
    32  C    7.804042   6.317518   6.556909   4.928625   6.239096
    33  H    5.383943   4.148539   5.807211   3.778638   3.307777
    34  C    7.110466   5.223350   6.997527   5.112816   4.490058
    35  C    8.220146   6.235514   7.350732   5.598563   5.864379
    36  H    8.785819   7.172559   7.359646   5.877465   7.138154
    37  H    7.331401   5.464775   7.505508   5.696786   4.600690
    38  C    8.131357   6.058991   7.608751   5.821007   5.498431
    39  H    9.155476   7.099921   8.071525   6.446182   6.813468
    40  H    9.013584   6.820932   8.491806   6.792415   6.242190
                   16         17         18         19         20
    16  H    0.000000
    17  H    1.780875   0.000000
    18  H    2.600872   3.188246   0.000000
    19  H    3.794558   3.788765   1.780460   0.000000
    20  H    3.088440   2.573353   1.776565   1.786288   0.000000
    21  O    5.153109   4.555892   5.609106   4.762540   5.121203
    22  H    6.422059   6.098731   6.152962   4.914123   5.892122
    23  H    5.006213   4.646949   4.456784   3.173640   4.119354
    24  C    5.670575   4.658017   6.020913   5.041719   5.130227
    25  C    6.448857   5.361987   6.283925   4.995935   5.223146
    26  C    5.808545   4.570728   6.629622   5.923710   5.609799
    27  H    6.688839   5.806117   6.164319   4.685428   5.265265
    28  C    7.272614   5.934115   7.104848   5.837848   5.777624
    29  C    5.495190   4.436906   6.842151   6.462612   6.046283
    30  C    6.727904   5.245430   7.419071   6.650923   6.132586
    31  H    8.029597   6.707402   7.558496   6.149122   6.189483
    32  C    7.402026   5.889894   7.625234   6.598336   6.202530
    33  H    5.071524   4.351131   6.528234   6.245926   6.010231
    34  C    6.143613   4.983159   7.755714   7.545681   6.880203
    35  C    7.261710   5.712395   8.280867   7.729253   6.973352
    36  H    8.235397   6.632427   8.420137   7.405015   6.888659
    37  H    6.259985   5.302273   8.154668   8.137614   7.445687
    38  C    7.008277   5.600740   8.434035   8.124760   7.309878
    39  H    8.109504   6.474997   9.015414   8.423825   7.586672
    40  H    7.699621   6.298181   9.268587   9.069605   8.137312
                   21         22         23         24         25
    21  O    0.000000
    22  H    2.093345   0.000000
    23  H    2.088115   1.786853   0.000000
    24  C    1.363826   2.791240   2.625419   0.000000
    25  C    2.429970   2.894848   2.694456   1.384918   0.000000
    26  C    2.360003   4.138260   3.934273   1.432185   2.447307
    27  H    2.714400   2.357365   2.243250   2.154179   1.088789
    28  C    3.702662   4.266545   4.015700   2.423780   1.414906
    29  C    2.764507   4.781631   4.622970   2.493205   3.751987
    30  C    3.672685   5.196492   4.938471   2.463167   2.822975
    31  H    4.585639   4.766737   4.527522   3.401542   2.162286
    32  C    4.180596   5.229390   4.953482   2.818882   2.431872
    33  H    2.414909   4.417706   4.333335   2.714853   4.093027
    34  C    4.145027   6.149196   5.962771   3.750839   4.877692
    35  C    4.810155   6.498996   6.233714   3.752529   4.241902
    36  H    5.271827   6.260364   5.970277   3.910356   3.425446
    37  H    4.791308   6.809649   6.651471   4.635235   5.850705
    38  C    4.999911   6.898238   6.661753   4.247355   5.076678
    39  H    5.779993   7.348524   7.063300   4.623636   4.872359
    40  H    6.063775   7.977330   7.735247   5.338734   6.142538
                   26         27         28         29         30
    26  C    0.000000
    27  H    3.439538   0.000000
    28  C    2.820001   2.168318   0.000000
    29  C    1.416938   4.643267   4.236642   0.000000
    30  C    1.433448   3.911504   2.424134   2.460497   0.000000
    31  H    3.911246   2.473861   1.091394   5.327979   3.416951
    32  C    2.466477   3.407200   1.376256   3.756156   1.420691
    33  H    2.163635   4.804316   4.869117   1.089748   3.442623
    34  C    2.430480   5.854891   5.065046   1.380611   2.823802
    35  C    2.450265   5.330569   3.732831   2.802995   1.419271
    36  H    3.450841   4.310816   2.150619   4.628572   2.171212
    37  H    3.419712   6.779268   6.131569   2.144981   3.915050
    38  C    2.815508   6.143499   4.861757   2.423185   2.437685
    39  H    3.435753   5.941149   4.073007   3.895351   2.164080
    40  H    3.906851   7.216432   5.833630   3.407040   3.426195
                   31         32         33         34         35
    31  H    0.000000
    32  C    2.142929   0.000000
    33  H    5.941433   4.626743   0.000000
    34  C    6.133235   4.244320   2.150711   0.000000
    35  C    4.623251   2.484268   3.892720   2.420586   0.000000
    36  H    2.483143   1.091475   5.576788   4.878169   2.714376
    37  H    7.206937   5.335596   2.480096   1.091285   3.404651
    38  C    5.838459   3.744105   3.416320   1.413187   1.379371
    39  H    4.780424   2.703667   4.985068   3.415600   1.092364
    40  H    6.760587   4.627007   4.312699   2.172506   2.145182
                   36         37         38         39         40
    36  H    0.000000
    37  H    5.951773   0.000000
    38  C    4.088487   2.172328   0.000000
    39  H    2.474185   4.311791   2.149966   0.000000
    40  H    4.786854   2.496762   1.091379   2.479317   0.000000
 Symmetry turned off by external request.
 Rotational constants (GHZ):           0.5624349           0.2288178           0.2119320
   626 basis functions,  1048 primitive gaussians,   664 cartesian basis functions
    70 alpha electrons       70 beta electrons
       nuclear repulsion energy      1448.3005414520 Hartrees.
 NAtoms=   40 NActive=   40 NUniq=   40 SFac= 1.00D+00 NAtFMM=   60 NAOKFM=F Big=F
 ExpMin= 2.97D-02 ExpMax= 1.17D+04 ExpMxC= 4.01D+02 IAcc=3 IRadAn=         5 AccDes= 0.00D+00
 Harris functional with IExCor=  205 and IRadAn=       5 diagonalized for initial guess.
 HarFok:  IExCor=  205 AccDes= 0.00D+00 IRadAn=         5 IDoV= 1 UseB2=F ITyADJ=14
 ICtDFT=  3500011 ScaDFX=  1.000000  1.000000  1.000000  1.000000
 FoFCou: FMM=F IPFlag=           0 FMFlag=      100000 FMFlg1=           0
         NFxFlg=           0 DoJE=T BraDBF=F KetDBF=T FulRan=T
         wScrn=  0.000000 ICntrl=       500 IOpCl=  0 I1Cent=   200000004 NGrid=           0
         NMat0=    1 NMatS0=      1 NMatT0=    0 NMatD0=    1 NMtDS0=    0 NMtDT0=    0
 Symmetry not used in FoFCou.
 SCF Done:  E(RHF) =  -822.382380918     A.U. after   17 cycles
            NFock= 17  Conv=0.47D-08     -V/T= 2.0014

 **********************************************************************

            Population analysis using the SCF Density.

 **********************************************************************

 Alpha  occ. eigenvalues --  -20.60029 -20.55983 -15.56229 -11.31497 -11.29222
 Alpha  occ. eigenvalues --  -11.28613 -11.26635 -11.26149 -11.25444 -11.24975
 Alpha  occ. eigenvalues --  -11.24912 -11.24716 -11.24539 -11.24424 -11.24320
 Alpha  occ. eigenvalues --  -11.23865 -11.23672 -11.22556 -11.22493  -1.41966
 Alpha  occ. eigenvalues --   -1.35783  -1.21594  -1.17623  -1.11113  -1.06166
 Alpha  occ. eigenvalues --   -1.04495  -1.01625  -1.00669  -0.97317  -0.93751
 Alpha  occ. eigenvalues --   -0.92076  -0.85448  -0.84705  -0.81520  -0.79835
 Alpha  occ. eigenvalues --   -0.78871  -0.72330  -0.71397  -0.69413  -0.68851
 Alpha  occ. eigenvalues --   -0.65894  -0.65378  -0.64851  -0.64105  -0.62975
 Alpha  occ. eigenvalues --   -0.60517  -0.60260  -0.59937  -0.58823  -0.57638
 Alpha  occ. eigenvalues --   -0.56951  -0.56565  -0.54364  -0.53856  -0.53375
 Alpha  occ. eigenvalues --   -0.52800  -0.52235  -0.50153  -0.49921  -0.49009
 Alpha  occ. eigenvalues --   -0.48780  -0.48147  -0.47669  -0.46323  -0.44444
 Alpha  occ. eigenvalues --   -0.43968  -0.37943  -0.36955  -0.32381  -0.28034
 Alpha virt. eigenvalues --    0.03016   0.03440   0.03613   0.04270   0.04620
 Alpha virt. eigenvalues --    0.04885   0.05319   0.05756   0.06154   0.06478
 Alpha virt. eigenvalues --    0.06899   0.07657   0.07682   0.08003   0.08340
 Alpha virt. eigenvalues --    0.08751   0.08898   0.09170   0.09561   0.09850
 Alpha virt. eigenvalues --    0.10584   0.10900   0.11446   0.11576   0.12571
 Alpha virt. eigenvalues --    0.13094   0.13465   0.13708   0.13885   0.14358
 Alpha virt. eigenvalues --    0.14763   0.14909   0.15005   0.15433   0.15478
 Alpha virt. eigenvalues --    0.15968   0.16303   0.16378   0.16623   0.16748
 Alpha virt. eigenvalues --    0.16815   0.17236   0.17640   0.17774   0.18149
 Alpha virt. eigenvalues --    0.18480   0.18727   0.19000   0.19215   0.19617
 Alpha virt. eigenvalues --    0.20070   0.20329   0.20628   0.21049   0.21582
 Alpha virt. eigenvalues --    0.21780   0.22075   0.22252   0.22536   0.22661
 Alpha virt. eigenvalues --    0.22856   0.23625   0.24020   0.24228   0.25074
 Alpha virt. eigenvalues --    0.25121   0.25339   0.25672   0.26070   0.26819
 Alpha virt. eigenvalues --    0.27480   0.27545   0.28103   0.28681   0.28760
 Alpha virt. eigenvalues --    0.29164   0.29647   0.29743   0.29986   0.30865
 Alpha virt. eigenvalues --    0.31410   0.31879   0.32111   0.32254   0.32649
 Alpha virt. eigenvalues --    0.32996   0.33219   0.33298   0.33643   0.34348
 Alpha virt. eigenvalues --    0.34763   0.34952   0.35072   0.35405   0.35883
 Alpha virt. eigenvalues --    0.36046   0.36492   0.36665   0.37177   0.37531
 Alpha virt. eigenvalues --    0.37845   0.38137   0.38600   0.38735   0.38924
 Alpha virt. eigenvalues --    0.39507   0.39670   0.39828   0.40375   0.40765
 Alpha virt. eigenvalues --    0.41085   0.41452   0.41790   0.42305   0.42650
 Alpha virt. eigenvalues --    0.42815   0.43420   0.44018   0.44048   0.44439
 Alpha virt. eigenvalues --    0.45012   0.45282   0.45656   0.45988   0.46141
 Alpha virt. eigenvalues --    0.46289   0.46579   0.47023   0.47323   0.48031
 Alpha virt. eigenvalues --    0.48508   0.48972   0.49557   0.49790   0.49970
 Alpha virt. eigenvalues --    0.50398   0.51100   0.51603   0.52014   0.52313
 Alpha virt. eigenvalues --    0.52740   0.53167   0.53341   0.54033   0.54096
 Alpha virt. eigenvalues --    0.54372   0.54759   0.55328   0.55534   0.55845
 Alpha virt. eigenvalues --    0.56392   0.56868   0.57341   0.57760   0.58093
 Alpha virt. eigenvalues --    0.58636   0.58872   0.59101   0.59457   0.60171
 Alpha virt. eigenvalues --    0.60262   0.60847   0.61122   0.61653   0.61923
 Alpha virt. eigenvalues --    0.62401   0.62713   0.62935   0.63332   0.63879
 Alpha virt. eigenvalues --    0.64334   0.64779   0.65082   0.65577   0.66312
 Alpha virt. eigenvalues --    0.66384   0.66935   0.67221   0.67489   0.67588
 Alpha virt. eigenvalues --    0.68257   0.68683   0.68781   0.69112   0.69750
 Alpha virt. eigenvalues --    0.69814   0.70106   0.70483   0.70599   0.71261
 Alpha virt. eigenvalues --    0.71575   0.71907   0.72026   0.72375   0.72952
 Alpha virt. eigenvalues --    0.73190   0.73931   0.74257   0.74375   0.74656
 Alpha virt. eigenvalues --    0.74994   0.75337   0.75562   0.75867   0.76133
 Alpha virt. eigenvalues --    0.77036   0.77184   0.77570   0.78100   0.78572
 Alpha virt. eigenvalues --    0.79428   0.79566   0.79721   0.80413   0.80668
 Alpha virt. eigenvalues --    0.80977   0.81519   0.82345   0.82663   0.82799
 Alpha virt. eigenvalues --    0.83241   0.83725   0.84252   0.85020   0.85492
 Alpha virt. eigenvalues --    0.85917   0.86604   0.86807   0.87283   0.87617
 Alpha virt. eigenvalues --    0.87834   0.88314   0.88701   0.89680   0.89804
 Alpha virt. eigenvalues --    0.90216   0.90322   0.91226   0.92008   0.92530
 Alpha virt. eigenvalues --    0.92782   0.93346   0.93715   0.93994   0.94101
 Alpha virt. eigenvalues --    0.94253   0.94764   0.95231   0.95604   0.96158
 Alpha virt. eigenvalues --    0.97129   0.97408   0.97762   0.98197   0.98295
 Alpha virt. eigenvalues --    0.99337   1.00201   1.00573   1.01098   1.01623
 Alpha virt. eigenvalues --    1.01790   1.02443   1.02945   1.03299   1.03962
 Alpha virt. eigenvalues --    1.05400   1.05580   1.05728   1.05971   1.06876
 Alpha virt. eigenvalues --    1.07170   1.07737   1.08217   1.08684   1.09673
 Alpha virt. eigenvalues --    1.10072   1.10879   1.11334   1.12171   1.12701
 Alpha virt. eigenvalues --    1.13713   1.14320   1.15257   1.15407   1.16169
 Alpha virt. eigenvalues --    1.16300   1.17974   1.18931   1.20210   1.20551
 Alpha virt. eigenvalues --    1.21456   1.22323   1.22995   1.23808   1.24652
 Alpha virt. eigenvalues --    1.26148   1.26847   1.27496   1.28611   1.29893
 Alpha virt. eigenvalues --    1.30793   1.31085   1.32611   1.32809   1.33266
 Alpha virt. eigenvalues --    1.34874   1.35324   1.35698   1.36271   1.36615
 Alpha virt. eigenvalues --    1.38142   1.39263   1.40303   1.41985   1.43591
 Alpha virt. eigenvalues --    1.44428   1.45161   1.46613   1.46935   1.48212
 Alpha virt. eigenvalues --    1.48549   1.50864   1.51222   1.51631   1.52749
 Alpha virt. eigenvalues --    1.53160   1.53934   1.54596   1.55568   1.56684
 Alpha virt. eigenvalues --    1.57413   1.58413   1.58886   1.60141   1.61061
 Alpha virt. eigenvalues --    1.61456   1.62356   1.62618   1.63355   1.63578
 Alpha virt. eigenvalues --    1.64415   1.65248   1.65557   1.65946   1.67705
 Alpha virt. eigenvalues --    1.68553   1.69160   1.69664   1.69970   1.71197
 Alpha virt. eigenvalues --    1.71890   1.72068   1.73197   1.74676   1.75027
 Alpha virt. eigenvalues --    1.75802   1.76102   1.76398   1.77678   1.78896
 Alpha virt. eigenvalues --    1.79505   1.80432   1.81566   1.82076   1.82349
 Alpha virt. eigenvalues --    1.83401   1.83719   1.84215   1.84693   1.85313
 Alpha virt. eigenvalues --    1.86075   1.86578   1.87377   1.87663   1.88509
 Alpha virt. eigenvalues --    1.89691   1.90209   1.90895   1.91411   1.91731
 Alpha virt. eigenvalues --    1.92249   1.93440   1.94617   1.95302   1.96316
 Alpha virt. eigenvalues --    1.96984   1.97045   1.97395   1.99027   2.00156
 Alpha virt. eigenvalues --    2.00515   2.01295   2.01840   2.02234   2.02798
 Alpha virt. eigenvalues --    2.03504   2.04834   2.05330   2.06336   2.06961
 Alpha virt. eigenvalues --    2.07493   2.07907   2.08569   2.09473   2.10543
 Alpha virt. eigenvalues --    2.10833   2.11050   2.11936   2.12788   2.13128
 Alpha virt. eigenvalues --    2.13716   2.14571   2.15102   2.15827   2.16297
 Alpha virt. eigenvalues --    2.17479   2.17797   2.18138   2.18910   2.19660
 Alpha virt. eigenvalues --    2.19797   2.20857   2.22737   2.23194   2.24010
 Alpha virt. eigenvalues --    2.25103   2.25404   2.26012   2.26865   2.27156
 Alpha virt. eigenvalues --    2.28593   2.29483   2.30338   2.30626   2.31039
 Alpha virt. eigenvalues --    2.31579   2.32656   2.33458   2.33993   2.34280
 Alpha virt. eigenvalues --    2.35007   2.35644   2.36334   2.37097   2.37284
 Alpha virt. eigenvalues --    2.37492   2.38759   2.39796   2.39920   2.40724
 Alpha virt. eigenvalues --    2.41390   2.42364   2.43569   2.43813   2.46168
 Alpha virt. eigenvalues --    2.46319   2.47213   2.48297   2.49294   2.49983
 Alpha virt. eigenvalues --    2.51135   2.52635   2.52982   2.53946   2.54335
 Alpha virt. eigenvalues --    2.55237   2.55691   2.57465   2.58364   2.59458
 Alpha virt. eigenvalues --    2.60261   2.60469   2.61537   2.63556   2.64835
 Alpha virt. eigenvalues --    2.65497   2.67751   2.69197   2.69577   2.71053
 Alpha virt. eigenvalues --    2.72549   2.72958   2.73681   2.75025   2.75529
 Alpha virt. eigenvalues --    2.76756   2.77087   2.79265   2.80131   2.81569
 Alpha virt. eigenvalues --    2.81876   2.82626   2.83740   2.85764   2.86768
 Alpha virt. eigenvalues --    2.87230   2.90963   2.91421   2.92429   2.93678
 Alpha virt. eigenvalues --    2.95101   2.95756   2.96498   2.96667   2.97812
 Alpha virt. eigenvalues --    2.99302   3.01058   3.04836   3.05629   3.06269
 Alpha virt. eigenvalues --    3.09063   3.09918   3.11472   3.12310   3.13483
 Alpha virt. eigenvalues --    3.17698   3.17832   3.19029   3.20178   3.21456
 Alpha virt. eigenvalues --    3.23061   3.25178   3.28123   3.32707   3.33540
 Alpha virt. eigenvalues --    3.35907   3.37389   3.41372   3.44201   3.50807
 Alpha virt. eigenvalues --    3.51909   3.54723   3.55387   3.60703   3.68360
 Alpha virt. eigenvalues --    3.73637   3.76155   3.80963   3.85385   3.87784
 Alpha virt. eigenvalues --    3.91598   3.92477   3.94482   3.97831   4.02547
 Alpha virt. eigenvalues --    4.06976   4.08945   4.12155   4.22892   4.31544
 Alpha virt. eigenvalues --    4.41010   4.43895   4.65151   5.00147
          Condensed to atoms (all electrons):
 Mulliken charges:
               1
     1  H    0.214376
     2  O   -0.867328
     3  C    0.660263
     4  C    0.972429
     5  C    0.793398
     6  H   -0.204516
     7  N   -0.735746
     8  H   -0.169868
     9  H   -0.170140
    10  C   -1.198815
    11  H   -0.015139
    12  C    0.848710
    13  C    1.151976
    14  H   -0.316847
    15  H   -0.143081
    16  H   -0.035104
    17  H   -0.032551
    18  H   -0.063896
    19  H   -0.051730
    20  H   -0.032799
    21  O   -1.048841
    22  H   -0.329529
    23  H   -0.091086
    24  C    0.418043
    25  C    0.238494
    26  C    1.050728
    27  H   -0.771893
    28  C    0.599272
    29  C    0.858753
    30  C    0.750470
    31  H   -0.481337
    32  C    0.507654
    33  H   -0.772580
    34  C   -0.180762
    35  C    0.565622
    36  H   -0.604006
    37  H   -0.493043
    38  C    0.227397
    39  H   -0.597268
    40  H   -0.449681
 Sum of Mulliken charges =  -0.00000
 Mulliken charges with hydrogens summed into heavy atoms:
               1
     2  O   -0.652952
     3  C    0.455747
     4  C    0.632421
     5  C    0.372783
     7  N   -0.750885
    10  C   -1.515661
    12  C    0.637974
    13  C    1.003551
    21  O   -1.048841
    24  C    0.418043
    25  C   -0.533399
    26  C    1.050728
    28  C    0.117935
    29  C    0.086172
    30  C    0.750470
    32  C   -0.096352
    34  C   -0.673805
    35  C   -0.031645
    38  C   -0.222284
 Electronic spatial extent (au):  <R**2>=           5732.3971
 Charge=             -0.0000 electrons
 Dipole moment (field-independent basis, Debye):
    X=              0.3717    Y=              2.0783    Z=              1.1457  Tot=              2.4021
 NROrb=    624 NOA=    70 NOB=    70 NVA=   554 NVB=   554

 **** Warning!!: The largest alpha MO coefficient is  0.12901123D+03

    12 initial guesses have been made.
 Iteration     1 Dimension    12 NMult     0 NNew     12
 New state      1 was old state      3
 Iteration     2 Dimension    24 NMult    12 NNew     12
 Iteration     3 Dimension    27 NMult    24 NNew      3
 Iteration     4 Dimension    30 NMult    27 NNew      3
 Iteration     5 Dimension    33 NMult    30 NNew      3
 Iteration     6 Dimension    36 NMult    33 NNew      3
 Iteration     7 Dimension    39 NMult    36 NNew      3
 Iteration     8 Dimension    42 NMult    39 NNew      3
 ***********************************************************************
 Stability analysis using <AA,BB:AA,BB> singles matrix:
 ***********************************************************************
 Ground to excited state transition densities written to RWF  633

 Eigenvectors of the stability matrix:
 
 Excited state symmetry could not be determined.
 Eigenvector   1:      Singlet-?Sym  Eigenvalue= 0.1376782  <S**2>=0.000
      69 -> 83        -0.22580
      69 -> 84         0.12422
      69 -> 86         0.12236
      69 -> 89        -0.15763
      69 -> 90        -0.18360
      70 -> 83        -0.29291
      70 -> 84         0.16418
      70 -> 89         0.10917
      70 -> 90         0.27241
      70 -> 92         0.16976
 The wavefunction is stable under the perturbations considered.
 The wavefunction is already stable.

 **********************************************************************

            Population analysis using the SCF Density.

 **********************************************************************

 Alpha  occ. eigenvalues --  -20.60029 -20.55983 -15.56229 -11.31497 -11.29222
 Alpha  occ. eigenvalues --  -11.28613 -11.26635 -11.26149 -11.25444 -11.24975
 Alpha  occ. eigenvalues --  -11.24912 -11.24716 -11.24539 -11.24424 -11.24320
 Alpha  occ. eigenvalues --  -11.23865 -11.23672 -11.22556 -11.22493  -1.41966
 Alpha  occ. eigenvalues --   -1.35783  -1.21594  -1.17623  -1.11113  -1.06166
 Alpha  occ. eigenvalues --   -1.04495  -1.01625  -1.00669  -0.97317  -0.93751
 Alpha  occ. eigenvalues --   -0.92076  -0.85448  -0.84705  -0.81520  -0.79835
 Alpha  occ. eigenvalues --   -0.78871  -0.72330  -0.71397  -0.69413  -0.68851
 Alpha  occ. eigenvalues --   -0.65894  -0.65378  -0.64851  -0.64105  -0.62975
 Alpha  occ. eigenvalues --   -0.60517  -0.60260  -0.59937  -0.58823  -0.57638
 Alpha  occ. eigenvalues --   -0.56951  -0.56565  -0.54364  -0.53856  -0.53375
 Alpha  occ. eigenvalues --   -0.52800  -0.52235  -0.50153  -0.49921  -0.49009
 Alpha  occ. eigenvalues --   -0.48780  -0.48147  -0.47669  -0.46323  -0.44444
 Alpha  occ. eigenvalues --   -0.43968  -0.37943  -0.36955  -0.32381  -0.28034
 Alpha virt. eigenvalues --    0.03016   0.03440   0.03613   0.04270   0.04620
 Alpha virt. eigenvalues --    0.04885   0.05319   0.05756   0.06154   0.06478
 Alpha virt. eigenvalues --    0.06899   0.07657   0.07682   0.08003   0.08340
 Alpha virt. eigenvalues --    0.08751   0.08898   0.09170   0.09561   0.09850
 Alpha virt. eigenvalues --    0.10584   0.10900   0.11446   0.11576   0.12571
 Alpha virt. eigenvalues --    0.13094   0.13465   0.13708   0.13885   0.14358
 Alpha virt. eigenvalues --    0.14763   0.14909   0.15005   0.15433   0.15478
 Alpha virt. eigenvalues --    0.15968   0.16303   0.16378   0.16623   0.16748
 Alpha virt. eigenvalues --    0.16815   0.17236   0.17640   0.17774   0.18149
 Alpha virt. eigenvalues --    0.18480   0.18727   0.19000   0.19215   0.19617
 Alpha virt. eigenvalues --    0.20070   0.20329   0.20628   0.21049   0.21582
 Alpha virt. eigenvalues --    0.21780   0.22075   0.22252   0.22536   0.22661
 Alpha virt. eigenvalues --    0.22856   0.23625   0.24020   0.24228   0.25074
 Alpha virt. eigenvalues --    0.25121   0.25339   0.25672   0.26070   0.26819
 Alpha virt. eigenvalues --    0.27480   0.27545   0.28103   0.28681   0.28760
 Alpha virt. eigenvalues --    0.29164   0.29647   0.29743   0.29986   0.30865
 Alpha virt. eigenvalues --    0.31410   0.31879   0.32111   0.32254   0.32649
 Alpha virt. eigenvalues --    0.32996   0.33219   0.33298   0.33643   0.34348
 Alpha virt. eigenvalues --    0.34763   0.34952   0.35072   0.35405   0.35883
 Alpha virt. eigenvalues --    0.36046   0.36492   0.36665   0.37177   0.37531
 Alpha virt. eigenvalues --    0.37845   0.38137   0.38600   0.38735   0.38924
 Alpha virt. eigenvalues --    0.39507   0.39670   0.39828   0.40375   0.40765
 Alpha virt. eigenvalues --    0.41085   0.41452   0.41790   0.42305   0.42650
 Alpha virt. eigenvalues --    0.42815   0.43420   0.44018   0.44048   0.44439
 Alpha virt. eigenvalues --    0.45012   0.45282   0.45656   0.45988   0.46141
 Alpha virt. eigenvalues --    0.46289   0.46579   0.47023   0.47323   0.48031
 Alpha virt. eigenvalues --    0.48508   0.48972   0.49557   0.49790   0.49970
 Alpha virt. eigenvalues --    0.50398   0.51100   0.51603   0.52014   0.52313
 Alpha virt. eigenvalues --    0.52740   0.53167   0.53341   0.54033   0.54096
 Alpha virt. eigenvalues --    0.54372   0.54759   0.55328   0.55534   0.55845
 Alpha virt. eigenvalues --    0.56392   0.56868   0.57341   0.57760   0.58093
 Alpha virt. eigenvalues --    0.58636   0.58872   0.59101   0.59457   0.60171
 Alpha virt. eigenvalues --    0.60262   0.60847   0.61122   0.61653   0.61923
 Alpha virt. eigenvalues --    0.62401   0.62713   0.62935   0.63332   0.63879
 Alpha virt. eigenvalues --    0.64334   0.64779   0.65082   0.65577   0.66312
 Alpha virt. eigenvalues --    0.66384   0.66935   0.67221   0.67489   0.67588
 Alpha virt. eigenvalues --    0.68257   0.68683   0.68781   0.69112   0.69750
 Alpha virt. eigenvalues --    0.69814   0.70106   0.70483   0.70599   0.71261
 Alpha virt. eigenvalues --    0.71575   0.71907   0.72026   0.72375   0.72952
 Alpha virt. eigenvalues --    0.73190   0.73931   0.74257   0.74375   0.74656
 Alpha virt. eigenvalues --    0.74994   0.75337   0.75562   0.75867   0.76133
 Alpha virt. eigenvalues --    0.77036   0.77184   0.77570   0.78100   0.78572
 Alpha virt. eigenvalues --    0.79428   0.79566   0.79721   0.80413   0.80668
 Alpha virt. eigenvalues --    0.80977   0.81519   0.82345   0.82663   0.82799
 Alpha virt. eigenvalues --    0.83241   0.83725   0.84252   0.85020   0.85492
 Alpha virt. eigenvalues --    0.85917   0.86604   0.86807   0.87283   0.87617
 Alpha virt. eigenvalues --    0.87834   0.88314   0.88701   0.89680   0.89804
 Alpha virt. eigenvalues --    0.90216   0.90322   0.91226   0.92008   0.92530
 Alpha virt. eigenvalues --    0.92782   0.93346   0.93715   0.93994   0.94101
 Alpha virt. eigenvalues --    0.94253   0.94764   0.95231   0.95604   0.96158
 Alpha virt. eigenvalues --    0.97129   0.97408   0.97762   0.98197   0.98295
 Alpha virt. eigenvalues --    0.99337   1.00201   1.00573   1.01098   1.01623
 Alpha virt. eigenvalues --    1.01790   1.02443   1.02945   1.03299   1.03962
 Alpha virt. eigenvalues --    1.05400   1.05580   1.05728   1.05971   1.06876
 Alpha virt. eigenvalues --    1.07170   1.07737   1.08217   1.08684   1.09673
 Alpha virt. eigenvalues --    1.10072   1.10879   1.11334   1.12171   1.12701
 Alpha virt. eigenvalues --    1.13713   1.14320   1.15257   1.15407   1.16169
 Alpha virt. eigenvalues --    1.16300   1.17974   1.18931   1.20210   1.20551
 Alpha virt. eigenvalues --    1.21456   1.22323   1.22995   1.23808   1.24652
 Alpha virt. eigenvalues --    1.26148   1.26847   1.27496   1.28611   1.29893
 Alpha virt. eigenvalues --    1.30793   1.31085   1.32611   1.32809   1.33266
 Alpha virt. eigenvalues --    1.34874   1.35324   1.35698   1.36271   1.36615
 Alpha virt. eigenvalues --    1.38142   1.39263   1.40303   1.41985   1.43591
 Alpha virt. eigenvalues --    1.44428   1.45161   1.46613   1.46935   1.48212
 Alpha virt. eigenvalues --    1.48549   1.50864   1.51222   1.51631   1.52749
 Alpha virt. eigenvalues --    1.53160   1.53934   1.54596   1.55568   1.56684
 Alpha virt. eigenvalues --    1.57413   1.58413   1.58886   1.60141   1.61061
 Alpha virt. eigenvalues --    1.61456   1.62356   1.62618   1.63355   1.63578
 Alpha virt. eigenvalues --    1.64415   1.65248   1.65557   1.65946   1.67705
 Alpha virt. eigenvalues --    1.68553   1.69160   1.69664   1.69970   1.71197
 Alpha virt. eigenvalues --    1.71890   1.72068   1.73197   1.74676   1.75027
 Alpha virt. eigenvalues --    1.75802   1.76102   1.76398   1.77678   1.78896
 Alpha virt. eigenvalues --    1.79505   1.80432   1.81566   1.82076   1.82349
 Alpha virt. eigenvalues --    1.83401   1.83719   1.84215   1.84693   1.85313
 Alpha virt. eigenvalues --    1.86075   1.86578   1.87377   1.87663   1.88509
 Alpha virt. eigenvalues --    1.89691   1.90209   1.90895   1.91411   1.91731
 Alpha virt. eigenvalues --    1.92249   1.93440   1.94617   1.95302   1.96316
 Alpha virt. eigenvalues --    1.96984   1.97045   1.97395   1.99027   2.00156
 Alpha virt. eigenvalues --    2.00515   2.01295   2.01840   2.02234   2.02798
 Alpha virt. eigenvalues --    2.03504   2.04834   2.05330   2.06336   2.06961
 Alpha virt. eigenvalues --    2.07493   2.07907   2.08569   2.09473   2.10543
 Alpha virt. eigenvalues --    2.10833   2.11050   2.11936   2.12788   2.13128
 Alpha virt. eigenvalues --    2.13716   2.14571   2.15102   2.15827   2.16297
 Alpha virt. eigenvalues --    2.17479   2.17797   2.18138   2.18910   2.19660
 Alpha virt. eigenvalues --    2.19797   2.20857   2.22737   2.23194   2.24010
 Alpha virt. eigenvalues --    2.25103   2.25404   2.26012   2.26865   2.27156
 Alpha virt. eigenvalues --    2.28593   2.29483   2.30338   2.30626   2.31039
 Alpha virt. eigenvalues --    2.31579   2.32656   2.33458   2.33993   2.34280
 Alpha virt. eigenvalues --    2.35007   2.35644   2.36334   2.37097   2.37284
 Alpha virt. eigenvalues --    2.37492   2.38759   2.39796   2.39920   2.40724
 Alpha virt. eigenvalues --    2.41390   2.42364   2.43569   2.43813   2.46168
 Alpha virt. eigenvalues --    2.46319   2.47213   2.48297   2.49294   2.49983
 Alpha virt. eigenvalues --    2.51135   2.52635   2.52982   2.53946   2.54335
 Alpha virt. eigenvalues --    2.55237   2.55691   2.57465   2.58364   2.59458
 Alpha virt. eigenvalues --    2.60261   2.60469   2.61537   2.63556   2.64835
 Alpha virt. eigenvalues --    2.65497   2.67751   2.69197   2.69577   2.71053
 Alpha virt. eigenvalues --    2.72549   2.72958   2.73681   2.75025   2.75529
 Alpha virt. eigenvalues --    2.76756   2.77087   2.79265   2.80131   2.81569
 Alpha virt. eigenvalues --    2.81876   2.82626   2.83740   2.85764   2.86768
 Alpha virt. eigenvalues --    2.87230   2.90963   2.91421   2.92429   2.93678
 Alpha virt. eigenvalues --    2.95101   2.95756   2.96498   2.96667   2.97812
 Alpha virt. eigenvalues --    2.99302   3.01058   3.04836   3.05629   3.06269
 Alpha virt. eigenvalues --    3.09063   3.09918   3.11472   3.12310   3.13483
 Alpha virt. eigenvalues --    3.17698   3.17832   3.19029   3.20178   3.21456
 Alpha virt. eigenvalues --    3.23061   3.25178   3.28123   3.32707   3.33540
 Alpha virt. eigenvalues --    3.35907   3.37389   3.41372   3.44201   3.50807
 Alpha virt. eigenvalues --    3.51909   3.54723   3.55387   3.60703   3.68360
 Alpha virt. eigenvalues --    3.73637   3.76155   3.80963   3.85385   3.87784
 Alpha virt. eigenvalues --    3.91598   3.92477   3.94482   3.97831   4.02547
 Alpha virt. eigenvalues --    4.06976   4.08945   4.12155   4.22892   4.31544
 Alpha virt. eigenvalues --    4.41010   4.43895   4.65151   5.00147
          Condensed to atoms (all electrons):
 Mulliken charges:
               1
     1  H    0.214376
     2  O   -0.867328
     3  C    0.660263
     4  C    0.972429
     5  C    0.793398
     6  H   -0.204516
     7  N   -0.735746
     8  H   -0.169868
     9  H   -0.170140
    10  C   -1.198815
    11  H   -0.015139
    12  C    0.848710
    13  C    1.151976
    14  H   -0.316847
    15  H   -0.143081
    16  H   -0.035104
    17  H   -0.032551
    18  H   -0.063896
    19  H   -0.051730
    20  H   -0.032799
    21  O   -1.048841
    22  H   -0.329529
    23  H   -0.091086
    24  C    0.418043
    25  C    0.238494
    26  C    1.050728
    27  H   -0.771893
    28  C    0.599272
    29  C    0.858753
    30  C    0.750470
    31  H   -0.481337
    32  C    0.507654
    33  H   -0.772580
    34  C   -0.180762
    35  C    0.565622
    36  H   -0.604006
    37  H   -0.493043
    38  C    0.227397
    39  H   -0.597268
    40  H   -0.449681
 Sum of Mulliken charges =  -0.00000
 Mulliken charges with hydrogens summed into heavy atoms:
               1
     2  O   -0.652952
     3  C    0.455747
     4  C    0.632421
     5  C    0.372783
     7  N   -0.750885
    10  C   -1.515661
    12  C    0.637974
    13  C    1.003551
    21  O   -1.048841
    24  C    0.418043
    25  C   -0.533399
    26  C    1.050728
    28  C    0.117935
    29  C    0.086172
    30  C    0.750470
    32  C   -0.096352
    34  C   -0.673805
    35  C   -0.031645
    38  C   -0.222284
 Electronic spatial extent (au):  <R**2>=           5732.3971
 Charge=             -0.0000 electrons
 Dipole moment (field-independent basis, Debye):
    X=              0.3717    Y=              2.0783    Z=              1.1457  Tot=              2.4021
 Unable to Open any file for archive entry.
 1\1\GINC-SE459\Stability\RHF\Aug-CC-pVDZ\C16H21N1O2\OHZDE\08-Apr-2025\
 0\\#t hf aug-cc-pvdz symm=none int=(grid=ultrafine) guess=(read,tcheck
 ) stable=(opt,rrhf)\\title\\0,1\H,0,-4.07516,-1.16573,-0.23352\O,0,-3.
 81055,-1.64255,-1.05447\C,0,-2.62327,-0.95958,-1.44034\C,0,-2.79164,0.
 54767,-1.19111\C,0,-1.45521,-1.57341,-0.66588\H,0,-2.47649,-1.12917,-2
 .51927\N,0,-3.24098,0.77586,0.18711\H,0,-3.56697,0.90678,-1.88363\H,0,
 -1.85613,1.0794,-1.4334\C,0,-2.21279,1.21886,1.14988\H,0,-4.01226,1.44
 454,0.20225\C,0,-1.69669,2.63662,0.87862\C,0,-2.77527,1.09257,2.56282\
 H,0,-1.36411,0.52419,1.04898\H,0,-1.29641,2.7348,-0.14036\H,0,-2.50793
 ,3.37205,1.00385\H,0,-0.88866,2.90098,1.57619\H,0,-3.64617,1.75537,2.6
 9361\H,0,-3.09964,0.06228,2.76282\H,0,-2.0241,1.37833,3.31241\O,0,-0.2
 6723,-0.8324,-0.95992\H,0,-1.3354,-2.63267,-0.94842\H,0,-1.67559,-1.52
 927,0.41526\C,0,0.83475,-1.05112,-0.18673\C,0,0.94342,-2.06939,0.74564
 \C,0,1.91219,-0.12955,-0.38918\H,0,0.1275,-2.77475,0.89465\C,0,2.12953
 ,-2.20775,1.50456\C,0,1.83001,0.93139,-1.32479\C,0,3.10419,-0.28765,0.
 39115\H,0,2.19484,-3.01952,2.23113\C,0,3.18769,-1.34371,1.33779\H,0,0.
 92097,1.04006,-1.91588\C,0,2.88447,1.8072,-1.48959\C,0,4.16754,0.63116
 ,0.19264\H,0,4.0997,-1.4559,1.92683\H,0,2.80911,2.62032,-2.21351\C,0,4
 .06329,1.65568,-0.72505\H,0,5.07669,0.51021,0.786\H,0,4.89199,2.35232,
 -0.8631\\Version=ES64L-G16RevC.01\HF=-822.3823809\RMSD=4.702e-09\Dipol
 e=0.1462189,0.8176514,0.4507676\Quadrupole=-0.6617215,0.8597851,-0.198
 0636,-4.8437353,-0.2979213,-5.6176199\PG=Unknown\\@
 The archive entry for this job was punched.


 MY DESCRIPTION OF EXPERIENCE IS NOT WHAT HAPPENS
 TO A MAN.  EXPERIENCE IS WHAT A MAN DOES WITH WHAT
 HAPPENS TO HIM.
                         - CHUCK KNOX, SEATTLE SEAHAWKS, 1985
 Job cpu time:       0 days  6 hours 30 minutes  8.1 seconds.
 Elapsed time:       0 days  0 hours 24 minutes 58.7 seconds.
 File lengths (MBytes):  RWF=   1533 Int=      0 D2E=      0 Chk=     48 Scr=      1
 Normal termination of Gaussian 16 at Tue Apr  8 17:48:28 2025.
 Initial command:
 /arc/software/Gaussian/g16.c01/l1.exe "/tmp/slurm/4832438/Gau-717368.inp" -scrdir="/tmp/slurm/4832438/"
 Entering Link 1 = /arc/software/Gaussian/g16.c01/l1.exe PID=    717945.
  
 Copyright (c) 1988-2019, Gaussian, Inc.  All Rights Reserved.
  
 This is part of the Gaussian(R) 16 program.  It is based on
 the Gaussian(R) 09 system (copyright 2009, Gaussian, Inc.),
 the Gaussian(R) 03 system (copyright 2003, Gaussian, Inc.),
 the Gaussian(R) 98 system (copyright 1998, Gaussian, Inc.),
 the Gaussian(R) 94 system (copyright 1995, Gaussian, Inc.),
 the Gaussian 92(TM) system (copyright 1992, Gaussian, Inc.),
 the Gaussian 90(TM) system (copyright 1990, Gaussian, Inc.),
 the Gaussian 88(TM) system (copyright 1988, Gaussian, Inc.),
 the Gaussian 86(TM) system (copyright 1986, Carnegie Mellon
 University), and the Gaussian 82(TM) system (copyright 1983,
 Carnegie Mellon University). Gaussian is a federally registered
 trademark of Gaussian, Inc.
  
 This software contains proprietary and confidential information,
 including trade secrets, belonging to Gaussian, Inc.
  
 This software is provided under written license and may be
 used, copied, transmitted, or stored only in accord with that
 written license.
  
 The following legend is applicable only to US Government
 contracts under FAR:
  
                    RESTRICTED RIGHTS LEGEND
  
 Use, reproduction and disclosure by the US Government is
 subject to restrictions as set forth in subparagraphs (a)
 and (c) of the Commercial Computer Software - Restricted
 Rights clause in FAR 52.227-19.
  
 Gaussian, Inc.
 340 Quinnipiac St., Bldg. 40, Wallingford CT 06492
  
  
 ---------------------------------------------------------------
 Warning -- This program may not be used in any manner that
 competes with the business of Gaussian, Inc. or will provide
 assistance to any competitor of Gaussian, Inc.  The licensee
 of this program is prohibited from giving any competitor of
 Gaussian, Inc. access to this program.  By using this program,
 the user acknowledges that Gaussian, Inc. is engaged in the
 business of creating and licensing software in the field of
 computational chemistry and represents and warrants to the
 licensee that it is not a competitor of Gaussian, Inc. and that
 it will not use this program in any manner prohibited above.
 ---------------------------------------------------------------
  

 Cite this work as:
 Gaussian 16, Revision C.01,
 M. J. Frisch, G. W. Trucks, H. B. Schlegel, G. E. Scuseria, 
 M. A. Robb, J. R. Cheeseman, G. Scalmani, V. Barone, 
 G. A. Petersson, H. Nakatsuji, X. Li, M. Caricato, A. V. Marenich, 
 J. Bloino, B. G. Janesko, R. Gomperts, B. Mennucci, H. P. Hratchian, 
 J. V. Ortiz, A. F. Izmaylov, J. L. Sonnenberg, D. Williams-Young, 
 F. Ding, F. Lipparini, F. Egidi, J. Goings, B. Peng, A. Petrone, 
 T. Henderson, D. Ranasinghe, V. G. Zakrzewski, J. Gao, N. Rega, 
 G. Zheng, W. Liang, M. Hada, M. Ehara, K. Toyota, R. Fukuda, 
 J. Hasegawa, M. Ishida, T. Nakajima, Y. Honda, O. Kitao, H. Nakai, 
 T. Vreven, K. Throssell, J. A. Montgomery, Jr., J. E. Peralta, 
 F. Ogliaro, M. J. Bearpark, J. J. Heyd, E. N. Brothers, K. N. Kudin, 
 V. N. Staroverov, T. A. Keith, R. Kobayashi, J. Normand, 
 K. Raghavachari, A. P. Rendell, J. C. Burant, S. S. Iyengar, 
 J. Tomasi, M. Cossi, J. M. Millam, M. Klene, C. Adamo, R. Cammi, 
 J. W. Ochterski, R. L. Martin, K. Morokuma, O. Farkas, 
 J. B. Foresman, and D. J. Fox, Gaussian, Inc., Wallingford CT, 2019.
 
 ******************************************
 Gaussian 16:  ES64L-G16RevC.01  3-Jul-2019
                 8-Apr-2025 
 ******************************************
 %nprocs=16
 Will use up to   16 processors via shared memory.
 %mem=30GB
 %chk=37Conf8_Propranolol_8_mol2.chk
 ----------------------------------------------------------------------
 #t hf aug-cc-pvdz iop(5/13=1,5/36=2,99/5=2) pseudo=read geom=check gue
 ss=(read,tcheck) scf=(maxcycle=1)
 ----------------------------------------------------------------------
 -----
 title
 -----
 Structure from the checkpoint file:  "37Conf8_Propranolol_8_mol2.chk"
 Charge =  0 Multiplicity = 1
 Z-Matrix found in chk file.
 H,0,-4.07516,-1.16573,-0.23352
 O,0,-3.81055,-1.64255,-1.05447
 C,0,-2.62327,-0.95958,-1.44034
 C,0,-2.79164,0.54767,-1.19111
 C,0,-1.45521,-1.57341,-0.66588
 H,0,-2.47649,-1.12917,-2.51927
 N,0,-3.24098,0.77586,0.18711
 H,0,-3.56697,0.90678,-1.88363
 H,0,-1.85613,1.0794,-1.4334
 C,0,-2.21279,1.21886,1.14988
 H,0,-4.01226,1.44454,0.20225
 C,0,-1.69669,2.63662,0.87862
 C,0,-2.77527,1.09257,2.56282
 H,0,-1.36411,0.52419,1.04898
 H,0,-1.29641,2.7348,-0.14036
 H,0,-2.50793,3.37205,1.00385
 H,0,-0.88866,2.90098,1.57619
 H,0,-3.64617,1.75537,2.69361
 H,0,-3.09964,0.06228,2.76282
 H,0,-2.0241,1.37833,3.31241
 O,0,-0.26723,-0.8324,-0.95992
 H,0,-1.3354,-2.63267,-0.94842
 H,0,-1.67559,-1.52927,0.41526
 C,0,0.83475,-1.05112,-0.18673
 C,0,0.94342,-2.06939,0.74564
 C,0,1.91219,-0.12955,-0.38918
 H,0,0.1275,-2.77475,0.89465
 C,0,2.12953,-2.20775,1.50456
 C,0,1.83001,0.93139,-1.32479
 C,0,3.10419,-0.28765,0.39115
 H,0,2.19484,-3.01952,2.23113
 C,0,3.18769,-1.34371,1.33779
 H,0,0.92097,1.04006,-1.91588
 C,0,2.88447,1.8072,-1.48959
 C,0,4.16754,0.63116,0.19264
 H,0,4.0997,-1.4559,1.92683
 H,0,2.80911,2.62032,-2.21351
 C,0,4.06329,1.65568,-0.72505
 H,0,5.07669,0.51021,0.786
 H,0,4.89199,2.35232,-0.8631
 Recover connectivity data from disk.
                    Distance matrix (angstroms):
                    1          2          3          4          5
     1  H    0.000000
     2  O    0.985563   0.000000
     3  C    1.899183   1.423017   0.000000
     4  C    2.345238   2.419486   1.536967   0.000000
     5  C    2.686499   2.388181   1.530013   2.561424   0.000000
     6  H    2.789576   2.046684   1.101996   2.162203   2.162271
     7  N    2.154660   2.777524   2.458030   1.467470   3.071748
     8  H    2.697484   2.691825   2.137844   1.099855   3.477612
     9  H    3.377042   3.372293   2.178530   1.103005   2.790560
    10  C    3.326934   3.949641   3.409301   2.503158   3.415799
    11  H    2.647142   3.339185   3.226017   2.058092   4.049713
    12  C    4.620805   5.149421   4.378217   3.137899   4.490896
    13  C    3.822192   4.651610   4.501079   3.793307   4.390275
    14  H    3.442445   3.886429   3.159711   2.656388   2.710898
    15  H    4.790017   5.130077   4.135088   2.850145   4.343048
    16  H    4.957695   5.574918   4.974976   3.588240   5.324828
    17  H    5.474209   6.008451   5.197331   4.100896   5.036668
    18  H    4.157517   5.061718   5.050428   4.156899   5.212222
    19  H    3.381967   4.240701   4.351745   3.995501   4.139519
    20  H    4.822106   5.602389   5.330428   4.643362   4.986301
    21  O    3.890899   3.635987   2.407883   2.886293   1.430682
    22  H    3.188931   2.667949   2.167908   3.506294   1.102821
    23  H    2.512173   2.594416   2.160068   2.853011   1.104255
    24  C    4.911470   4.762518   3.679378   4.088473   2.397142
    25  C    5.192447   5.101257   4.327986   4.954864   2.826979
    26  C    6.078343   5.956638   4.729089   4.819516   3.674327
    27  H    4.639403   4.537531   4.039029   4.889811   2.526548
    28  C    6.527243   6.492506   5.728828   6.251151   4.238344
    29  C    6.360803   6.205978   4.839506   4.639478   4.183402
    30  C    7.259773   7.192997   6.050590   6.161341   4.853722
    31  H    6.987413   6.982544   6.398221   7.021507   4.879218
    32  C    7.433013   7.401863   6.452350   6.762029   5.062013
    33  H    5.714644   5.506878   4.097113   3.814605   3.746860
    34  C    7.671537   7.544097   6.163822   5.821832   5.562360
    35  C    8.447043   8.388979   7.163252   7.095909   6.100205
    36  H    8.460476   8.455474   7.535416   7.824731   6.131311
    37  H    8.102327   7.958350   6.551658   6.058843   6.177941
    38  C    8.627649   8.543079   7.215352   6.959523   6.394088
    39  H    9.359730   9.327633   8.149003   8.113013   7.008220
    40  H    9.653125   9.577568   8.232923   7.899527   7.465735
                    6          7          8          9         10
     6  H    0.000000
     7  N    3.396774   0.000000
     8  H    2.395470   2.100327   0.000000
     9  H    2.538059   2.153137   1.777492   0.000000
    10  C    4.364109   1.476601   3.336672   2.611511   0.000000
    11  H    4.048363   1.020899   2.199628   2.730856   2.046222
    12  C    5.131756   2.515044   3.757701   2.792095   1.532966
    13  C    5.554551   2.441555   4.520202   4.100581   1.526018
    14  H    4.086979   2.080577   3.687705   2.590859   1.101365
    15  H    4.688504   2.779575   3.396482   2.173842   2.191471
    16  H    5.716148   2.818622   3.941657   3.408999   2.178224
    17  H    5.961217   3.461082   4.808381   3.648532   2.182794
    18  H    6.071478   2.721426   4.655911   4.548999   2.173827
    19  H    5.450536   2.676463   4.745637   4.493230   2.173880
    20  H    6.364016   3.407531   5.440739   4.758181   2.176596
    21  O    2.720381   3.570065   3.842691   2.530566   3.527623
    22  H    2.455640   4.066785   4.287450   3.779660   4.472914
    23  H    3.068059   2.795733   3.846629   3.202389   2.894904
    24  C    4.051067   4.482096   5.107639   3.651594   4.028255
    25  C    4.820730   5.090836   6.009515   4.743477   4.575769
    26  C    4.979662   5.263748   5.773089   4.092944   4.604604
    27  H    4.598211   4.945109   5.909451   4.920272   4.635841
    28  C    6.210472   6.283310   7.323267   5.943269   5.542851
    29  C    4.921243   5.293862   5.425892   3.690709   4.748775
    30  C    6.350015   6.436914   7.148822   5.459174   5.578129
    31  H    6.925391   6.937656   8.096020   6.829369   6.209683
    32  C    6.856083   6.866181   7.814581   6.244283   5.980574
    33  H    4.075828   4.670567   4.490034   2.818975   4.387631
    34  C    6.198581   6.433982   6.525879   4.796471   5.770182
    35  C    7.388934   7.409935   8.013084   6.255360   6.478450
    36  H    7.944862   7.867208   8.881424   7.293203   6.899676
    37  H    6.487660   6.765249   6.610555   4.974683   6.204511
    38  C    7.330985   7.413399   7.753968   5.989440   6.564705
    39  H    8.406123   8.343433   9.055222   7.301624   7.332879
    40  H    8.316139   8.350651   8.642053   6.890769   7.470925
                   11         12         13         14         15
    11  H    0.000000
    12  C    2.690798   0.000000
    13  C    2.688181   2.526649   0.000000
    14  H    2.928599   2.145226   2.146192   0.000000
    15  H    3.026218   1.099174   3.491580   2.511157   0.000000
    16  H    2.573104   1.102112   2.774507   3.069311   1.784120
    17  H    3.710230   1.099728   2.793400   2.480551   1.772123
    18  H    2.537225   2.805577   1.102214   3.070572   3.809467
    19  H    3.049596   3.485069   1.098505   2.482473   4.338485
    20  H    3.691918   2.759316   1.099000   2.507640   3.780366
    21  O    4.534352   4.178239   4.733442   2.660669   3.802079
    22  H    5.011313   5.588741   5.317842   3.735799   5.428095
    23  H    3.788000   4.191633   3.563054   2.171478   4.316803
    24  C    5.465632   4.598107   5.018733   2.973813   4.344788
    25  C    6.099323   5.397629   5.208530   3.484733   5.374205
    26  C    6.158462   4.720490   5.672756   3.637282   4.308309
    27  H    5.951423   5.710591   5.115176   3.623772   5.783935
    28  C    7.263389   6.204811   6.005755   4.458315   6.234711
    29  C    6.060305   4.494490   6.028938   4.000375   3.798640
    30  C    7.326665   5.642467   6.417882   4.588848   5.364978
    31  H    7.910264   6.997514   6.459202   5.159601   7.136175
    32  C    7.804042   6.317518   6.556909   4.928625   6.239096
    33  H    5.383943   4.148539   5.807211   3.778638   3.307777
    34  C    7.110466   5.223350   6.997527   5.112816   4.490058
    35  C    8.220146   6.235514   7.350732   5.598563   5.864379
    36  H    8.785819   7.172559   7.359646   5.877465   7.138154
    37  H    7.331401   5.464775   7.505508   5.696786   4.600690
    38  C    8.131357   6.058991   7.608751   5.821007   5.498431
    39  H    9.155476   7.099921   8.071525   6.446182   6.813468
    40  H    9.013584   6.820932   8.491806   6.792415   6.242190
                   16         17         18         19         20
    16  H    0.000000
    17  H    1.780875   0.000000
    18  H    2.600872   3.188246   0.000000
    19  H    3.794558   3.788765   1.780460   0.000000
    20  H    3.088440   2.573353   1.776565   1.786288   0.000000
    21  O    5.153109   4.555892   5.609106   4.762540   5.121203
    22  H    6.422059   6.098731   6.152962   4.914123   5.892122
    23  H    5.006213   4.646949   4.456784   3.173640   4.119354
    24  C    5.670575   4.658017   6.020913   5.041719   5.130227
    25  C    6.448857   5.361987   6.283925   4.995935   5.223146
    26  C    5.808545   4.570728   6.629622   5.923710   5.609799
    27  H    6.688839   5.806117   6.164319   4.685428   5.265265
    28  C    7.272614   5.934115   7.104848   5.837848   5.777624
    29  C    5.495190   4.436906   6.842151   6.462612   6.046283
    30  C    6.727904   5.245430   7.419071   6.650923   6.132586
    31  H    8.029597   6.707402   7.558496   6.149122   6.189483
    32  C    7.402026   5.889894   7.625234   6.598336   6.202530
    33  H    5.071524   4.351131   6.528234   6.245926   6.010231
    34  C    6.143613   4.983159   7.755714   7.545681   6.880203
    35  C    7.261710   5.712395   8.280867   7.729253   6.973352
    36  H    8.235397   6.632427   8.420137   7.405015   6.888659
    37  H    6.259985   5.302273   8.154668   8.137614   7.445687
    38  C    7.008277   5.600740   8.434035   8.124760   7.309878
    39  H    8.109504   6.474997   9.015414   8.423825   7.586672
    40  H    7.699621   6.298181   9.268587   9.069605   8.137312
                   21         22         23         24         25
    21  O    0.000000
    22  H    2.093345   0.000000
    23  H    2.088115   1.786853   0.000000
    24  C    1.363826   2.791240   2.625419   0.000000
    25  C    2.429970   2.894848   2.694456   1.384918   0.000000
    26  C    2.360003   4.138260   3.934273   1.432185   2.447307
    27  H    2.714400   2.357365   2.243250   2.154179   1.088789
    28  C    3.702662   4.266545   4.015700   2.423780   1.414906
    29  C    2.764507   4.781631   4.622970   2.493205   3.751987
    30  C    3.672685   5.196492   4.938471   2.463167   2.822975
    31  H    4.585639   4.766737   4.527522   3.401542   2.162286
    32  C    4.180596   5.229390   4.953482   2.818882   2.431872
    33  H    2.414909   4.417706   4.333335   2.714853   4.093027
    34  C    4.145027   6.149196   5.962771   3.750839   4.877692
    35  C    4.810155   6.498996   6.233714   3.752529   4.241902
    36  H    5.271827   6.260364   5.970277   3.910356   3.425446
    37  H    4.791308   6.809649   6.651471   4.635235   5.850705
    38  C    4.999911   6.898238   6.661753   4.247355   5.076678
    39  H    5.779993   7.348524   7.063300   4.623636   4.872359
    40  H    6.063775   7.977330   7.735247   5.338734   6.142538
                   26         27         28         29         30
    26  C    0.000000
    27  H    3.439538   0.000000
    28  C    2.820001   2.168318   0.000000
    29  C    1.416938   4.643267   4.236642   0.000000
    30  C    1.433448   3.911504   2.424134   2.460497   0.000000
    31  H    3.911246   2.473861   1.091394   5.327979   3.416951
    32  C    2.466477   3.407200   1.376256   3.756156   1.420691
    33  H    2.163635   4.804316   4.869117   1.089748   3.442623
    34  C    2.430480   5.854891   5.065046   1.380611   2.823802
    35  C    2.450265   5.330569   3.732831   2.802995   1.419271
    36  H    3.450841   4.310816   2.150619   4.628572   2.171212
    37  H    3.419712   6.779268   6.131569   2.144981   3.915050
    38  C    2.815508   6.143499   4.861757   2.423185   2.437685
    39  H    3.435753   5.941149   4.073007   3.895351   2.164080
    40  H    3.906851   7.216432   5.833630   3.407040   3.426195
                   31         32         33         34         35
    31  H    0.000000
    32  C    2.142929   0.000000
    33  H    5.941433   4.626743   0.000000
    34  C    6.133235   4.244320   2.150711   0.000000
    35  C    4.623251   2.484268   3.892720   2.420586   0.000000
    36  H    2.483143   1.091475   5.576788   4.878169   2.714376
    37  H    7.206937   5.335596   2.480096   1.091285   3.404651
    38  C    5.838459   3.744105   3.416320   1.413187   1.379371
    39  H    4.780424   2.703667   4.985068   3.415600   1.092364
    40  H    6.760587   4.627007   4.312699   2.172506   2.145182
                   36         37         38         39         40
    36  H    0.000000
    37  H    5.951773   0.000000
    38  C    4.088487   2.172328   0.000000
    39  H    2.474185   4.311791   2.149966   0.000000
    40  H    4.786854   2.496762   1.091379   2.479317   0.000000
 Framework group  C1[X(C16H21NO2)]
 Deg. of freedom   114
                         Standard orientation:                         
 ---------------------------------------------------------------------
 Center     Atomic      Atomic             Coordinates (Angstroms)
 Number     Number       Type             X           Y           Z
 ---------------------------------------------------------------------
      1          1           0       -4.075160   -1.165730   -0.233521
      2          8           0       -3.810549   -1.642550   -1.054471
      3          6           0       -2.623270   -0.959580   -1.440341
      4          6           0       -2.791640    0.547670   -1.191111
      5          6           0       -1.455209   -1.573410   -0.665881
      6          1           0       -2.476490   -1.129170   -2.519271
      7          7           0       -3.240980    0.775860    0.187109
      8          1           0       -3.566970    0.906780   -1.883631
      9          1           0       -1.856130    1.079400   -1.433401
     10          6           0       -2.212790    1.218860    1.149879
     11          1           0       -4.012260    1.444540    0.202249
     12          6           0       -1.696690    2.636620    0.878619
     13          6           0       -2.775270    1.092570    2.562819
     14          1           0       -1.364110    0.524190    1.048979
     15          1           0       -1.296410    2.734800   -0.140361
     16          1           0       -2.507930    3.372050    1.003849
     17          1           0       -0.888660    2.900980    1.576189
     18          1           0       -3.646170    1.755370    2.693609
     19          1           0       -3.099640    0.062280    2.762819
     20          1           0       -2.024100    1.378330    3.312409
     21          8           0       -0.267230   -0.832400   -0.959921
     22          1           0       -1.335399   -2.632670   -0.948421
     23          1           0       -1.675589   -1.529270    0.415259
     24          6           0        0.834750   -1.051120   -0.186731
     25          6           0        0.943421   -2.069390    0.745639
     26          6           0        1.912190   -0.129550   -0.389181
     27          1           0        0.127501   -2.774750    0.894649
     28          6           0        2.129531   -2.207750    1.504559
     29          6           0        1.830010    0.931390   -1.324791
     30          6           0        3.104190   -0.287650    0.391149
     31          1           0        2.194841   -3.019520    2.231129
     32          6           0        3.187690   -1.343710    1.337789
     33          1           0        0.920970    1.040060   -1.915881
     34          6           0        2.884470    1.807200   -1.489591
     35          6           0        4.167540    0.631160    0.192639
     36          1           0        4.099701   -1.455900    1.926829
     37          1           0        2.809110    2.620320   -2.213511
     38          6           0        4.063290    1.655680   -0.725051
     39          1           0        5.076690    0.510210    0.785999
     40          1           0        4.891990    2.352320   -0.863101
 ---------------------------------------------------------------------
 Rotational constants (GHZ):           0.5624349           0.2288178           0.2119320
 ======================================================================================================
                                       Pseudopotential Parameters
 ======================================================================================================
  Center     Atomic      Valence      Angular      Power
  Number     Number     Electrons     Momentum     of R      Exponent        Coefficient   SO-Coeffient
 ======================================================================================================
    1          1            1
                                      F and up 
                                                     0        0.0000010       -0.00000699    0.00000000
                                                     2        0.1200000        0.00123686    0.00000000
                                                     2        0.1800000       -0.00752022    0.00000000
                                                     2        0.2600000        0.02503380    0.00000000
                                                     2        0.4000000       -0.08702670    0.00000000
                                                     2        0.6000000        0.30134159    0.00000000
                                                     2        0.8000000       -0.50204959    0.00000000
                                                     2        1.2000000        0.52208372    0.00000000
                                      S - F
                                                     0        0.0000010       -0.01618346    0.00000000
                                                     2        0.1200000       -0.07880581    0.00000000
                                                     2        0.1600000        0.32040539    0.00000000
                                                     2        0.2400000       -0.47500956    0.00000000
                                                     2        0.5000000        0.54013668    0.00000000
                                                     2        1.5000000       -1.40434292    0.00000000
                                                     2        3.0000000        1.46283806    0.00000000
                                      P - F
                                                     0        0.0000010        0.00612970    0.00000000
                                                     2        0.1200000        0.02254406    0.00000000
                                                     2        0.1800000       -0.13874529    0.00000000
                                                     2        0.3000000        0.38299049    0.00000000
                                                     2        0.5000000       -0.57923512    0.00000000
                                                     2        1.0000000        0.63021625    0.00000000
                                                     2        2.0000000       -0.79201034    0.00000000
                                      D - F
                                                     0        0.0000010       -0.00296226    0.00000000
                                                     2        0.1200000       -0.00547344    0.00000000
                                                     2        0.1400000        0.01837884    0.00000000
                                                     2        0.2400000       -0.05565704    0.00000000
                                                     2        0.4000000        0.15376597    0.00000000
                                                     2        0.8000000       -0.32464795    0.00000000
    2          8            8
                                      G and up 
                                                     0        0.0000010        0.00001165    0.00000000
                                                     2        0.1200000       -0.01744018    0.00000000
                                                     2        0.1400000        0.05401326    0.00000000
                                                     2        0.1800000       -0.08231208    0.00000000
                                                     2        0.2600000        0.11570222    0.00000000
                                                     2        0.4000000       -0.20630360    0.00000000
                                                     2        0.7000000        0.38074319    0.00000000
                                                     2        1.2000000       -0.17045091    0.00000000
                                                     2        2.0000000       -1.45433187    0.00000000
                                      S - G
                                                     0        0.0000010       -0.00117944    0.00000000
                                                     2        0.1400000        0.04368312    0.00000000
                                                     2        0.3000000       -0.33477926    0.00000000
                                                     2        0.6000000        1.52630657    0.00000000
                                                     2        1.5000000       -2.50804716    0.00000000
                                                     2        3.0000000        2.89751681    0.00000000
                                      P - G
                                                     0        0.0000010        0.06576007    0.00000000
                                                     2        0.1200000       -0.10329304    0.00000000
                                                     2        0.2000000        0.24891756    0.00000000
                                                     2        0.4000000       -0.50800022    0.00000000
                                                     2        0.9000000        0.81480796    0.00000000
                                      D - G
                                                     0        0.0000010       -0.14101855    0.00000000
                                                     2        0.1200000        0.22105937    0.00000000
                                                     2        0.1800000       -0.45814988    0.00000000
                                                     2        0.3000000        0.46029282    0.00000000
                                      F - G
                                                     0        0.0000010        0.07483044    0.00000000
                                                     2        0.1200000       -0.09134252    0.00000000
                                                     2        0.1400000        0.04125459    0.00000000
                                                     2        0.3000000        0.37914837    0.00000000
                                                     2        0.5000000       -0.86881279    0.00000000
    3          6            6
                                      G and up 
                                                     0        0.0000010       -0.00011185    0.00000000
                                                     2        0.1200000       -0.02301220    0.00000000
                                                     2        0.1400000        0.13317600    0.00000000
                                                     2        0.1600000       -0.19690668    0.00000000
                                                     2        0.2200000        0.23163694    0.00000000
                                                     2        0.3000000       -0.36920489    0.00000000
                                                     2        0.4000000        0.36389709    0.00000000
                                                     2        0.7000000       -0.38862160    0.00000000
                                                     2        1.3000000        0.80803421    0.00000000
                                      S - G
                                                     0        0.0000010        0.00312304    0.00000000
                                                     2        0.1200000       -0.00632892    0.00000000
                                                     2        0.2200000       -0.03780897    0.00000000
                                                     2        0.4000000        0.26269560    0.00000000
                                                     2        0.9000000       -0.28209514    0.00000000
                                                     2        1.5000000       -0.72686737    0.00000000
                                      P - G
                                                     0        0.0000010       -0.01465594    0.00000000
                                                     2        0.1200000        0.07908409    0.00000000
                                                     2        0.1800000       -0.30615861    0.00000000
                                                     2        0.2600000        0.41506950    0.00000000
                                                     2        0.5000000       -0.36252345    0.00000000
                                                     2        0.9000000        0.15124193    0.00000000
                                                     2        3.0000000       -0.80425677    0.00000000
                                      D - G
                                                     0        0.0000010        0.01149631    0.00000000
                                                     2        0.1200000       -0.04713561    0.00000000
                                                     2        0.1600000        0.10865096    0.00000000
                                                     2        0.2800000       -0.15816701    0.00000000
                                                     2        0.7000000        0.65478804    0.00000000
                                                     2        1.3000000       -1.73816624    0.00000000
                                      F - G
                                                     0        0.0000010        0.00481868    0.00000000
                                                     2        0.1200000       -0.04746842    0.00000000
                                                     2        0.1600000        0.09327889    0.00000000
                                                     2        0.4000000       -0.19693326    0.00000000
                                                     2        0.9000000        0.34938253    0.00000000
    4          6            6
                                      G and up 
                                                     0        0.0000010       -0.00011185    0.00000000
                                                     2        0.1200000       -0.02301220    0.00000000
                                                     2        0.1400000        0.13317600    0.00000000
                                                     2        0.1600000       -0.19690668    0.00000000
                                                     2        0.2200000        0.23163694    0.00000000
                                                     2        0.3000000       -0.36920489    0.00000000
                                                     2        0.4000000        0.36389709    0.00000000
                                                     2        0.7000000       -0.38862160    0.00000000
                                                     2        1.3000000        0.80803421    0.00000000
                                      S - G
                                                     0        0.0000010        0.00312304    0.00000000
                                                     2        0.1200000       -0.00632892    0.00000000
                                                     2        0.2200000       -0.03780897    0.00000000
                                                     2        0.4000000        0.26269560    0.00000000
                                                     2        0.9000000       -0.28209514    0.00000000
                                                     2        1.5000000       -0.72686737    0.00000000
                                      P - G
                                                     0        0.0000010       -0.01465594    0.00000000
                                                     2        0.1200000        0.07908409    0.00000000
                                                     2        0.1800000       -0.30615861    0.00000000
                                                     2        0.2600000        0.41506950    0.00000000
                                                     2        0.5000000       -0.36252345    0.00000000
                                                     2        0.9000000        0.15124193    0.00000000
                                                     2        3.0000000       -0.80425677    0.00000000
                                      D - G
                                                     0        0.0000010        0.01149631    0.00000000
[...]
                                                     2        0.5000000        0.54013668    0.00000000
                                                     2        1.5000000       -1.40434292    0.00000000
                                                     2        3.0000000        1.46283806    0.00000000
                                      P - F
                                                     0        0.0000010        0.00612970    0.00000000
                                                     2        0.1200000        0.02254406    0.00000000
                                                     2        0.1800000       -0.13874529    0.00000000
                                                     2        0.3000000        0.38299049    0.00000000
                                                     2        0.5000000       -0.57923512    0.00000000
                                                     2        1.0000000        0.63021625    0.00000000
                                                     2        2.0000000       -0.79201034    0.00000000
                                      D - F
                                                     0        0.0000010       -0.00296226    0.00000000
                                                     2        0.1200000       -0.00547344    0.00000000
                                                     2        0.1400000        0.01837884    0.00000000
                                                     2        0.2400000       -0.05565704    0.00000000
                                                     2        0.4000000        0.15376597    0.00000000
                                                     2        0.8000000       -0.32464795    0.00000000
 ======================================================================================================
   626 basis functions,  1048 primitive gaussians,   664 cartesian basis functions
    70 alpha electrons       70 beta electrons
       nuclear repulsion energy      1448.3005414520 Hartrees.
 NAtoms=   40 NActive=   40 NUniq=   40 SFac= 1.00D+00 NAtFMM=   60 NAOKFM=F Big=F
   1 Symmetry operations used in ECPInt.
 ECPInt:  NShTT=   38226 NPrTT=  171738 LenC2=   37187 LenP2D=  113706.
 LDataN:  DoStor=T MaxTD1= 6 Len=  172
 Initial guess from the checkpoint file:  "37Conf8_Propranolol_8_mol2.chk"
 B after Tr=     0.000001    0.000000   -0.000002
         Rot=    1.000000   -0.000000    0.000000   -0.000000 Ang=  -0.00 deg.
 >>>>>>>>>> Convergence criterion not met.
 SCF Done:  E(RHF) =  -822.624877033     A.U. after    2 cycles
            NFock=  1  Conv=0.19D-01     -V/T= 2.0011

 **********************************************************************

            Population analysis using the SCF Density.

 **********************************************************************

 Orbital symmetries:
       Occupied  (A) (A) (A) (A) (A) (A) (A) (A) (A) (A) (A) (A)
                 (A) (A) (A) (A) (A) (A) (A) (A) (A) (A) (A) (A)
                 (A) (A) (A) (A) (A) (A) (A) (A) (A) (A) (A) (A)
                 (A) (A) (A) (A) (A) (A) (A) (A) (A) (A) (A) (A)
                 (A) (A) (A) (A) (A) (A) (A) (A) (A) (A) (A) (A)
                 (A) (A) (A) (A) (A) (A) (A) (A) (A) (A)
       Virtual   (A) (A) (A) (A) (A) (A) (A) (A) (A) (A) (A) (A)
                 (A) (A) (A) (A) (A) (A) (A) (A) (A) (A) (A) (A)
                 (A) (A) (A) (A) (A) (A) (A) (A) (A) (A) (A) (A)
                 (A) (A) (A) (A) (A) (A) (A) (A) (A) (A) (A) (A)
                 (A) (A) (A) (A) (A) (A) (A) (A) (A) (A) (A) (A)
                 (A) (A) (A) (A) (A) (A) (A) (A) (A) (A) (A) (A)
                 (A) (A) (A) (A) (A) (A) (A) (A) (A) (A) (A) (A)
                 (A) (A) (A) (A) (A) (A) (A) (A) (A) (A) (A) (A)
                 (A) (A) (A) (A) (A) (A) (A) (A) (A) (A) (A) (A)
                 (A) (A) (A) (A) (A) (A) (A) (A) (A) (A) (A) (A)
                 (A) (A) (A) (A) (A) (A) (A) (A) (A) (A) (A) (A)
                 (A) (A) (A) (A) (A) (A) (A) (A) (A) (A) (A) (A)
                 (A) (A) (A) (A) (A) (A) (A) (A) (A) (A) (A) (A)
                 (A) (A) (A) (A) (A) (A) (A) (A) (A) (A) (A) (A)
                 (A) (A) (A) (A) (A) (A) (A) (A) (A) (A) (A) (A)
                 (A) (A) (A) (A) (A) (A) (A) (A) (A) (A) (A) (A)
                 (A) (A) (A) (A) (A) (A) (A) (A) (A) (A) (A) (A)
                 (A) (A) (A) (A) (A) (A) (A) (A) (A) (A) (A) (A)
                 (A) (A) (A) (A) (A) (A) (A) (A) (A) (A) (A) (A)
                 (A) (A) (A) (A) (A) (A) (A) (A) (A) (A) (A) (A)
                 (A) (A) (A) (A) (A) (A) (A) (A) (A) (A) (A) (A)
                 (A) (A) (A) (A) (A) (A) (A) (A) (A) (A) (A) (A)
                 (A) (A) (A) (A) (A) (A) (A) (A) (A) (A) (A) (A)
                 (A) (A) (A) (A) (A) (A) (A) (A) (A) (A) (A) (A)
                 (A) (A) (A) (A) (A) (A) (A) (A) (A) (A) (A) (A)
                 (A) (A) (A) (A) (A) (A) (A) (A) (A) (A) (A) (A)
                 (A) (A) (A) (A) (A) (A) (A) (A) (A) (A) (A) (A)
                 (A) (A) (A) (A) (A) (A) (A) (A) (A) (A) (A) (A)
                 (A) (A) (A) (A) (A) (A) (A) (A) (A) (A) (A) (A)
                 (A) (A) (A) (A) (A) (A) (A) (A) (A) (A) (A) (A)
                 (A) (A) (A) (A) (A) (A) (A) (A) (A) (A) (A) (A)
                 (A) (A) (A) (A) (A) (A) (A) (A) (A) (A) (A) (A)
                 (A) (A) (A) (A) (A) (A) (A) (A) (A) (A) (A) (A)
                 (A) (A) (A) (A) (A) (A) (A) (A) (A) (A) (A) (A)
                 (A) (A) (A) (A) (A) (A) (A) (A) (A) (A) (A) (A)
                 (A) (A) (A) (A) (A) (A) (A) (A) (A) (A) (A) (A)
                 (A) (A) (A) (A) (A) (A) (A) (A) (A) (A) (A) (A)
                 (A) (A) (A) (A) (A) (A) (A) (A) (A) (A) (A) (A)
                 (A) (A) (A) (A) (A) (A) (A) (A) (A) (A) (A) (A)
                 (A) (A) (A) (A) (A) (A) (A) (A) (A) (A) (A) (A)
                 (A) (A) (A) (A) (A) (A) (A) (A) (A) (A) (A) (A)
                 (A) (A) (A) (A) (A) (A) (A) (A) (A) (A) (A) (A)
                 (A) (A) (A) (A) (A) (A) (A) (A) (A) (A) (A) (A)
                 (A) (A) (A) (A) (A) (A) (A) (A) (A) (A) (A) (A)
                 (A) (A) (A) (A) (A) (A) (A) (A) (A) (A) (A) (A)
                 (A) (A) (A) (A) (A) (A) (A) (A) (A) (A) (A) (A)
                 (A) (A)
 The electronic state is 1-A.
 Alpha  occ. eigenvalues --  -20.60470 -20.56401 -15.61884 -11.31965 -11.29643
 Alpha  occ. eigenvalues --  -11.29058 -11.27049 -11.26559 -11.25827 -11.25359
 Alpha  occ. eigenvalues --  -11.25291 -11.25091 -11.24915 -11.24801 -11.24702
 Alpha  occ. eigenvalues --  -11.24241 -11.24050 -11.22907 -11.22841  -1.37538
 Alpha  occ. eigenvalues --   -1.31651  -1.18406  -1.16370  -1.10127  -1.05512
 Alpha  occ. eigenvalues --   -1.03627  -1.00924  -0.99932  -0.96725  -0.93349
 Alpha  occ. eigenvalues --   -0.91658  -0.85445  -0.84805  -0.81822  -0.79912
 Alpha  occ. eigenvalues --   -0.79030  -0.73087  -0.71881  -0.69901  -0.69382
 Alpha  occ. eigenvalues --   -0.66561  -0.65936  -0.65777  -0.64667  -0.63414
 Alpha  occ. eigenvalues --   -0.61012  -0.60739  -0.60459  -0.59437  -0.58244
 Alpha  occ. eigenvalues --   -0.57458  -0.57047  -0.54799  -0.54167  -0.53851
 Alpha  occ. eigenvalues --   -0.53671  -0.52922  -0.50989  -0.50396  -0.49463
 Alpha  occ. eigenvalues --   -0.49183  -0.48767  -0.48044  -0.46752  -0.45331
 Alpha  occ. eigenvalues --   -0.44695  -0.37743  -0.37466  -0.32755  -0.28474
 Alpha virt. eigenvalues --    0.02861   0.03302   0.03509   0.04104   0.04527
 Alpha virt. eigenvalues --    0.04764   0.05366   0.05842   0.06272   0.06601
 Alpha virt. eigenvalues --    0.06997   0.07525   0.07710   0.08004   0.08362
 Alpha virt. eigenvalues --    0.08717   0.08882   0.09198   0.09494   0.09722
 Alpha virt. eigenvalues --    0.10541   0.10883   0.11439   0.11560   0.12523
 Alpha virt. eigenvalues --    0.13133   0.13445   0.13723   0.13869   0.14324
 Alpha virt. eigenvalues --    0.14711   0.14869   0.14975   0.15392   0.15449
 Alpha virt. eigenvalues --    0.15939   0.16261   0.16340   0.16606   0.16735
 Alpha virt. eigenvalues --    0.16788   0.17268   0.17632   0.17794   0.18132
 Alpha virt. eigenvalues --    0.18443   0.18693   0.18980   0.19212   0.19532
 Alpha virt. eigenvalues --    0.20025   0.20348   0.20607   0.20999   0.21546
 Alpha virt. eigenvalues --    0.21756   0.22033   0.22234   0.22520   0.22637
 Alpha virt. eigenvalues --    0.22806   0.23529   0.23999   0.24187   0.25050
 Alpha virt. eigenvalues --    0.25105   0.25321   0.25624   0.26010   0.26804
 Alpha virt. eigenvalues --    0.27406   0.27513   0.27970   0.28624   0.28681
 Alpha virt. eigenvalues --    0.29052   0.29607   0.29689   0.29941   0.30790
 Alpha virt. eigenvalues --    0.31376   0.31792   0.32067   0.32218   0.32575
 Alpha virt. eigenvalues --    0.32904   0.33161   0.33223   0.33537   0.34291
 Alpha virt. eigenvalues --    0.34675   0.34904   0.34977   0.35329   0.35760
 Alpha virt. eigenvalues --    0.35955   0.36416   0.36528   0.37062   0.37446
 Alpha virt. eigenvalues --    0.37754   0.38045   0.38464   0.38626   0.38817
 Alpha virt. eigenvalues --    0.39393   0.39564   0.39712   0.40277   0.40658
 Alpha virt. eigenvalues --    0.40919   0.41323   0.41695   0.42197   0.42515
 Alpha virt. eigenvalues --    0.42716   0.43251   0.43863   0.43941   0.44376
 Alpha virt. eigenvalues --    0.44831   0.45203   0.45535   0.45884   0.46052
 Alpha virt. eigenvalues --    0.46173   0.46486   0.46928   0.47228   0.47883
 Alpha virt. eigenvalues --    0.48314   0.48840   0.49457   0.49737   0.49919
 Alpha virt. eigenvalues --    0.50230   0.51017   0.51532   0.51958   0.52171
 Alpha virt. eigenvalues --    0.52574   0.53038   0.53224   0.53941   0.53977
 Alpha virt. eigenvalues --    0.54274   0.54649   0.55170   0.55431   0.55750
 Alpha virt. eigenvalues --    0.56353   0.56600   0.57196   0.57652   0.58034
 Alpha virt. eigenvalues --    0.58564   0.58801   0.58985   0.59351   0.60080
 Alpha virt. eigenvalues --    0.60177   0.60776   0.61015   0.61484   0.61822
 Alpha virt. eigenvalues --    0.62300   0.62637   0.62858   0.63217   0.63734
 Alpha virt. eigenvalues --    0.64189   0.64628   0.65028   0.65505   0.66163
 Alpha virt. eigenvalues --    0.66234   0.66865   0.67156   0.67349   0.67463
 Alpha virt. eigenvalues --    0.68148   0.68639   0.68687   0.69042   0.69657
 Alpha virt. eigenvalues --    0.69778   0.70005   0.70366   0.70539   0.71184
 Alpha virt. eigenvalues --    0.71514   0.71845   0.71897   0.72327   0.72867
 Alpha virt. eigenvalues --    0.73020   0.73829   0.74163   0.74253   0.74496
 Alpha virt. eigenvalues --    0.74820   0.75227   0.75478   0.75703   0.75953
 Alpha virt. eigenvalues --    0.76858   0.77098   0.77508   0.78051   0.78508
 Alpha virt. eigenvalues --    0.79164   0.79423   0.79622   0.80243   0.80537
 Alpha virt. eigenvalues --    0.80836   0.81430   0.82174   0.82490   0.82691
 Alpha virt. eigenvalues --    0.83128   0.83612   0.84115   0.84893   0.85337
 Alpha virt. eigenvalues --    0.85801   0.86346   0.86617   0.87111   0.87331
 Alpha virt. eigenvalues --    0.87642   0.88022   0.88534   0.89352   0.89673
 Alpha virt. eigenvalues --    0.90091   0.90141   0.91044   0.91816   0.92312
 Alpha virt. eigenvalues --    0.92590   0.93183   0.93420   0.93823   0.93900
 Alpha virt. eigenvalues --    0.94114   0.94609   0.95068   0.95374   0.95830
 Alpha virt. eigenvalues --    0.96787   0.97016   0.97517   0.97975   0.98025
 Alpha virt. eigenvalues --    0.99083   0.99841   1.00262   1.00445   1.01317
 Alpha virt. eigenvalues --    1.01609   1.02141   1.02467   1.02981   1.03655
 Alpha virt. eigenvalues --    1.05138   1.05258   1.05363   1.05652   1.06455
 Alpha virt. eigenvalues --    1.06777   1.07376   1.07931   1.08369   1.09446
 Alpha virt. eigenvalues --    1.09841   1.10467   1.10977   1.11876   1.12394
 Alpha virt. eigenvalues --    1.13283   1.13965   1.14891   1.15144   1.15787
 Alpha virt. eigenvalues --    1.15894   1.17686   1.18494   1.19848   1.20275
 Alpha virt. eigenvalues --    1.21149   1.22052   1.22662   1.23662   1.24263
 Alpha virt. eigenvalues --    1.25836   1.26466   1.27210   1.28240   1.29475
 Alpha virt. eigenvalues --    1.30401   1.30828   1.32156   1.32555   1.33035
 Alpha virt. eigenvalues --    1.34589   1.35053   1.35351   1.35838   1.36276
 Alpha virt. eigenvalues --    1.37866   1.38825   1.39784   1.41500   1.43061
 Alpha virt. eigenvalues --    1.43885   1.44763   1.45992   1.46410   1.47664
 Alpha virt. eigenvalues --    1.47848   1.50377   1.50563   1.51024   1.51998
 Alpha virt. eigenvalues --    1.52552   1.53145   1.54082   1.54802   1.55889
 Alpha virt. eigenvalues --    1.56581   1.57588   1.58374   1.59526   1.60484
 Alpha virt. eigenvalues --    1.60785   1.61610   1.61851   1.62590   1.62859
 Alpha virt. eigenvalues --    1.63638   1.64436   1.64832   1.65125   1.66876
 Alpha virt. eigenvalues --    1.67672   1.68264   1.68642   1.69176   1.70438
 Alpha virt. eigenvalues --    1.70938   1.71137   1.72198   1.73794   1.74028
 Alpha virt. eigenvalues --    1.74799   1.75016   1.75237   1.76757   1.77958
 Alpha virt. eigenvalues --    1.78399   1.79360   1.80441   1.81059   1.81367
 Alpha virt. eigenvalues --    1.82271   1.82647   1.83194   1.83461   1.84227
 Alpha virt. eigenvalues --    1.85000   1.85516   1.86138   1.86690   1.87590
 Alpha virt. eigenvalues --    1.88852   1.89278   1.89949   1.90445   1.90646
 Alpha virt. eigenvalues --    1.91195   1.92447   1.93837   1.94476   1.95355
 Alpha virt. eigenvalues --    1.95736   1.95932   1.96595   1.97947   1.99117
 Alpha virt. eigenvalues --    1.99629   1.99937   2.00771   2.01227   2.01765
 Alpha virt. eigenvalues --    2.02443   2.03603   2.04321   2.05467   2.06039
 Alpha virt. eigenvalues --    2.06381   2.06850   2.07475   2.08112   2.09556
 Alpha virt. eigenvalues --    2.09728   2.10119   2.10699   2.11871   2.12288
 Alpha virt. eigenvalues --    2.13029   2.13373   2.14032   2.14550   2.15224
 Alpha virt. eigenvalues --    2.16565   2.16986   2.17231   2.18020   2.18487
 Alpha virt. eigenvalues --    2.18887   2.19917   2.21620   2.22074   2.22999
 Alpha virt. eigenvalues --    2.23678   2.24353   2.24673   2.25571   2.25835
 Alpha virt. eigenvalues --    2.27482   2.27991   2.29179   2.29415   2.30009
 Alpha virt. eigenvalues --    2.30657   2.32022   2.32247   2.33018   2.33169
 Alpha virt. eigenvalues --    2.33882   2.34537   2.35137   2.35736   2.36403
 Alpha virt. eigenvalues --    2.36660   2.37340   2.38398   2.38664   2.39471
 Alpha virt. eigenvalues --    2.40288   2.41300   2.42268   2.42529   2.44850
 Alpha virt. eigenvalues --    2.45018   2.45828   2.47121   2.47863   2.48585
 Alpha virt. eigenvalues --    2.49909   2.51251   2.51889   2.52759   2.53091
 Alpha virt. eigenvalues --    2.53999   2.55471   2.56186   2.57165   2.58164
 Alpha virt. eigenvalues --    2.58890   2.59607   2.61169   2.62192   2.63916
 Alpha virt. eigenvalues --    2.64425   2.66507   2.67574   2.68004   2.69573
 Alpha virt. eigenvalues --    2.71137   2.71783   2.72121   2.73916   2.74938
 Alpha virt. eigenvalues --    2.75590   2.76582   2.77805   2.78884   2.80164
 Alpha virt. eigenvalues --    2.80695   2.81316   2.82545   2.84870   2.85353
 Alpha virt. eigenvalues --    2.86243   2.90155   2.90721   2.91425   2.92723
 Alpha virt. eigenvalues --    2.94047   2.94204   2.95263   2.96479   2.96967
 Alpha virt. eigenvalues --    2.99811   3.03040   3.03884   3.04701   3.06510
 Alpha virt. eigenvalues --    3.07711   3.08827   3.10303   3.12478   3.13136
 Alpha virt. eigenvalues --    3.15919   3.16886   3.17366   3.19229   3.19773
 Alpha virt. eigenvalues --    3.22180   3.27697   3.28129   3.31603   3.32792
 Alpha virt. eigenvalues --    3.36714   3.39608   3.40138   3.43234   3.50069
 Alpha virt. eigenvalues --    3.53298   3.56111   3.56496   3.59817   3.65755
 Alpha virt. eigenvalues --    3.72573   3.74265   3.76064   3.78381   3.78917
 Alpha virt. eigenvalues --    3.80179   3.81143   3.83129   3.89118   3.97175
 Alpha virt. eigenvalues --    3.97954   4.00522   4.05906   4.11707   4.19846
 Alpha virt. eigenvalues --    4.30235   4.35878   4.64256   5.00379
          Condensed to atoms (all electrons):
 Mulliken charges:
               1
     1  H    0.218881
     2  O   -0.649098
     3  C    0.492961
     4  C    1.106275
     5  C    0.611926
     6  H   -0.189291
     7  N   -0.802014
     8  H   -0.154594
     9  H   -0.189872
    10  C   -1.060964
    11  H    0.020737
    12  C    0.730430
    13  C    1.236781
    14  H   -0.428582
    15  H   -0.147883
    16  H   -0.023487
    17  H   -0.023170
    18  H   -0.061974
    19  H   -0.054776
    20  H   -0.027312
    21  O   -0.602066
    22  H   -0.299120
    23  H   -0.123736
    24  C   -0.225968
    25  C    0.305843
    26  C    0.818487
    27  H   -0.739205
    28  C    0.644868
    29  C    0.724982
    30  C    0.511258
    31  H   -0.466764
    32  C    0.606695
    33  H   -0.760881
    34  C    0.018659
    35  C    0.681273
    36  H   -0.595509
    37  H   -0.481453
    38  C    0.399893
    39  H   -0.579534
    40  H   -0.442695
 Sum of Mulliken charges =   0.00000
 Mulliken charges with hydrogens summed into heavy atoms:
               1
     2  O   -0.430216
     3  C    0.303670
     4  C    0.761809
     5  C    0.189070
     7  N   -0.781278
    10  C   -1.489546
    12  C    0.535889
    13  C    1.092719
    21  O   -0.602066
    24  C   -0.225968
    25  C   -0.433362
    26  C    0.818487
    28  C    0.178104
    29  C   -0.035899
    30  C    0.511258
    32  C    0.011186
    34  C   -0.462794
    35  C    0.101739
    38  C   -0.042802
 Electronic spatial extent (au):  <R**2>=           5730.2167
 Charge=             -0.0000 electrons
 Dipole moment (field-independent basis, Debye):
    X=              0.4438    Y=              2.1001    Z=              1.2647  Tot=              2.4913

 Test job not archived.
 1\1\GINC-SE459\SP\RHF\Aug-CC-pVDZ\C16H21N1O2\OHZDE\08-Apr-2025\0\\#t h
 f aug-cc-pvdz iop(5/13=1,5/36=2,99/5=2) pseudo=read geom=check guess=(
 read,tcheck) scf=(maxcycle=1)\\title\\0,1\H,0,-4.07516,-1.16573,-0.233
 52\O,0,-3.81055,-1.64255,-1.05447\C,0,-2.62327,-0.95958,-1.44034\C,0,-
 2.79164,0.54767,-1.19111\C,0,-1.45521,-1.57341,-0.66588\H,0,-2.47649,-
 1.12917,-2.51927\N,0,-3.24098,0.77586,0.18711\H,0,-3.56697,0.90678,-1.
 88363\H,0,-1.85613,1.0794,-1.4334\C,0,-2.21279,1.21886,1.14988\H,0,-4.
 01226,1.44454,0.20225\C,0,-1.69669,2.63662,0.87862\C,0,-2.77527,1.0925
 7,2.56282\H,0,-1.36411,0.52419,1.04898\H,0,-1.29641,2.7348,-0.14036\H,
 0,-2.50793,3.37205,1.00385\H,0,-0.88866,2.90098,1.57619\H,0,-3.64617,1
 .75537,2.69361\H,0,-3.09964,0.06228,2.76282\H,0,-2.0241,1.37833,3.3124
 1\O,0,-0.26723,-0.8324,-0.95992\H,0,-1.3354,-2.63267,-0.94842\H,0,-1.6
 7559,-1.52927,0.41526\C,0,0.83475,-1.05112,-0.18673\C,0,0.94342,-2.069
 39,0.74564\C,0,1.91219,-0.12955,-0.38918\H,0,0.1275,-2.77475,0.89465\C
 ,0,2.12953,-2.20775,1.50456\C,0,1.83001,0.93139,-1.32479\C,0,3.10419,-
 0.28765,0.39115\H,0,2.19484,-3.01952,2.23113\C,0,3.18769,-1.34371,1.33
 779\H,0,0.92097,1.04006,-1.91588\C,0,2.88447,1.8072,-1.48959\C,0,4.167
 54,0.63116,0.19264\H,0,4.0997,-1.4559,1.92683\H,0,2.80911,2.62032,-2.2
 1351\C,0,4.06329,1.65568,-0.72505\H,0,5.07669,0.51021,0.786\H,0,4.8919
 9,2.35232,-0.8631\\Version=ES64L-G16RevC.01\State=1-A\HF=-822.624877\R
 MSD=1.948e-02\Dipole=0.1745869,0.8262477,0.4975531\Quadrupole=-0.64079
 63,0.9225304,-0.2817341,-5.0733507,-0.3956871,-5.8375832\PG=C01 [X(C16
 H21N1O2)]\\@


 The number of Unix installations has grown to 10,
  with more expected.
                  -- The Unix Programmer's Manual,
                     2nd Edition, June, 1972.
 Job cpu time:       0 days  0 hours 20 minutes 36.9 seconds.
 Elapsed time:       0 days  0 hours  1 minutes 22.3 seconds.
 File lengths (MBytes):  RWF=     56 Int=      0 D2E=      0 Chk=     48 Scr=      1
 Normal termination of Gaussian 16 at Tue Apr  8 17:49:50 2025.
