 Entering Gaussian System, Link 0=g16
 Input=37Conf8_Pantoprazole_2_mol2.gjf
 Output=37Conf8_Pantoprazole_2_mol2.log
 Initial command:
 /arc/software/Gaussian/g16.c01/l1.exe "/tmp/slurm/4832415/Gau-1950633.inp" -scrdir="/tmp/slurm/4832415/"
 Entering Link 1 = /arc/software/Gaussian/g16.c01/l1.exe PID=   1950634.
  
 Copyright (c) 1988-2019, Gaussian, Inc.  All Rights Reserved.
  
 This is part of the Gaussian(R) 16 program.  It is based on
 the Gaussian(R) 09 system (copyright 2009, Gaussian, Inc.),
 the Gaussian(R) 03 system (copyright 2003, Gaussian, Inc.),
 the Gaussian(R) 98 system (copyright 1998, Gaussian, Inc.),
 the Gaussian(R) 94 system (copyright 1995, Gaussian, Inc.),
 the Gaussian 92(TM) system (copyright 1992, Gaussian, Inc.),
 the Gaussian 90(TM) system (copyright 1990, Gaussian, Inc.),
 the Gaussian 88(TM) system (copyright 1988, Gaussian, Inc.),
 the Gaussian 86(TM) system (copyright 1986, Carnegie Mellon
 University), and the Gaussian 82(TM) system (copyright 1983,
 Carnegie Mellon University). Gaussian is a federally registered
 trademark of Gaussian, Inc.
  
 This software contains proprietary and confidential information,
 including trade secrets, belonging to Gaussian, Inc.
  
 This software is provided under written license and may be
 used, copied, transmitted, or stored only in accord with that
 written license.
  
 The following legend is applicable only to US Government
 contracts under FAR:
  
                    RESTRICTED RIGHTS LEGEND
  
 Use, reproduction and disclosure by the US Government is
 subject to restrictions as set forth in subparagraphs (a)
 and (c) of the Commercial Computer Software - Restricted
 Rights clause in FAR 52.227-19.
  
 Gaussian, Inc.
 340 Quinnipiac St., Bldg. 40, Wallingford CT 06492
  
  
 ---------------------------------------------------------------
 Warning -- This program may not be used in any manner that
 competes with the business of Gaussian, Inc. or will provide
 assistance to any competitor of Gaussian, Inc.  The licensee
 of this program is prohibited from giving any competitor of
 Gaussian, Inc. access to this program.  By using this program,
 the user acknowledges that Gaussian, Inc. is engaged in the
 business of creating and licensing software in the field of
 computational chemistry and represents and warrants to the
 licensee that it is not a competitor of Gaussian, Inc. and that
 it will not use this program in any manner prohibited above.
 ---------------------------------------------------------------
  

 Cite this work as:
 Gaussian 16, Revision C.01,
 M. J. Frisch, G. W. Trucks, H. B. Schlegel, G. E. Scuseria, 
 M. A. Robb, J. R. Cheeseman, G. Scalmani, V. Barone, 
 G. A. Petersson, H. Nakatsuji, X. Li, M. Caricato, A. V. Marenich, 
 J. Bloino, B. G. Janesko, R. Gomperts, B. Mennucci, H. P. Hratchian, 
 J. V. Ortiz, A. F. Izmaylov, J. L. Sonnenberg, D. Williams-Young, 
 F. Ding, F. Lipparini, F. Egidi, J. Goings, B. Peng, A. Petrone, 
 T. Henderson, D. Ranasinghe, V. G. Zakrzewski, J. Gao, N. Rega, 
 G. Zheng, W. Liang, M. Hada, M. Ehara, K. Toyota, R. Fukuda, 
 J. Hasegawa, M. Ishida, T. Nakajima, Y. Honda, O. Kitao, H. Nakai, 
 T. Vreven, K. Throssell, J. A. Montgomery, Jr., J. E. Peralta, 
 F. Ogliaro, M. J. Bearpark, J. J. Heyd, E. N. Brothers, K. N. Kudin, 
 V. N. Staroverov, T. A. Keith, R. Kobayashi, J. Normand, 
 K. Raghavachari, A. P. Rendell, J. C. Burant, S. S. Iyengar, 
 J. Tomasi, M. Cossi, J. M. Millam, M. Klene, C. Adamo, R. Cammi, 
 J. W. Ochterski, R. L. Martin, K. Morokuma, O. Farkas, 
 J. B. Foresman, and D. J. Fox, Gaussian, Inc., Wallingford CT, 2019.
 
 ******************************************
 Gaussian 16:  ES64L-G16RevC.01  3-Jul-2019
                 8-Apr-2025 
 ******************************************
 %nprocs=16
 Will use up to   16 processors via shared memory.
 %mem=30GB
 %chk=37Conf8_Pantoprazole_2_mol2.chk
 ----------------------------------------------------------------------
 #t hf aug-cc-pvdz symm=none int=(grid=ultrafine) guess=(read,tcheck) s
 table=(opt,rrhf)
 ----------------------------------------------------------------------
 -----
 title
 -----
 Symbolic Z-matrix:
 Charge =  0 Multiplicity = 1
 H                     6.77445  -1.80791  -0.37899 
 C                     5.72725  -1.53553  -0.25583 
 C                     4.73431  -2.27561  -0.90317 
 C                     5.34002  -0.4617    0.55095 
 H                     5.01824  -3.11934  -1.53905 
 N                     3.42854  -2.02743  -0.80033 
 O                     6.1838    0.32849   1.25894 
 C                     3.95878  -0.16823   0.65813 
 C                     3.05215  -0.98741  -0.02911 
 C                     7.58022   0.03837   1.17621 
 O                     3.50234   0.82363   1.48323 
 C                     1.58576  -0.71007   0.04644 
 H                     7.94848   0.13993   0.14274 
 H                     7.79773  -0.97607   1.54668 
 H                     8.07437   0.77655   1.81675 
 C                     3.76365   2.17049   1.03287 
 S                     1.05233   0.1662   -1.50796 
 H                     0.99476  -1.63639   0.04519 
 H                     1.31459  -0.05703   0.88377 
 C                    -0.66722   0.31909  -0.99501 
 O                     1.56562   1.5835   -1.46529 
 N                    -1.54919  -0.63833  -0.8025 
 N                    -1.16111   1.58596  -0.83759 
 C                    -2.71612   0.04078  -0.47766 
 H                    -0.59145   2.42224  -0.94375 
 C                    -2.49392   1.44624  -0.49525 
 C                    -3.98608  -0.47403  -0.17668 
 C                    -3.51006   2.36216  -0.21541 
 H                    -4.16858  -1.54678  -0.21369 
 C                    -4.98455   0.44935   0.1188 
 H                    -3.34262   3.43937  -0.23297 
 C                    -4.75961   1.84156   0.09938 
 O                    -6.29157   0.08216   0.43376 
 H                    -5.59477   2.49938   0.33869 
 C                    -6.48462  -1.15973   0.9868 
 F                    -6.59124  -2.12481   0.01036 
 F                    -7.67325  -1.12165   1.63763 
 H                    -5.67886  -1.45742   1.67918 
 H                     3.23001   2.35579   0.08826 
 H                     4.84268   2.34278   0.91061 
 H                     3.37522   2.82604   1.82121 
 
                    Distance matrix (angstroms):
                    1          2          3          4          5
     1  H    0.000000
     2  C    1.089030   0.000000
     3  C    2.157702   1.397389   0.000000
     4  C    2.175927   1.397838   2.402419   0.000000
     5  H    2.479891   2.158194   1.094002   3.396276   0.000000
     6  N    3.379472   2.412989   1.333118   2.816243   2.065217
     7  O    2.756064   2.444900   3.681994   1.355587   4.590731
     8  C    3.419381   2.415019   2.734987   1.416134   3.828721
     9  C    3.827683   2.740073   2.291965   2.418096   3.269641
    10  C    2.544929   2.821595   4.216341   2.378974   4.889531
    11  O    4.593427   3.679700   4.100969   2.428639   5.194145
    12  C    5.320597   4.233756   3.642258   3.796141   4.483334
    13  H    2.333373   2.810674   4.154473   2.707888   4.694418
    14  H    2.333938   2.801593   4.132204   2.701184   4.673425
    15  H    3.631873   3.892335   5.279171   3.257635   5.981579
    16  C    5.185165   4.387603   4.945527   3.105739   6.014239
    17  S    6.157462   5.130165   4.459281   4.797672   5.150163
    18  H    5.797772   4.743126   3.910527   4.529567   4.571362
    19  H    5.871134   4.791265   4.450813   4.059386   5.381898
    20  C    7.764152   6.698899   5.993115   6.251924   6.666576
    21  O    6.309803   5.339504   5.024869   4.742801   5.834615
    22  N    8.416072   7.351897   6.494089   7.023122   7.058970
    23  N    8.643019   7.584962   7.047837   6.955979   7.798478
    24  C    9.669452   8.592116   7.813810   8.137071   8.422187
    25  H    8.512908   7.487533   7.101772   6.762660   7.907725
    26  C    9.823731   8.748480   8.140385   8.130522   8.852490
    27  C   10.844776   9.771480   8.934130   9.354450   9.483222
    28  C   11.098981  10.026042   9.484280   9.321234  10.224029
    29  H   10.947393   9.895926   8.959243   9.600810   9.414201
    30  C   11.984035  10.900585  10.145249  10.373693  10.748945
    31  H   11.397823  10.344694   9.917004   9.550975  10.706377
    32  C   12.107106  11.022937  10.396668  10.368773  11.086087
    33  O   13.227010  12.146789  11.354140  11.644887  11.918615
    34  H   13.117371  12.034205  11.446949  11.330608  12.154501
    35  C   13.344979  12.280681  11.431604  11.853241  11.938835
    36  F   13.375115  12.335449  11.363334  12.058737  11.754565
    37  F   14.603895  13.539937  12.717501  13.075229  13.234651
    38  H   12.627107  11.569344  10.759743  11.121155  11.293668
    39  H    5.487966   4.636483   4.969479   3.550278   5.985228
    40  H    4.756367   4.145399   4.962970   2.870855   5.988857
    41  H    6.153790   5.373028   5.941061   4.035249   7.024130
                    6          7          8          9         10
     6  N    0.000000
     7  O    4.169222   0.000000
     8  C    2.421752   2.357630   0.000000
     9  C    1.348366   3.632891   1.401903   0.000000
    10  C    5.040901   1.428637   3.664139   4.796711   0.000000
    11  O    3.653578   2.736000   1.368544   2.402022   4.164133
    12  C    2.418325   4.867313   2.509777   1.494297   6.145738
    13  H    5.100656   2.096557   4.034637   5.027373   1.101812
    14  H    5.069875   2.095099   4.022395   5.000377   1.101657
    15  H    6.024545   2.021426   4.378709   5.633955   1.095165
    16  C    4.592979   3.049786   2.376577   3.406812   4.374093
    17  S    3.310457   5.832157   3.640225   2.741732   7.059352
    18  H    2.605974   5.679796   3.364016   2.158599   6.888564
    19  H    3.344765   4.898835   2.656129   2.172112   6.273176
    20  C    4.724331   7.212271   4.936621   4.058771   8.533069
    21  O    4.117215   5.506729   3.647559   3.298782   6.748360
    22  N    5.167920   8.061229   5.717706   4.678923   9.365861
    23  N    5.841478   7.741083   5.614947   5.002743   9.102817
    24  C    6.491414   9.072328   6.774068   5.876335  10.428322
    25  H    5.998371   7.425607   5.475504   5.073273   8.772301
    26  C    6.872772   8.923529   6.750862   6.074441  10.308452
    27  C    7.601222  10.302014   7.994449   7.058471  11.656421
    28  C    8.231330  10.014012   7.934073   7.370002  11.416257
    29  H    7.634881  10.623420   8.289418   7.244716  11.936449
    30  C    8.818125  11.227046   8.980837   8.165458  12.615881
    31  H    8.721032  10.131932   8.192636   7.780169  11.526536
    32  C    9.100789  11.108203   8.964473   8.309222  12.517287
    33  O   10.022669  12.505057  10.255862   9.416121  13.891714
    34  H   10.159208  12.012258   9.924137   9.330713  13.429012
    35  C   10.110266  12.758437  10.495509   9.592276  14.117048
    36  F   10.052994  13.068255  10.749453   9.710314  14.382935
    37  F   11.402361  13.937867  11.712069  10.854964  15.304473
    38  H    9.456089  12.003699   9.776945   8.908967  13.352661
    39  H    4.476787   3.768994   2.688221   3.349984   5.047613
    40  H    4.901616   2.444852   2.673985   3.896054   3.588171
    41  H    5.516474   3.800266   3.264805   4.250936   5.086173
                   11         12         13         14         15
    11  O    0.000000
    12  C    2.844271   0.000000
    13  H    4.693881   6.419967   0.000000
    14  H    4.657609   6.396096   1.799786   0.000000
    15  H    4.584420   6.888113   1.795395   1.794755   0.000000
    16  C    1.444001   3.743511   4.735853   5.141852   4.597809
    17  S    3.921987   1.862406   7.091007   7.492398   7.793284
    18  H    3.795736   1.098795   7.177677   6.997921   7.686454
    19  H    2.433344   1.095954   6.678055   6.581428   6.874586
    20  C    4.876624   2.686951   8.692345   8.932693   9.194056
    21  O    3.608609   2.747034   6.738736   7.379875   7.333947
    22  N    5.734095   3.248655   9.576268   9.643528  10.073493
    23  N    5.264515   3.687622   9.275596   9.618189   9.643379
    24  C    6.567129   4.398253  10.683090  10.755137  11.056236
    25  H    5.020448   3.941077   8.906167   9.387710   9.242570
    26  C    6.344853   4.646169  10.543111  10.768246  10.838938
    27  C    7.779181   5.581299  11.954610  11.919740  12.287887
    28  C    7.377412   5.956051  11.677530  11.921194  11.867723
    29  H    8.206180   5.820668  12.239084  12.108558  12.625782
    30  C    8.604014   6.672216  12.936753  12.940531  13.172907
    31  H    7.526016   6.448632  11.769299  12.114894  11.901245
    32  C    8.438663   6.839396  12.821582  12.950695  12.992099
    33  O    9.877846   7.926536  14.243141  14.172749  14.449051
    34  H    9.320704   7.870578  13.748637  13.888738  13.856341
    35  C   10.194093   8.137414  14.516058  14.294500  14.710615
    36  F   10.618051   8.298561  14.715639  14.516278  15.058587
    37  F   11.344680   9.403752  15.743720  15.471932  15.862622
    38  H    9.462347   7.483253  13.806396  13.485834  13.934162
    39  H    2.089885   3.479196   5.213153   5.838865   5.380474
    40  H    2.105284   4.546890   3.884349   4.489061   3.703780
    41  H    2.034708   4.342355   5.563017   5.838664   5.126640
                   16         17         18         19         20
    16  C    0.000000
    17  S    4.221878   0.000000
    18  H    4.809844   2.380109   0.000000
    19  H    3.313906   2.416399   1.816559   0.000000
    20  C    5.212733   1.800929   2.769133   2.756601   0.000000
    21  O    3.378860   1.507988   3.602100   2.876185   2.608730
    22  N    6.283655   2.812979   2.861186   3.373819   1.315897
    23  N    5.300336   2.713749   3.976256   3.433888   1.368820
    24  C    6.986042   3.908768   4.105716   4.255547   2.131455
    25  H    4.789290   2.847817   4.468394   3.622099   2.105139
    26  C    6.482042   3.903841   4.686744   4.320447   2.203874
    27  C    8.277367   5.250502   5.119480   5.421766   3.509065
    28  C    7.382533   5.225737   6.029073   5.507987   3.586593
    29  H    8.848293   5.645116   5.170602   5.786962   4.043693
    30  C    8.962636   6.258629   6.333078   6.365592   4.460592
    31  H    7.328812   5.626262   6.682333   5.929716   4.180265
    32  C    8.580534   6.258516   6.723976   6.412162   4.501473
    33  O   10.287250   7.596723   7.496333   7.620732   5.807825
    34  H    9.389892   7.282704   7.785412   7.387259   5.550961
    35  C   10.775877   8.049070   7.553473   7.877451   6.321125
    36  F   11.256948   8.122696   7.601787   8.218315   6.486712
    37  F   11.916652   9.364243   8.828093   9.082015   7.621744
    38  H   10.136096   7.622527   6.873075   7.176497   5.951791
    39  H    1.100634   3.476279   4.575554   3.181724   4.528799
    40  H    1.099517   4.995371   5.602610   4.266993   6.171362
    41  H    1.096405   4.853240   5.360421   3.665663   5.527858
                   21         22         23         24         25
    21  O    0.000000
    22  N    3.883022   0.000000
    23  N    2.798048   2.258164   0.000000
    24  C    4.657112   1.388682   2.221528   0.000000
    25  H    2.372433   3.210032   1.017422   3.225339   0.000000
    26  C    4.176085   2.309188   1.383149   1.423025   2.184747
    27  C    6.059317   2.521325   3.558204   1.403003   4.527724
    28  C    5.284982   3.632165   2.550914   2.467371   3.008716
    29  H    6.651782   2.834287   4.387276   2.167872   5.392770
    30  C    6.833766   3.719347   4.101860   2.380855   4.931596
    31  H    5.390147   4.490923   2.925693   3.464504   3.018062
    32  C    6.520991   4.155724   3.727257   2.784176   4.335766
    33  O    8.221669   4.953545   5.495395   3.690019   6.313864
    34  H    7.440723   5.245403   4.677105   3.872695   5.165638
    35  C    8.851238   5.275597   6.261547   4.217518   7.161493
    36  F    9.080940   5.319082   6.631376   4.465926   7.588377
    37  F   10.114478   6.609988   7.474345   5.513514   8.329140
    38  H    8.462705   4.887107   6.000530   3.959090   6.914714
    39  H    2.404193   5.709550   4.553215   6.405935   3.958916
    40  H    4.118316   7.257945   6.298768   8.022590   5.742363
    41  H    3.952169   6.567764   5.402343   7.081448   4.852064
                   26         27         28         29         30
    26  C    0.000000
    27  C    2.452645   0.000000
    28  C    1.396338   2.876120   0.000000
    29  H    3.441211   1.088792   3.964021   0.000000
    30  C    2.752106   1.391719   2.438167   2.181947   0.000000
    31  H    2.182120   3.966347   1.090287   5.054134   3.429270
    32  C    2.375545   2.456932   1.389781   3.453719   1.410398
    33  O    4.140763   2.448932   3.654671   2.753130   1.393675
    34  H    3.379324   3.419745   2.161451   4.325570   2.150196
    35  C    4.991316   2.840171   4.764140   2.637238   2.364904
    36  F    5.458578   3.089809   5.447710   2.500720   3.036365
    37  F    6.161874   4.160091   5.736100   3.986331   3.464678
    38  H    4.827342   2.697550   4.783551   2.423198   2.559809
    39  H    5.825044   7.755645   6.746910   8.370207   8.432938
    40  H    7.523691   9.330789   8.428319   9.879045  10.039247
    41  H    6.458842   8.310882   7.195143   8.953842   8.856219
                   31         32         33         34         35
    31  H    0.000000
    32  C    2.161322   0.000000
    33  O    4.517930   2.356735   0.000000
    34  H    2.506503   1.089720   2.517443   0.000000
    35  C    5.701905   3.573642   1.373103   3.821121   0.000000
    36  F    6.447700   4.369769   2.267110   4.741718   1.377019
    37  F    6.561738   4.431267   2.192601   4.372549   1.355681
    38  H    5.752642   3.771480   2.072870   4.178546   1.103294
    39  H    6.669093   8.006159   9.795369   8.829500  10.370164
    40  H    8.337231   9.649523  11.371425  10.454280  11.856690
    41  H    7.051610   8.373133  10.143999   9.097543  10.667664
                   36         37         38         39         40
    36  F    0.000000
    37  F    2.196607   0.000000
    38  H    2.015641   2.022884   0.000000
    39  H   10.795314  11.548775   9.820365   0.000000
    40  H   12.308710  13.006896  11.213163   1.810285   0.000000
    41  H   11.274769  11.733995  10.017214   1.801482   1.793369
                   41
    41  H    0.000000
 Symmetry turned off by external request.
 Rotational constants (GHZ):           0.5077793           0.0616540           0.0594454
   737 basis functions,  1321 primitive gaussians,   789 cartesian basis functions
    99 alpha electrons       99 beta electrons
       nuclear repulsion energy      2407.4968530717 Hartrees.
 NAtoms=   41 NActive=   41 NUniq=   41 SFac= 1.00D+00 NAtFMM=   60 NAOKFM=F Big=F
 ExpMin= 2.97D-02 ExpMax= 1.11D+05 ExpMxC= 1.07D+03 IAcc=3 IRadAn=         5 AccDes= 0.00D+00
 Harris functional with IExCor=  205 and IRadAn=       5 diagonalized for initial guess.
 HarFok:  IExCor=  205 AccDes= 0.00D+00 IRadAn=         5 IDoV= 1 UseB2=F ITyADJ=14
 ICtDFT=  3500011 ScaDFX=  1.000000  1.000000  1.000000  1.000000
 FoFCou: FMM=F IPFlag=           0 FMFlag=      100000 FMFlg1=           0
         NFxFlg=           0 DoJE=T BraDBF=F KetDBF=T FulRan=T
         wScrn=  0.000000 ICntrl=       500 IOpCl=  0 I1Cent=   200000004 NGrid=           0
         NMat0=    1 NMatS0=      1 NMatT0=    0 NMatD0=    1 NMtDS0=    0 NMtDT0=    0
 Symmetry not used in FoFCou.
 SCF Done:  E(RHF) =  -1673.90290552     A.U. after   17 cycles
            NFock= 17  Conv=0.37D-08     -V/T= 2.0012

 **********************************************************************

            Population analysis using the SCF Density.

 **********************************************************************

 Alpha  occ. eigenvalues --  -92.10695 -26.33454 -26.32889 -20.62904 -20.62394
 Alpha  occ. eigenvalues --  -20.59233 -20.54316 -15.64510 -15.58552 -15.58176
 Alpha  occ. eigenvalues --  -11.48303 -11.35719 -11.34244 -11.32700 -11.31577
 Alpha  occ. eigenvalues --  -11.31300 -11.30302 -11.29630 -11.29589 -11.28941
 Alpha  occ. eigenvalues --  -11.28775 -11.28263 -11.27068 -11.25973 -11.25971
 Alpha  occ. eigenvalues --  -11.25872  -9.09511  -6.77723  -6.77639  -6.77432
 Alpha  occ. eigenvalues --   -1.67958  -1.61164  -1.44835  -1.44537  -1.40297
 Alpha  occ. eigenvalues --   -1.38057  -1.35301  -1.27199  -1.20267  -1.16039
 Alpha  occ. eigenvalues --   -1.09949  -1.08781  -1.04619  -1.03680  -1.01153
 Alpha  occ. eigenvalues --   -0.98202  -0.96231  -0.93849  -0.91351  -0.86701
 Alpha  occ. eigenvalues --   -0.85377  -0.85127  -0.83511  -0.81349  -0.79678
 Alpha  occ. eigenvalues --   -0.78122  -0.77322  -0.74841  -0.73731  -0.73344
 Alpha  occ. eigenvalues --   -0.70044  -0.69467  -0.67906  -0.67513  -0.67241
 Alpha  occ. eigenvalues --   -0.65852  -0.65150  -0.64346  -0.64095  -0.63945
 Alpha  occ. eigenvalues --   -0.63584  -0.62817  -0.62434  -0.62336  -0.61491
 Alpha  occ. eigenvalues --   -0.60799  -0.60082  -0.59250  -0.57703  -0.56744
 Alpha  occ. eigenvalues --   -0.55968  -0.55439  -0.55298  -0.54294  -0.53224
 Alpha  occ. eigenvalues --   -0.53080  -0.51207  -0.50355  -0.47768  -0.47097
 Alpha  occ. eigenvalues --   -0.46729  -0.45270  -0.44516  -0.42625  -0.40052
 Alpha  occ. eigenvalues --   -0.36461  -0.34148  -0.33164  -0.31341
 Alpha virt. eigenvalues --    0.02527   0.02976   0.03675   0.04153   0.04431
 Alpha virt. eigenvalues --    0.04707   0.05263   0.05556   0.06168   0.06306
 Alpha virt. eigenvalues --    0.06528   0.07073   0.07405   0.07924   0.08239
 Alpha virt. eigenvalues --    0.08659   0.08782   0.09195   0.09707   0.10147
 Alpha virt. eigenvalues --    0.10286   0.10656   0.10966   0.11659   0.11872
 Alpha virt. eigenvalues --    0.12130   0.12519   0.12566   0.12850   0.13406
 Alpha virt. eigenvalues --    0.13759   0.13844   0.13991   0.14307   0.14468
 Alpha virt. eigenvalues --    0.14628   0.14852   0.14984   0.15369   0.15662
 Alpha virt. eigenvalues --    0.15955   0.16246   0.16294   0.16749   0.16855
 Alpha virt. eigenvalues --    0.17180   0.17336   0.17655   0.17893   0.18242
 Alpha virt. eigenvalues --    0.18478   0.18872   0.19052   0.19241   0.19597
 Alpha virt. eigenvalues --    0.19905   0.20265   0.20525   0.20713   0.21233
 Alpha virt. eigenvalues --    0.21441   0.21734   0.21788   0.22103   0.22537
 Alpha virt. eigenvalues --    0.23027   0.23316   0.23539   0.23854   0.24396
 Alpha virt. eigenvalues --    0.24745   0.24902   0.25444   0.25980   0.26247
 Alpha virt. eigenvalues --    0.26360   0.26937   0.27173   0.27374   0.27860
 Alpha virt. eigenvalues --    0.28228   0.28616   0.28955   0.29498   0.29616
 Alpha virt. eigenvalues --    0.29768   0.30077   0.30321   0.30454   0.30793
 Alpha virt. eigenvalues --    0.31262   0.31419   0.31876   0.32345   0.32355
 Alpha virt. eigenvalues --    0.32679   0.32897   0.33245   0.33546   0.33972
 Alpha virt. eigenvalues --    0.34181   0.34359   0.34441   0.34676   0.34963
 Alpha virt. eigenvalues --    0.35147   0.35490   0.36076   0.36333   0.36337
 Alpha virt. eigenvalues --    0.36551   0.36826   0.37069   0.37512   0.37895
 Alpha virt. eigenvalues --    0.37959   0.38258   0.38620   0.38829   0.38952
 Alpha virt. eigenvalues --    0.39119   0.39425   0.40090   0.40206   0.40502
 Alpha virt. eigenvalues --    0.40839   0.41094   0.41265   0.41450   0.41730
 Alpha virt. eigenvalues --    0.42055   0.42138   0.42578   0.42891   0.43341
 Alpha virt. eigenvalues --    0.43596   0.43813   0.43937   0.44489   0.44911
 Alpha virt. eigenvalues --    0.45033   0.45157   0.45702   0.45812   0.45905
 Alpha virt. eigenvalues --    0.46241   0.46721   0.46844   0.47294   0.47842
 Alpha virt. eigenvalues --    0.47967   0.48341   0.48876   0.49167   0.49433
 Alpha virt. eigenvalues --    0.49747   0.49962   0.50454   0.50661   0.51240
 Alpha virt. eigenvalues --    0.51831   0.51843   0.52139   0.52526   0.53118
 Alpha virt. eigenvalues --    0.53666   0.54262   0.54310   0.54984   0.55343
 Alpha virt. eigenvalues --    0.55896   0.56279   0.56342   0.56791   0.57176
 Alpha virt. eigenvalues --    0.57260   0.57554   0.58255   0.58752   0.59021
 Alpha virt. eigenvalues --    0.59356   0.59655   0.59900   0.60355   0.60699
 Alpha virt. eigenvalues --    0.60927   0.61250   0.61570   0.61945   0.62251
 Alpha virt. eigenvalues --    0.62674   0.62968   0.63098   0.63713   0.64473
 Alpha virt. eigenvalues --    0.64737   0.64809   0.65356   0.65600   0.65904
 Alpha virt. eigenvalues --    0.66256   0.66469   0.66635   0.66903   0.67285
 Alpha virt. eigenvalues --    0.67769   0.68558   0.68772   0.68891   0.69469
 Alpha virt. eigenvalues --    0.69534   0.69847   0.70056   0.70761   0.70843
 Alpha virt. eigenvalues --    0.71328   0.71835   0.72060   0.72219   0.72813
 Alpha virt. eigenvalues --    0.73232   0.73558   0.73770   0.74008   0.74391
 Alpha virt. eigenvalues --    0.74787   0.74986   0.75091   0.75343   0.75613
 Alpha virt. eigenvalues --    0.75890   0.76420   0.76895   0.77422   0.77747
 Alpha virt. eigenvalues --    0.77910   0.78682   0.78813   0.79341   0.79850
 Alpha virt. eigenvalues --    0.79962   0.80418   0.81336   0.81648   0.81994
 Alpha virt. eigenvalues --    0.82333   0.82760   0.83404   0.83910   0.84178
 Alpha virt. eigenvalues --    0.84569   0.84762   0.85166   0.85538   0.86137
 Alpha virt. eigenvalues --    0.86309   0.86767   0.86891   0.87261   0.88362
 Alpha virt. eigenvalues --    0.88732   0.88973   0.89554   0.89605   0.89891
 Alpha virt. eigenvalues --    0.90248   0.90488   0.91227   0.91371   0.91835
 Alpha virt. eigenvalues --    0.92652   0.93494   0.93792   0.94408   0.94597
 Alpha virt. eigenvalues --    0.94913   0.95222   0.95829   0.96242   0.96915
 Alpha virt. eigenvalues --    0.97178   0.97556   0.98163   0.98412   0.98702
 Alpha virt. eigenvalues --    0.99535   0.99757   1.00692   1.01007   1.01287
 Alpha virt. eigenvalues --    1.02301   1.02345   1.03002   1.03637   1.03914
 Alpha virt. eigenvalues --    1.04108   1.04869   1.05315   1.05551   1.06375
 Alpha virt. eigenvalues --    1.06609   1.07711   1.07812   1.08451   1.08536
 Alpha virt. eigenvalues --    1.09409   1.10081   1.10360   1.11103   1.11253
 Alpha virt. eigenvalues --    1.12186   1.12679   1.13063   1.13589   1.14207
 Alpha virt. eigenvalues --    1.15062   1.15580   1.16519   1.16614   1.18086
 Alpha virt. eigenvalues --    1.18422   1.18903   1.19873   1.20462   1.21167
 Alpha virt. eigenvalues --    1.21669   1.22785   1.23526   1.23664   1.24149
 Alpha virt. eigenvalues --    1.24514   1.25439   1.26286   1.26526   1.27291
 Alpha virt. eigenvalues --    1.28892   1.29676   1.30039   1.30593   1.31224
 Alpha virt. eigenvalues --    1.31518   1.32866   1.34046   1.34797   1.35238
 Alpha virt. eigenvalues --    1.35951   1.36636   1.37917   1.38413   1.40324
 Alpha virt. eigenvalues --    1.40693   1.41066   1.41531   1.42310   1.43316
 Alpha virt. eigenvalues --    1.43458   1.44173   1.44620   1.44843   1.46086
 Alpha virt. eigenvalues --    1.47259   1.47849   1.48713   1.49496   1.50318
 Alpha virt. eigenvalues --    1.50875   1.51433   1.51966   1.52240   1.52605
 Alpha virt. eigenvalues --    1.53391   1.54217   1.54419   1.54700   1.55384
 Alpha virt. eigenvalues --    1.56780   1.57189   1.58269   1.58797   1.59246
 Alpha virt. eigenvalues --    1.60553   1.60743   1.61202   1.62081   1.62209
 Alpha virt. eigenvalues --    1.62843   1.63676   1.64235   1.64787   1.65155
 Alpha virt. eigenvalues --    1.65543   1.65785   1.66535   1.67773   1.67938
 Alpha virt. eigenvalues --    1.68227   1.68750   1.69737   1.70147   1.70499
 Alpha virt. eigenvalues --    1.71220   1.71370   1.72248   1.72511   1.73059
 Alpha virt. eigenvalues --    1.73235   1.74184   1.74624   1.75407   1.75940
 Alpha virt. eigenvalues --    1.76223   1.76939   1.77672   1.77781   1.78240
 Alpha virt. eigenvalues --    1.79100   1.79465   1.80016   1.80286   1.81302
 Alpha virt. eigenvalues --    1.81805   1.82548   1.82880   1.83469   1.84282
 Alpha virt. eigenvalues --    1.84872   1.85799   1.87408   1.87880   1.88060
 Alpha virt. eigenvalues --    1.88946   1.89305   1.89667   1.89738   1.90280
 Alpha virt. eigenvalues --    1.90529   1.91568   1.92379   1.92872   1.93611
 Alpha virt. eigenvalues --    1.93926   1.94496   1.95206   1.95935   1.96143
 Alpha virt. eigenvalues --    1.97184   1.97634   1.98115   1.98635   1.98819
 Alpha virt. eigenvalues --    1.99606   2.00120   2.00564   2.00819   2.01495
 Alpha virt. eigenvalues --    2.02609   2.03104   2.04125   2.05854   2.06764
 Alpha virt. eigenvalues --    2.07506   2.07946   2.08912   2.09167   2.09610
 Alpha virt. eigenvalues --    2.09798   2.10647   2.11310   2.11813   2.12808
 Alpha virt. eigenvalues --    2.14130   2.15264   2.15365   2.16357   2.17899
 Alpha virt. eigenvalues --    2.18219   2.18699   2.19011   2.20068   2.20424
 Alpha virt. eigenvalues --    2.21051   2.21212   2.21614   2.22139   2.22983
 Alpha virt. eigenvalues --    2.23279   2.24628   2.25069   2.25874   2.26486
 Alpha virt. eigenvalues --    2.26735   2.27881   2.28566   2.29570   2.30072
 Alpha virt. eigenvalues --    2.30145   2.30747   2.31824   2.32763   2.33008
 Alpha virt. eigenvalues --    2.33796   2.34164   2.35085   2.35550   2.36446
 Alpha virt. eigenvalues --    2.37298   2.37645   2.38298   2.39160   2.39478
 Alpha virt. eigenvalues --    2.39968   2.40806   2.41678   2.42854   2.44427
 Alpha virt. eigenvalues --    2.44878   2.45324   2.46785   2.47121   2.47688
 Alpha virt. eigenvalues --    2.48977   2.49873   2.51231   2.52616   2.53162
 Alpha virt. eigenvalues --    2.53967   2.54534   2.56611   2.58017   2.58101
 Alpha virt. eigenvalues --    2.59626   2.60722   2.62086   2.62431   2.63183
 Alpha virt. eigenvalues --    2.65297   2.65526   2.67666   2.68159   2.68869
 Alpha virt. eigenvalues --    2.70391   2.71428   2.72207   2.72902   2.74362
 Alpha virt. eigenvalues --    2.74615   2.75818   2.76794   2.76817   2.78484
 Alpha virt. eigenvalues --    2.79961   2.81123   2.82352   2.82949   2.84724
 Alpha virt. eigenvalues --    2.85252   2.86503   2.86741   2.88348   2.89588
 Alpha virt. eigenvalues --    2.90865   2.91998   2.92947   2.92974   2.94370
 Alpha virt. eigenvalues --    2.96141   2.97887   2.99045   3.00625   3.01931
 Alpha virt. eigenvalues --    3.03337   3.05177   3.05752   3.07108   3.09342
 Alpha virt. eigenvalues --    3.10013   3.10578   3.11371   3.13497   3.15175
 Alpha virt. eigenvalues --    3.16344   3.19064   3.21998   3.24376   3.27866
 Alpha virt. eigenvalues --    3.29666   3.33385   3.36450   3.37732   3.39081
 Alpha virt. eigenvalues --    3.39661   3.45728   3.48436   3.50908   3.56182
 Alpha virt. eigenvalues --    3.58121   3.60041   3.65043   3.66329   3.67108
 Alpha virt. eigenvalues --    3.72392   3.73303   3.80612   3.81352   3.81894
 Alpha virt. eigenvalues --    3.82002   3.84104   3.84662   3.86752   3.87938
 Alpha virt. eigenvalues --    3.90629   3.91298   3.92455   3.93027   3.93434
 Alpha virt. eigenvalues --    3.95035   3.97348   3.97786   4.01501   4.02412
 Alpha virt. eigenvalues --    4.10188   4.15646   4.18105   4.20047   4.25650
 Alpha virt. eigenvalues --    4.27491   4.81169   4.87259   4.97440   4.98250
 Alpha virt. eigenvalues --    5.01183   5.02408   5.07583   5.08847   5.11101
 Alpha virt. eigenvalues --    5.15149   5.18441   5.27000
          Condensed to atoms (all electrons):
 Mulliken charges:
               1
     1  H   -0.704011
     2  C    1.396155
     3  C    0.349969
     4  C    0.426444
     5  H   -0.386810
     6  N   -0.704258
     7  O   -1.121509
     8  C    0.801125
     9  C    0.370481
    10  C    0.829085
    11  O   -1.230305
    12  C    0.310594
    13  H   -0.059370
    14  H   -0.054890
    15  H   -0.316258
    16  C    0.817118
    17  S    1.678043
    18  H   -0.053244
    19  H   -0.191876
    20  C   -0.076767
    21  O   -1.293280
    22  N   -1.011310
    23  N   -0.782733
    24  C   -0.470473
    25  H   -0.075256
    26  C    0.049914
    27  C    1.368071
    28  C    1.412432
    29  H   -0.642812
    30  C    0.701670
    31  H   -0.528914
    32  C    0.881612
    33  O   -1.179166
    34  H   -0.566966
    35  C    1.792959
    36  F   -0.609420
    37  F   -0.611223
    38  H   -0.140334
    39  H   -0.095616
    40  H   -0.081415
    41  H   -0.197458
 Sum of Mulliken charges =  -0.00000
 Mulliken charges with hydrogens summed into heavy atoms:
               1
     2  C    0.692144
     3  C   -0.036841
     4  C    0.426444
     6  N   -0.704258
     7  O   -1.121509
     8  C    0.801125
     9  C    0.370481
    10  C    0.398567
    11  O   -1.230305
    12  C    0.065474
    16  C    0.442628
    17  S    1.678043
    20  C   -0.076767
    21  O   -1.293280
    22  N   -1.011310
    23  N   -0.857988
    24  C   -0.470473
    26  C    0.049914
    27  C    0.725260
    28  C    0.883518
    30  C    0.701670
    32  C    0.314647
    33  O   -1.179166
    35  C    1.652625
    36  F   -0.609420
    37  F   -0.611223
 Electronic spatial extent (au):  <R**2>=          16805.7361
 Charge=             -0.0000 electrons
 Dipole moment (field-independent basis, Debye):
    X=              7.2444    Y=              2.1438    Z=              1.8547  Tot=              7.7792
 NROrb=    737 NOA=    99 NOB=    99 NVA=   638 NVB=   638

 **** Warning!!: The largest alpha MO coefficient is  0.96575766D+02

    12 initial guesses have been made.
 Iteration     1 Dimension    12 NMult     0 NNew     12
 New state      1 was old state      2
 Iteration     2 Dimension    24 NMult    12 NNew     12
 New state      1 was old state      4
 Iteration     3 Dimension    27 NMult    24 NNew      3
 Iteration     4 Dimension    30 NMult    27 NNew      3
 Iteration     5 Dimension    33 NMult    30 NNew      3
 Iteration     6 Dimension    36 NMult    33 NNew      3
 Iteration     7 Dimension    39 NMult    36 NNew      3
 Iteration     8 Dimension    42 NMult    39 NNew      3
 Iteration     9 Dimension    45 NMult    42 NNew      3
 Iteration    10 Dimension    48 NMult    45 NNew      3
 Iteration    11 Dimension    51 NMult    48 NNew      3
 Iteration    12 Dimension    54 NMult    51 NNew      3
 Iteration    13 Dimension    57 NMult    54 NNew      3
 ***********************************************************************
 Stability analysis using <AA,BB:AA,BB> singles matrix:
 ***********************************************************************
 Ground to excited state transition densities written to RWF  633

 Eigenvectors of the stability matrix:
 
 Excited state symmetry could not be determined.
 Eigenvector   1:      Singlet-?Sym  Eigenvalue= 0.1563201  <S**2>=0.000
      98 ->126         0.11408
      98 ->129        -0.14267
      98 ->131         0.10004
      98 ->137        -0.11030
      99 ->108        -0.11626
      99 ->110         0.12014
      99 ->111        -0.25628
      99 ->112         0.32121
      99 ->116         0.13674
      99 ->118        -0.20500
 The wavefunction is stable under the perturbations considered.
 The wavefunction is already stable.

 **********************************************************************

            Population analysis using the SCF Density.

 **********************************************************************

 Alpha  occ. eigenvalues --  -92.10695 -26.33454 -26.32889 -20.62904 -20.62394
 Alpha  occ. eigenvalues --  -20.59233 -20.54316 -15.64510 -15.58552 -15.58176
 Alpha  occ. eigenvalues --  -11.48303 -11.35719 -11.34244 -11.32700 -11.31577
 Alpha  occ. eigenvalues --  -11.31300 -11.30302 -11.29630 -11.29589 -11.28941
 Alpha  occ. eigenvalues --  -11.28775 -11.28263 -11.27068 -11.25973 -11.25971
 Alpha  occ. eigenvalues --  -11.25872  -9.09511  -6.77723  -6.77639  -6.77432
 Alpha  occ. eigenvalues --   -1.67958  -1.61164  -1.44835  -1.44537  -1.40297
 Alpha  occ. eigenvalues --   -1.38057  -1.35301  -1.27199  -1.20267  -1.16039
 Alpha  occ. eigenvalues --   -1.09949  -1.08781  -1.04619  -1.03680  -1.01153
 Alpha  occ. eigenvalues --   -0.98202  -0.96231  -0.93849  -0.91351  -0.86701
 Alpha  occ. eigenvalues --   -0.85377  -0.85127  -0.83511  -0.81349  -0.79678
 Alpha  occ. eigenvalues --   -0.78122  -0.77322  -0.74841  -0.73731  -0.73344
 Alpha  occ. eigenvalues --   -0.70044  -0.69467  -0.67906  -0.67513  -0.67241
 Alpha  occ. eigenvalues --   -0.65852  -0.65150  -0.64346  -0.64095  -0.63945
 Alpha  occ. eigenvalues --   -0.63584  -0.62817  -0.62434  -0.62336  -0.61491
 Alpha  occ. eigenvalues --   -0.60799  -0.60082  -0.59250  -0.57703  -0.56744
 Alpha  occ. eigenvalues --   -0.55968  -0.55439  -0.55298  -0.54294  -0.53224
 Alpha  occ. eigenvalues --   -0.53080  -0.51207  -0.50355  -0.47768  -0.47097
 Alpha  occ. eigenvalues --   -0.46729  -0.45270  -0.44516  -0.42625  -0.40052
 Alpha  occ. eigenvalues --   -0.36461  -0.34148  -0.33164  -0.31341
 Alpha virt. eigenvalues --    0.02527   0.02976   0.03675   0.04153   0.04431
 Alpha virt. eigenvalues --    0.04707   0.05263   0.05556   0.06168   0.06306
 Alpha virt. eigenvalues --    0.06528   0.07073   0.07405   0.07924   0.08239
 Alpha virt. eigenvalues --    0.08659   0.08782   0.09195   0.09707   0.10147
 Alpha virt. eigenvalues --    0.10286   0.10656   0.10966   0.11659   0.11872
 Alpha virt. eigenvalues --    0.12130   0.12519   0.12566   0.12850   0.13406
 Alpha virt. eigenvalues --    0.13759   0.13844   0.13991   0.14307   0.14468
 Alpha virt. eigenvalues --    0.14628   0.14852   0.14984   0.15369   0.15662
 Alpha virt. eigenvalues --    0.15955   0.16246   0.16294   0.16749   0.16855
 Alpha virt. eigenvalues --    0.17180   0.17336   0.17655   0.17893   0.18242
 Alpha virt. eigenvalues --    0.18478   0.18872   0.19052   0.19241   0.19597
 Alpha virt. eigenvalues --    0.19905   0.20265   0.20525   0.20713   0.21233
 Alpha virt. eigenvalues --    0.21441   0.21734   0.21788   0.22103   0.22537
 Alpha virt. eigenvalues --    0.23027   0.23316   0.23539   0.23854   0.24396
 Alpha virt. eigenvalues --    0.24745   0.24902   0.25444   0.25980   0.26247
 Alpha virt. eigenvalues --    0.26360   0.26937   0.27173   0.27374   0.27860
 Alpha virt. eigenvalues --    0.28228   0.28616   0.28955   0.29498   0.29616
 Alpha virt. eigenvalues --    0.29768   0.30077   0.30321   0.30454   0.30793
 Alpha virt. eigenvalues --    0.31262   0.31419   0.31876   0.32345   0.32355
 Alpha virt. eigenvalues --    0.32679   0.32897   0.33245   0.33546   0.33972
 Alpha virt. eigenvalues --    0.34181   0.34359   0.34441   0.34676   0.34963
 Alpha virt. eigenvalues --    0.35147   0.35490   0.36076   0.36333   0.36337
 Alpha virt. eigenvalues --    0.36551   0.36826   0.37069   0.37512   0.37895
 Alpha virt. eigenvalues --    0.37959   0.38258   0.38620   0.38829   0.38952
 Alpha virt. eigenvalues --    0.39119   0.39425   0.40090   0.40206   0.40502
 Alpha virt. eigenvalues --    0.40839   0.41094   0.41265   0.41450   0.41730
 Alpha virt. eigenvalues --    0.42055   0.42138   0.42578   0.42891   0.43341
 Alpha virt. eigenvalues --    0.43596   0.43813   0.43937   0.44489   0.44911
 Alpha virt. eigenvalues --    0.45033   0.45157   0.45702   0.45812   0.45905
 Alpha virt. eigenvalues --    0.46241   0.46721   0.46844   0.47294   0.47842
 Alpha virt. eigenvalues --    0.47967   0.48341   0.48876   0.49167   0.49433
 Alpha virt. eigenvalues --    0.49747   0.49962   0.50454   0.50661   0.51240
 Alpha virt. eigenvalues --    0.51831   0.51843   0.52139   0.52526   0.53118
 Alpha virt. eigenvalues --    0.53666   0.54262   0.54310   0.54984   0.55343
 Alpha virt. eigenvalues --    0.55896   0.56279   0.56342   0.56791   0.57176
 Alpha virt. eigenvalues --    0.57260   0.57554   0.58255   0.58752   0.59021
 Alpha virt. eigenvalues --    0.59356   0.59655   0.59900   0.60355   0.60699
 Alpha virt. eigenvalues --    0.60927   0.61250   0.61570   0.61945   0.62251
 Alpha virt. eigenvalues --    0.62674   0.62968   0.63098   0.63713   0.64473
 Alpha virt. eigenvalues --    0.64737   0.64809   0.65356   0.65600   0.65904
 Alpha virt. eigenvalues --    0.66256   0.66469   0.66635   0.66903   0.67285
 Alpha virt. eigenvalues --    0.67769   0.68558   0.68772   0.68891   0.69469
 Alpha virt. eigenvalues --    0.69534   0.69847   0.70056   0.70761   0.70843
 Alpha virt. eigenvalues --    0.71328   0.71835   0.72060   0.72219   0.72813
 Alpha virt. eigenvalues --    0.73232   0.73558   0.73770   0.74008   0.74391
 Alpha virt. eigenvalues --    0.74787   0.74986   0.75091   0.75343   0.75613
 Alpha virt. eigenvalues --    0.75890   0.76420   0.76895   0.77422   0.77747
 Alpha virt. eigenvalues --    0.77910   0.78682   0.78813   0.79341   0.79850
 Alpha virt. eigenvalues --    0.79962   0.80418   0.81336   0.81648   0.81994
 Alpha virt. eigenvalues --    0.82333   0.82760   0.83404   0.83910   0.84178
 Alpha virt. eigenvalues --    0.84569   0.84762   0.85166   0.85538   0.86137
 Alpha virt. eigenvalues --    0.86309   0.86767   0.86891   0.87261   0.88362
 Alpha virt. eigenvalues --    0.88732   0.88973   0.89554   0.89605   0.89891
 Alpha virt. eigenvalues --    0.90248   0.90488   0.91227   0.91371   0.91835
 Alpha virt. eigenvalues --    0.92652   0.93494   0.93792   0.94408   0.94597
 Alpha virt. eigenvalues --    0.94913   0.95222   0.95829   0.96242   0.96915
 Alpha virt. eigenvalues --    0.97178   0.97556   0.98163   0.98412   0.98702
 Alpha virt. eigenvalues --    0.99535   0.99757   1.00692   1.01007   1.01287
 Alpha virt. eigenvalues --    1.02301   1.02345   1.03002   1.03637   1.03914
 Alpha virt. eigenvalues --    1.04108   1.04869   1.05315   1.05551   1.06375
 Alpha virt. eigenvalues --    1.06609   1.07711   1.07812   1.08451   1.08536
 Alpha virt. eigenvalues --    1.09409   1.10081   1.10360   1.11103   1.11253
 Alpha virt. eigenvalues --    1.12186   1.12679   1.13063   1.13589   1.14207
 Alpha virt. eigenvalues --    1.15062   1.15580   1.16519   1.16614   1.18086
 Alpha virt. eigenvalues --    1.18422   1.18903   1.19873   1.20462   1.21167
 Alpha virt. eigenvalues --    1.21669   1.22785   1.23526   1.23664   1.24149
 Alpha virt. eigenvalues --    1.24514   1.25439   1.26286   1.26526   1.27291
 Alpha virt. eigenvalues --    1.28892   1.29676   1.30039   1.30593   1.31224
 Alpha virt. eigenvalues --    1.31518   1.32866   1.34046   1.34797   1.35238
 Alpha virt. eigenvalues --    1.35951   1.36636   1.37917   1.38413   1.40324
 Alpha virt. eigenvalues --    1.40693   1.41066   1.41531   1.42310   1.43316
 Alpha virt. eigenvalues --    1.43458   1.44173   1.44620   1.44843   1.46086
 Alpha virt. eigenvalues --    1.47259   1.47849   1.48713   1.49496   1.50318
 Alpha virt. eigenvalues --    1.50875   1.51433   1.51966   1.52240   1.52605
 Alpha virt. eigenvalues --    1.53391   1.54217   1.54419   1.54700   1.55384
 Alpha virt. eigenvalues --    1.56780   1.57189   1.58269   1.58797   1.59246
 Alpha virt. eigenvalues --    1.60553   1.60743   1.61202   1.62081   1.62209
 Alpha virt. eigenvalues --    1.62843   1.63676   1.64235   1.64787   1.65155
 Alpha virt. eigenvalues --    1.65543   1.65785   1.66535   1.67773   1.67938
 Alpha virt. eigenvalues --    1.68227   1.68750   1.69737   1.70147   1.70499
 Alpha virt. eigenvalues --    1.71220   1.71370   1.72248   1.72511   1.73059
 Alpha virt. eigenvalues --    1.73235   1.74184   1.74624   1.75407   1.75940
 Alpha virt. eigenvalues --    1.76223   1.76939   1.77672   1.77781   1.78240
 Alpha virt. eigenvalues --    1.79100   1.79465   1.80016   1.80286   1.81302
 Alpha virt. eigenvalues --    1.81805   1.82548   1.82880   1.83469   1.84282
 Alpha virt. eigenvalues --    1.84872   1.85799   1.87408   1.87880   1.88060
 Alpha virt. eigenvalues --    1.88946   1.89305   1.89667   1.89738   1.90280
 Alpha virt. eigenvalues --    1.90529   1.91568   1.92379   1.92872   1.93611
 Alpha virt. eigenvalues --    1.93926   1.94496   1.95206   1.95935   1.96143
 Alpha virt. eigenvalues --    1.97184   1.97634   1.98115   1.98635   1.98819
 Alpha virt. eigenvalues --    1.99606   2.00120   2.00564   2.00819   2.01495
 Alpha virt. eigenvalues --    2.02609   2.03104   2.04125   2.05854   2.06764
 Alpha virt. eigenvalues --    2.07506   2.07946   2.08912   2.09167   2.09610
 Alpha virt. eigenvalues --    2.09798   2.10647   2.11310   2.11813   2.12808
 Alpha virt. eigenvalues --    2.14130   2.15264   2.15365   2.16357   2.17899
 Alpha virt. eigenvalues --    2.18219   2.18699   2.19011   2.20068   2.20424
 Alpha virt. eigenvalues --    2.21051   2.21212   2.21614   2.22139   2.22983
 Alpha virt. eigenvalues --    2.23279   2.24628   2.25069   2.25874   2.26486
 Alpha virt. eigenvalues --    2.26735   2.27881   2.28566   2.29570   2.30072
 Alpha virt. eigenvalues --    2.30145   2.30747   2.31824   2.32763   2.33008
 Alpha virt. eigenvalues --    2.33796   2.34164   2.35085   2.35550   2.36446
 Alpha virt. eigenvalues --    2.37298   2.37645   2.38298   2.39160   2.39478
 Alpha virt. eigenvalues --    2.39968   2.40806   2.41678   2.42854   2.44427
 Alpha virt. eigenvalues --    2.44878   2.45324   2.46785   2.47121   2.47688
 Alpha virt. eigenvalues --    2.48977   2.49873   2.51231   2.52616   2.53162
 Alpha virt. eigenvalues --    2.53967   2.54534   2.56611   2.58017   2.58101
 Alpha virt. eigenvalues --    2.59626   2.60722   2.62086   2.62431   2.63183
 Alpha virt. eigenvalues --    2.65297   2.65526   2.67666   2.68159   2.68869
 Alpha virt. eigenvalues --    2.70391   2.71428   2.72207   2.72902   2.74362
 Alpha virt. eigenvalues --    2.74615   2.75818   2.76794   2.76817   2.78484
 Alpha virt. eigenvalues --    2.79961   2.81123   2.82352   2.82949   2.84724
 Alpha virt. eigenvalues --    2.85252   2.86503   2.86741   2.88348   2.89588
 Alpha virt. eigenvalues --    2.90865   2.91998   2.92947   2.92974   2.94370
 Alpha virt. eigenvalues --    2.96141   2.97887   2.99045   3.00625   3.01931
 Alpha virt. eigenvalues --    3.03337   3.05177   3.05752   3.07108   3.09342
 Alpha virt. eigenvalues --    3.10013   3.10578   3.11371   3.13497   3.15175
 Alpha virt. eigenvalues --    3.16344   3.19064   3.21998   3.24376   3.27866
 Alpha virt. eigenvalues --    3.29666   3.33385   3.36450   3.37732   3.39081
 Alpha virt. eigenvalues --    3.39661   3.45728   3.48436   3.50908   3.56182
 Alpha virt. eigenvalues --    3.58121   3.60041   3.65043   3.66329   3.67108
 Alpha virt. eigenvalues --    3.72392   3.73303   3.80612   3.81352   3.81894
 Alpha virt. eigenvalues --    3.82002   3.84104   3.84662   3.86752   3.87938
 Alpha virt. eigenvalues --    3.90629   3.91298   3.92455   3.93027   3.93434
 Alpha virt. eigenvalues --    3.95035   3.97348   3.97786   4.01501   4.02412
 Alpha virt. eigenvalues --    4.10188   4.15646   4.18105   4.20047   4.25650
 Alpha virt. eigenvalues --    4.27491   4.81169   4.87259   4.97440   4.98250
 Alpha virt. eigenvalues --    5.01183   5.02408   5.07583   5.08847   5.11101
 Alpha virt. eigenvalues --    5.15149   5.18441   5.27000
          Condensed to atoms (all electrons):
 Mulliken charges:
               1
     1  H   -0.704011
     2  C    1.396155
     3  C    0.349969
     4  C    0.426444
     5  H   -0.386810
     6  N   -0.704258
     7  O   -1.121509
     8  C    0.801125
     9  C    0.370481
    10  C    0.829085
    11  O   -1.230305
    12  C    0.310594
    13  H   -0.059370
    14  H   -0.054890
    15  H   -0.316258
    16  C    0.817118
    17  S    1.678043
    18  H   -0.053244
    19  H   -0.191876
    20  C   -0.076767
    21  O   -1.293280
    22  N   -1.011310
    23  N   -0.782733
    24  C   -0.470473
    25  H   -0.075256
    26  C    0.049914
    27  C    1.368071
    28  C    1.412432
    29  H   -0.642812
    30  C    0.701670
    31  H   -0.528914
    32  C    0.881612
    33  O   -1.179166
    34  H   -0.566966
    35  C    1.792959
    36  F   -0.609420
    37  F   -0.611223
    38  H   -0.140334
    39  H   -0.095616
    40  H   -0.081415
    41  H   -0.197458
 Sum of Mulliken charges =  -0.00000
 Mulliken charges with hydrogens summed into heavy atoms:
               1
     2  C    0.692144
     3  C   -0.036841
     4  C    0.426444
     6  N   -0.704258
     7  O   -1.121509
     8  C    0.801125
     9  C    0.370481
    10  C    0.398567
    11  O   -1.230305
    12  C    0.065474
    16  C    0.442628
    17  S    1.678043
    20  C   -0.076767
    21  O   -1.293280
    22  N   -1.011310
    23  N   -0.857988
    24  C   -0.470473
    26  C    0.049914
    27  C    0.725260
    28  C    0.883518
    30  C    0.701670
    32  C    0.314647
    33  O   -1.179166
    35  C    1.652625
    36  F   -0.609420
    37  F   -0.611223
 Electronic spatial extent (au):  <R**2>=          16805.7361
 Charge=             -0.0000 electrons
 Dipole moment (field-independent basis, Debye):
    X=              7.2444    Y=              2.1438    Z=              1.8547  Tot=              7.7792
 Unable to Open any file for archive entry.
 1\1\GINC-SE177\Stability\RHF\Aug-CC-pVDZ\C16H15F2N3O4S1\OHZDE\08-Apr-2
 025\0\\#t hf aug-cc-pvdz symm=none int=(grid=ultrafine) guess=(read,tc
 heck) stable=(opt,rrhf)\\title\\0,1\H,0,6.77445,-1.80791,-0.37899\C,0,
 5.72725,-1.53553,-0.25583\C,0,4.73431,-2.27561,-0.90317\C,0,5.34002,-0
 .4617,0.55095\H,0,5.01824,-3.11934,-1.53905\N,0,3.42854,-2.02743,-0.80
 033\O,0,6.1838,0.32849,1.25894\C,0,3.95878,-0.16823,0.65813\C,0,3.0521
 5,-0.98741,-0.02911\C,0,7.58022,0.03837,1.17621\O,0,3.50234,0.82363,1.
 48323\C,0,1.58576,-0.71007,0.04644\H,0,7.94848,0.13993,0.14274\H,0,7.7
 9773,-0.97607,1.54668\H,0,8.07437,0.77655,1.81675\C,0,3.76365,2.17049,
 1.03287\S,0,1.05233,0.1662,-1.50796\H,0,0.99476,-1.63639,0.04519\H,0,1
 .31459,-0.05703,0.88377\C,0,-0.66722,0.31909,-0.99501\O,0,1.56562,1.58
 35,-1.46529\N,0,-1.54919,-0.63833,-0.8025\N,0,-1.16111,1.58596,-0.8375
 9\C,0,-2.71612,0.04078,-0.47766\H,0,-0.59145,2.42224,-0.94375\C,0,-2.4
 9392,1.44624,-0.49525\C,0,-3.98608,-0.47403,-0.17668\C,0,-3.51006,2.36
 216,-0.21541\H,0,-4.16858,-1.54678,-0.21369\C,0,-4.98455,0.44935,0.118
 8\H,0,-3.34262,3.43937,-0.23297\C,0,-4.75961,1.84156,0.09938\O,0,-6.29
 157,0.08216,0.43376\H,0,-5.59477,2.49938,0.33869\C,0,-6.48462,-1.15973
 ,0.9868\F,0,-6.59124,-2.12481,0.01036\F,0,-7.67325,-1.12165,1.63763\H,
 0,-5.67886,-1.45742,1.67918\H,0,3.23001,2.35579,0.08826\H,0,4.84268,2.
 34278,0.91061\H,0,3.37522,2.82604,1.82121\\Version=ES64L-G16RevC.01\HF
 =-1673.9029055\RMSD=3.717e-09\Dipole=2.8501557,0.843419,0.7296837\Quad
 rupole=6.6273137,1.6511366,-8.2784503,-11.2252664,0.3837496,-0.193149\
 PG=Unknown\\@
 The archive entry for this job was punched.


 Money is a good servant but a bad master.
                        -- French Proverb
 Job cpu time:       0 days 10 hours 52 minutes 21.0 seconds.
 Elapsed time:       0 days  0 hours 42 minutes  5.8 seconds.
 File lengths (MBytes):  RWF=   2518 Int=      0 D2E=      0 Chk=     70 Scr=      1
 Normal termination of Gaussian 16 at Tue Apr  8 18:01:35 2025.
 Initial command:
 /arc/software/Gaussian/g16.c01/l1.exe "/tmp/slurm/4832415/Gau-1950633.inp" -scrdir="/tmp/slurm/4832415/"
 Entering Link 1 = /arc/software/Gaussian/g16.c01/l1.exe PID=   1951919.
  
 Copyright (c) 1988-2019, Gaussian, Inc.  All Rights Reserved.
  
 This is part of the Gaussian(R) 16 program.  It is based on
 the Gaussian(R) 09 system (copyright 2009, Gaussian, Inc.),
 the Gaussian(R) 03 system (copyright 2003, Gaussian, Inc.),
 the Gaussian(R) 98 system (copyright 1998, Gaussian, Inc.),
 the Gaussian(R) 94 system (copyright 1995, Gaussian, Inc.),
 the Gaussian 92(TM) system (copyright 1992, Gaussian, Inc.),
 the Gaussian 90(TM) system (copyright 1990, Gaussian, Inc.),
 the Gaussian 88(TM) system (copyright 1988, Gaussian, Inc.),
 the Gaussian 86(TM) system (copyright 1986, Carnegie Mellon
 University), and the Gaussian 82(TM) system (copyright 1983,
 Carnegie Mellon University). Gaussian is a federally registered
 trademark of Gaussian, Inc.
  
 This software contains proprietary and confidential information,
 including trade secrets, belonging to Gaussian, Inc.
  
 This software is provided under written license and may be
 used, copied, transmitted, or stored only in accord with that
 written license.
  
 The following legend is applicable only to US Government
 contracts under FAR:
  
                    RESTRICTED RIGHTS LEGEND
  
 Use, reproduction and disclosure by the US Government is
 subject to restrictions as set forth in subparagraphs (a)
 and (c) of the Commercial Computer Software - Restricted
 Rights clause in FAR 52.227-19.
  
 Gaussian, Inc.
 340 Quinnipiac St., Bldg. 40, Wallingford CT 06492
  
  
 ---------------------------------------------------------------
 Warning -- This program may not be used in any manner that
 competes with the business of Gaussian, Inc. or will provide
 assistance to any competitor of Gaussian, Inc.  The licensee
 of this program is prohibited from giving any competitor of
 Gaussian, Inc. access to this program.  By using this program,
 the user acknowledges that Gaussian, Inc. is engaged in the
 business of creating and licensing software in the field of
 computational chemistry and represents and warrants to the
 licensee that it is not a competitor of Gaussian, Inc. and that
 it will not use this program in any manner prohibited above.
 ---------------------------------------------------------------
  

 Cite this work as:
 Gaussian 16, Revision C.01,
 M. J. Frisch, G. W. Trucks, H. B. Schlegel, G. E. Scuseria, 
 M. A. Robb, J. R. Cheeseman, G. Scalmani, V. Barone, 
 G. A. Petersson, H. Nakatsuji, X. Li, M. Caricato, A. V. Marenich, 
 J. Bloino, B. G. Janesko, R. Gomperts, B. Mennucci, H. P. Hratchian, 
 J. V. Ortiz, A. F. Izmaylov, J. L. Sonnenberg, D. Williams-Young, 
 F. Ding, F. Lipparini, F. Egidi, J. Goings, B. Peng, A. Petrone, 
 T. Henderson, D. Ranasinghe, V. G. Zakrzewski, J. Gao, N. Rega, 
 G. Zheng, W. Liang, M. Hada, M. Ehara, K. Toyota, R. Fukuda, 
 J. Hasegawa, M. Ishida, T. Nakajima, Y. Honda, O. Kitao, H. Nakai, 
 T. Vreven, K. Throssell, J. A. Montgomery, Jr., J. E. Peralta, 
 F. Ogliaro, M. J. Bearpark, J. J. Heyd, E. N. Brothers, K. N. Kudin, 
 V. N. Staroverov, T. A. Keith, R. Kobayashi, J. Normand, 
 K. Raghavachari, A. P. Rendell, J. C. Burant, S. S. Iyengar, 
 J. Tomasi, M. Cossi, J. M. Millam, M. Klene, C. Adamo, R. Cammi, 
 J. W. Ochterski, R. L. Martin, K. Morokuma, O. Farkas, 
 J. B. Foresman, and D. J. Fox, Gaussian, Inc., Wallingford CT, 2019.
 
 ******************************************
 Gaussian 16:  ES64L-G16RevC.01  3-Jul-2019
                 8-Apr-2025 
 ******************************************
 %nprocs=16
 Will use up to   16 processors via shared memory.
 %mem=30GB
 %chk=37Conf8_Pantoprazole_2_mol2.chk
 ----------------------------------------------------------------------
 #t hf aug-cc-pvdz iop(5/13=1,5/36=2,99/5=2) pseudo=read geom=check gue
 ss=(read,tcheck) scf=(maxcycle=1)
 ----------------------------------------------------------------------
 -----
 title
 -----
 Structure from the checkpoint file:  "37Conf8_Pantoprazole_2_mol2.chk"
 Charge =  0 Multiplicity = 1
 Z-Matrix found in chk file.
 H,0,6.77445,-1.80791,-0.37899
 C,0,5.72725,-1.53553,-0.25583
 C,0,4.73431,-2.27561,-0.90317
 C,0,5.34002,-0.4617,0.55095
 H,0,5.01824,-3.11934,-1.53905
 N,0,3.42854,-2.02743,-0.80033
 O,0,6.1838,0.32849,1.25894
 C,0,3.95878,-0.16823,0.65813
 C,0,3.05215,-0.98741,-0.02911
 C,0,7.58022,0.03837,1.17621
 O,0,3.50234,0.82363,1.48323
 C,0,1.58576,-0.71007,0.04644
 H,0,7.94848,0.13993,0.14274
 H,0,7.79773,-0.97607,1.54668
 H,0,8.07437,0.77655,1.81675
 C,0,3.76365,2.17049,1.03287
 S,0,1.05233,0.1662,-1.50796
 H,0,0.99476,-1.63639,0.04519
 H,0,1.31459,-0.05703,0.88377
 C,0,-0.66722,0.31909,-0.99501
 O,0,1.56562,1.5835,-1.46529
 N,0,-1.54919,-0.63833,-0.8025
 N,0,-1.16111,1.58596,-0.83759
 C,0,-2.71612,0.04078,-0.47766
 H,0,-0.59145,2.42224,-0.94375
 C,0,-2.49392,1.44624,-0.49525
 C,0,-3.98608,-0.47403,-0.17668
 C,0,-3.51006,2.36216,-0.21541
 H,0,-4.16858,-1.54678,-0.21369
 C,0,-4.98455,0.44935,0.1188
 H,0,-3.34262,3.43937,-0.23297
 C,0,-4.75961,1.84156,0.09938
 O,0,-6.29157,0.08216,0.43376
 H,0,-5.59477,2.49938,0.33869
 C,0,-6.48462,-1.15973,0.9868
 F,0,-6.59124,-2.12481,0.01036
 F,0,-7.67325,-1.12165,1.63763
 H,0,-5.67886,-1.45742,1.67918
 H,0,3.23001,2.35579,0.08826
 H,0,4.84268,2.34278,0.91061
 H,0,3.37522,2.82604,1.82121
 Recover connectivity data from disk.
                    Distance matrix (angstroms):
                    1          2          3          4          5
     1  H    0.000000
     2  C    1.089030   0.000000
     3  C    2.157702   1.397389   0.000000
     4  C    2.175927   1.397838   2.402419   0.000000
     5  H    2.479891   2.158194   1.094002   3.396276   0.000000
     6  N    3.379472   2.412989   1.333118   2.816243   2.065217
     7  O    2.756064   2.444900   3.681994   1.355587   4.590731
     8  C    3.419381   2.415019   2.734987   1.416134   3.828721
     9  C    3.827683   2.740073   2.291965   2.418096   3.269641
    10  C    2.544929   2.821595   4.216341   2.378974   4.889531
    11  O    4.593427   3.679700   4.100969   2.428639   5.194145
    12  C    5.320597   4.233756   3.642258   3.796141   4.483334
    13  H    2.333373   2.810674   4.154473   2.707888   4.694418
    14  H    2.333938   2.801593   4.132204   2.701184   4.673425
    15  H    3.631873   3.892335   5.279171   3.257635   5.981579
    16  C    5.185165   4.387603   4.945527   3.105739   6.014239
    17  S    6.157462   5.130165   4.459281   4.797672   5.150163
    18  H    5.797772   4.743126   3.910527   4.529567   4.571362
    19  H    5.871134   4.791265   4.450813   4.059386   5.381898
    20  C    7.764152   6.698899   5.993115   6.251924   6.666576
    21  O    6.309803   5.339504   5.024869   4.742801   5.834615
    22  N    8.416072   7.351897   6.494089   7.023122   7.058970
    23  N    8.643019   7.584962   7.047837   6.955979   7.798478
    24  C    9.669452   8.592116   7.813810   8.137071   8.422187
    25  H    8.512908   7.487533   7.101772   6.762660   7.907725
    26  C    9.823731   8.748480   8.140385   8.130522   8.852490
    27  C   10.844776   9.771480   8.934130   9.354450   9.483222
    28  C   11.098981  10.026042   9.484280   9.321234  10.224029
    29  H   10.947393   9.895926   8.959243   9.600810   9.414201
    30  C   11.984035  10.900585  10.145249  10.373693  10.748945
    31  H   11.397823  10.344694   9.917004   9.550975  10.706377
    32  C   12.107106  11.022937  10.396668  10.368773  11.086087
    33  O   13.227010  12.146789  11.354140  11.644887  11.918615
    34  H   13.117371  12.034205  11.446949  11.330608  12.154501
    35  C   13.344979  12.280681  11.431604  11.853241  11.938835
    36  F   13.375115  12.335449  11.363334  12.058737  11.754565
    37  F   14.603895  13.539937  12.717501  13.075229  13.234651
    38  H   12.627107  11.569344  10.759743  11.121155  11.293668
    39  H    5.487966   4.636483   4.969479   3.550278   5.985228
    40  H    4.756367   4.145399   4.962970   2.870855   5.988857
    41  H    6.153790   5.373028   5.941061   4.035249   7.024130
                    6          7          8          9         10
     6  N    0.000000
     7  O    4.169222   0.000000
     8  C    2.421752   2.357630   0.000000
     9  C    1.348366   3.632891   1.401903   0.000000
    10  C    5.040901   1.428637   3.664139   4.796711   0.000000
    11  O    3.653578   2.736000   1.368544   2.402022   4.164133
    12  C    2.418325   4.867313   2.509777   1.494297   6.145738
    13  H    5.100656   2.096557   4.034637   5.027373   1.101812
    14  H    5.069875   2.095099   4.022395   5.000377   1.101657
    15  H    6.024545   2.021426   4.378709   5.633955   1.095165
    16  C    4.592979   3.049786   2.376577   3.406812   4.374093
    17  S    3.310457   5.832157   3.640225   2.741732   7.059352
    18  H    2.605974   5.679796   3.364016   2.158599   6.888564
    19  H    3.344765   4.898835   2.656129   2.172112   6.273176
    20  C    4.724331   7.212271   4.936621   4.058771   8.533069
    21  O    4.117215   5.506729   3.647559   3.298782   6.748360
    22  N    5.167920   8.061229   5.717706   4.678923   9.365861
    23  N    5.841478   7.741083   5.614947   5.002743   9.102817
    24  C    6.491414   9.072328   6.774068   5.876335  10.428322
    25  H    5.998371   7.425607   5.475504   5.073273   8.772301
    26  C    6.872772   8.923529   6.750862   6.074441  10.308452
    27  C    7.601222  10.302014   7.994449   7.058471  11.656421
    28  C    8.231330  10.014012   7.934073   7.370002  11.416257
    29  H    7.634881  10.623420   8.289418   7.244716  11.936449
    30  C    8.818125  11.227046   8.980837   8.165458  12.615881
    31  H    8.721032  10.131932   8.192636   7.780169  11.526536
    32  C    9.100789  11.108203   8.964473   8.309222  12.517287
    33  O   10.022669  12.505057  10.255862   9.416121  13.891714
    34  H   10.159208  12.012258   9.924137   9.330713  13.429012
    35  C   10.110266  12.758437  10.495509   9.592276  14.117048
    36  F   10.052994  13.068255  10.749453   9.710314  14.382935
    37  F   11.402361  13.937867  11.712069  10.854964  15.304473
    38  H    9.456089  12.003699   9.776945   8.908967  13.352661
    39  H    4.476787   3.768994   2.688221   3.349984   5.047613
    40  H    4.901616   2.444852   2.673985   3.896054   3.588171
    41  H    5.516474   3.800266   3.264805   4.250936   5.086173
                   11         12         13         14         15
    11  O    0.000000
    12  C    2.844271   0.000000
    13  H    4.693881   6.419967   0.000000
    14  H    4.657609   6.396096   1.799786   0.000000
    15  H    4.584420   6.888113   1.795395   1.794755   0.000000
    16  C    1.444001   3.743511   4.735853   5.141852   4.597809
    17  S    3.921987   1.862406   7.091007   7.492398   7.793284
    18  H    3.795736   1.098795   7.177677   6.997921   7.686454
    19  H    2.433344   1.095954   6.678055   6.581428   6.874586
    20  C    4.876624   2.686951   8.692345   8.932693   9.194056
    21  O    3.608609   2.747034   6.738736   7.379875   7.333947
    22  N    5.734095   3.248655   9.576268   9.643528  10.073493
    23  N    5.264515   3.687622   9.275596   9.618189   9.643379
    24  C    6.567129   4.398253  10.683090  10.755137  11.056236
    25  H    5.020448   3.941077   8.906167   9.387710   9.242570
    26  C    6.344853   4.646169  10.543111  10.768246  10.838938
    27  C    7.779181   5.581299  11.954610  11.919740  12.287887
    28  C    7.377412   5.956051  11.677530  11.921194  11.867723
    29  H    8.206180   5.820668  12.239084  12.108558  12.625782
    30  C    8.604014   6.672216  12.936753  12.940531  13.172907
    31  H    7.526016   6.448632  11.769299  12.114894  11.901245
    32  C    8.438663   6.839396  12.821582  12.950695  12.992099
    33  O    9.877846   7.926536  14.243141  14.172749  14.449051
    34  H    9.320704   7.870578  13.748637  13.888738  13.856341
    35  C   10.194093   8.137414  14.516058  14.294500  14.710615
    36  F   10.618051   8.298561  14.715639  14.516278  15.058587
    37  F   11.344680   9.403752  15.743720  15.471932  15.862622
    38  H    9.462347   7.483253  13.806396  13.485834  13.934162
    39  H    2.089885   3.479196   5.213153   5.838865   5.380474
    40  H    2.105284   4.546890   3.884349   4.489061   3.703780
    41  H    2.034708   4.342355   5.563017   5.838664   5.126640
                   16         17         18         19         20
    16  C    0.000000
    17  S    4.221878   0.000000
    18  H    4.809844   2.380109   0.000000
    19  H    3.313906   2.416399   1.816559   0.000000
    20  C    5.212733   1.800929   2.769133   2.756601   0.000000
    21  O    3.378860   1.507988   3.602100   2.876185   2.608730
    22  N    6.283655   2.812979   2.861186   3.373819   1.315897
    23  N    5.300336   2.713749   3.976256   3.433888   1.368820
    24  C    6.986042   3.908768   4.105716   4.255547   2.131455
    25  H    4.789290   2.847817   4.468394   3.622099   2.105139
    26  C    6.482042   3.903841   4.686744   4.320447   2.203874
    27  C    8.277367   5.250502   5.119480   5.421766   3.509065
    28  C    7.382533   5.225737   6.029073   5.507987   3.586593
    29  H    8.848293   5.645116   5.170602   5.786962   4.043693
    30  C    8.962636   6.258629   6.333078   6.365592   4.460592
    31  H    7.328812   5.626262   6.682333   5.929716   4.180265
    32  C    8.580534   6.258516   6.723976   6.412162   4.501473
    33  O   10.287250   7.596723   7.496333   7.620732   5.807825
    34  H    9.389892   7.282704   7.785412   7.387259   5.550961
    35  C   10.775877   8.049070   7.553473   7.877451   6.321125
    36  F   11.256948   8.122696   7.601787   8.218315   6.486712
    37  F   11.916652   9.364243   8.828093   9.082015   7.621744
    38  H   10.136096   7.622527   6.873075   7.176497   5.951791
    39  H    1.100634   3.476279   4.575554   3.181724   4.528799
    40  H    1.099517   4.995371   5.602610   4.266993   6.171362
    41  H    1.096405   4.853240   5.360421   3.665663   5.527858
                   21         22         23         24         25
    21  O    0.000000
    22  N    3.883022   0.000000
    23  N    2.798048   2.258164   0.000000
    24  C    4.657112   1.388682   2.221528   0.000000
    25  H    2.372433   3.210032   1.017422   3.225339   0.000000
    26  C    4.176085   2.309188   1.383149   1.423025   2.184747
    27  C    6.059317   2.521325   3.558204   1.403003   4.527724
    28  C    5.284982   3.632165   2.550914   2.467371   3.008716
    29  H    6.651782   2.834287   4.387276   2.167872   5.392770
    30  C    6.833766   3.719347   4.101860   2.380855   4.931596
    31  H    5.390147   4.490923   2.925693   3.464504   3.018062
    32  C    6.520991   4.155724   3.727257   2.784176   4.335766
    33  O    8.221669   4.953545   5.495395   3.690019   6.313864
    34  H    7.440723   5.245403   4.677105   3.872695   5.165638
    35  C    8.851238   5.275597   6.261547   4.217518   7.161493
    36  F    9.080940   5.319082   6.631376   4.465926   7.588377
    37  F   10.114478   6.609988   7.474345   5.513514   8.329140
    38  H    8.462705   4.887107   6.000530   3.959090   6.914714
    39  H    2.404193   5.709550   4.553215   6.405935   3.958916
    40  H    4.118316   7.257945   6.298768   8.022590   5.742363
    41  H    3.952169   6.567764   5.402343   7.081448   4.852064
                   26         27         28         29         30
    26  C    0.000000
    27  C    2.452645   0.000000
    28  C    1.396338   2.876120   0.000000
    29  H    3.441211   1.088792   3.964021   0.000000
    30  C    2.752106   1.391719   2.438167   2.181947   0.000000
    31  H    2.182120   3.966347   1.090287   5.054134   3.429270
    32  C    2.375545   2.456932   1.389781   3.453719   1.410398
    33  O    4.140763   2.448932   3.654671   2.753130   1.393675
    34  H    3.379324   3.419745   2.161451   4.325570   2.150196
    35  C    4.991316   2.840171   4.764140   2.637238   2.364904
    36  F    5.458578   3.089809   5.447710   2.500720   3.036365
    37  F    6.161874   4.160091   5.736100   3.986331   3.464678
    38  H    4.827342   2.697550   4.783551   2.423198   2.559809
    39  H    5.825044   7.755645   6.746910   8.370207   8.432938
    40  H    7.523691   9.330789   8.428319   9.879045  10.039247
    41  H    6.458842   8.310882   7.195143   8.953842   8.856219
                   31         32         33         34         35
    31  H    0.000000
    32  C    2.161322   0.000000
    33  O    4.517930   2.356735   0.000000
    34  H    2.506503   1.089720   2.517443   0.000000
    35  C    5.701905   3.573642   1.373103   3.821121   0.000000
    36  F    6.447700   4.369769   2.267110   4.741718   1.377019
    37  F    6.561738   4.431267   2.192601   4.372549   1.355681
    38  H    5.752642   3.771480   2.072870   4.178546   1.103294
    39  H    6.669093   8.006159   9.795369   8.829500  10.370164
    40  H    8.337231   9.649523  11.371425  10.454280  11.856690
    41  H    7.051610   8.373133  10.143999   9.097543  10.667664
                   36         37         38         39         40
    36  F    0.000000
    37  F    2.196607   0.000000
    38  H    2.015641   2.022884   0.000000
    39  H   10.795314  11.548775   9.820365   0.000000
    40  H   12.308710  13.006896  11.213163   1.810285   0.000000
    41  H   11.274769  11.733995  10.017214   1.801482   1.793369
                   41
    41  H    0.000000
 Framework group  C1[X(C16H15F2N3O4S)]
 Deg. of freedom   117
                         Standard orientation:                         
 ---------------------------------------------------------------------
 Center     Atomic      Atomic             Coordinates (Angstroms)
 Number     Number       Type             X           Y           Z
 ---------------------------------------------------------------------
      1          1           0        6.774449   -1.807912   -0.378991
      2          6           0        5.727249   -1.535532   -0.255831
      3          6           0        4.734309   -2.275612   -0.903171
      4          6           0        5.340020   -0.461702    0.550949
      5          1           0        5.018239   -3.119342   -1.539051
      6          7           0        3.428539   -2.027432   -0.800331
      7          8           0        6.183800    0.328488    1.258939
      8          6           0        3.958780   -0.168232    0.658129
      9          6           0        3.052149   -0.987412   -0.029111
     10          6           0        7.580220    0.038367    1.176209
     11          8           0        3.502340    0.823628    1.483229
     12          6           0        1.585759   -0.710071    0.046439
     13          1           0        7.948480    0.139927    0.142739
     14          1           0        7.797729   -0.976073    1.546679
     15          1           0        8.074370    0.776547    1.816749
     16          6           0        3.763650    2.170488    1.032869
     17         16           0        1.052330    0.166199   -1.507961
     18          1           0        0.994759   -1.636391    0.045189
     19          1           0        1.314590   -0.057031    0.883769
     20          6           0       -0.667220    0.319089   -0.995011
     21          8           0        1.565620    1.583499   -1.465291
     22          7           0       -1.549191   -0.638331   -0.802501
     23          7           0       -1.161110    1.585959   -0.837591
     24          6           0       -2.716120    0.040779   -0.477661
     25          1           0       -0.591450    2.422239   -0.943751
     26          6           0       -2.493920    1.446239   -0.495251
     27          6           0       -3.986081   -0.474030   -0.176681
     28          6           0       -3.510060    2.362160   -0.215411
     29          1           0       -4.168581   -1.546780   -0.213691
     30          6           0       -4.984550    0.449350    0.118799
     31          1           0       -3.342620    3.439370   -0.232971
     32          6           0       -4.759610    1.841560    0.099379
     33          8           0       -6.291570    0.082160    0.433759
     34          1           0       -5.594770    2.499380    0.338689
     35          6           0       -6.484621   -1.159730    0.986799
     36          9           0       -6.591241   -2.124810    0.010359
     37          9           0       -7.673251   -1.121650    1.637629
     38          1           0       -5.678861   -1.457420    1.679179
     39          1           0        3.230010    2.355788    0.088259
     40          1           0        4.842680    2.342778    0.910609
     41          1           0        3.375220    2.826038    1.821209
 ---------------------------------------------------------------------
 Rotational constants (GHZ):           0.5077793           0.0616540           0.0594454
 ======================================================================================================
                                       Pseudopotential Parameters
 ======================================================================================================
  Center     Atomic      Valence      Angular      Power
  Number     Number     Electrons     Momentum     of R      Exponent        Coefficient   SO-Coeffient
 ======================================================================================================
    1          1            1
                                      F and up 
                                                     0        0.0000010       -0.00000699    0.00000000
                                                     2        0.1200000        0.00123686    0.00000000
                                                     2        0.1800000       -0.00752022    0.00000000
                                                     2        0.2600000        0.02503380    0.00000000
                                                     2        0.4000000       -0.08702670    0.00000000
                                                     2        0.6000000        0.30134159    0.00000000
                                                     2        0.8000000       -0.50204959    0.00000000
                                                     2        1.2000000        0.52208372    0.00000000
                                      S - F
                                                     0        0.0000010       -0.01618346    0.00000000
                                                     2        0.1200000       -0.07880581    0.00000000
                                                     2        0.1600000        0.32040539    0.00000000
                                                     2        0.2400000       -0.47500956    0.00000000
                                                     2        0.5000000        0.54013668    0.00000000
                                                     2        1.5000000       -1.40434292    0.00000000
                                                     2        3.0000000        1.46283806    0.00000000
                                      P - F
                                                     0        0.0000010        0.00612970    0.00000000
                                                     2        0.1200000        0.02254406    0.00000000
                                                     2        0.1800000       -0.13874529    0.00000000
                                                     2        0.3000000        0.38299049    0.00000000
                                                     2        0.5000000       -0.57923512    0.00000000
                                                     2        1.0000000        0.63021625    0.00000000
                                                     2        2.0000000       -0.79201034    0.00000000
                                      D - F
                                                     0        0.0000010       -0.00296226    0.00000000
                                                     2        0.1200000       -0.00547344    0.00000000
                                                     2        0.1400000        0.01837884    0.00000000
                                                     2        0.2400000       -0.05565704    0.00000000
                                                     2        0.4000000        0.15376597    0.00000000
                                                     2        0.8000000       -0.32464795    0.00000000
    2          6            6
                                      G and up 
                                                     0        0.0000010       -0.00011185    0.00000000
                                                     2        0.1200000       -0.02301220    0.00000000
                                                     2        0.1400000        0.13317600    0.00000000
                                                     2        0.1600000       -0.19690668    0.00000000
                                                     2        0.2200000        0.23163694    0.00000000
                                                     2        0.3000000       -0.36920489    0.00000000
                                                     2        0.4000000        0.36389709    0.00000000
                                                     2        0.7000000       -0.38862160    0.00000000
                                                     2        1.3000000        0.80803421    0.00000000
                                      S - G
                                                     0        0.0000010        0.00312304    0.00000000
                                                     2        0.1200000       -0.00632892    0.00000000
                                                     2        0.2200000       -0.03780897    0.00000000
                                                     2        0.4000000        0.26269560    0.00000000
                                                     2        0.9000000       -0.28209514    0.00000000
                                                     2        1.5000000       -0.72686737    0.00000000
                                      P - G
                                                     0        0.0000010       -0.01465594    0.00000000
                                                     2        0.1200000        0.07908409    0.00000000
                                                     2        0.1800000       -0.30615861    0.00000000
                                                     2        0.2600000        0.41506950    0.00000000
                                                     2        0.5000000       -0.36252345    0.00000000
                                                     2        0.9000000        0.15124193    0.00000000
                                                     2        3.0000000       -0.80425677    0.00000000
                                      D - G
                                                     0        0.0000010        0.01149631    0.00000000
                                                     2        0.1200000       -0.04713561    0.00000000
                                                     2        0.1600000        0.10865096    0.00000000
                                                     2        0.2800000       -0.15816701    0.00000000
                                                     2        0.7000000        0.65478804    0.00000000
                                                     2        1.3000000       -1.73816624    0.00000000
                                      F - G
                                                     0        0.0000010        0.00481868    0.00000000
                                                     2        0.1200000       -0.04746842    0.00000000
                                                     2        0.1600000        0.09327889    0.00000000
                                                     2        0.4000000       -0.19693326    0.00000000
                                                     2        0.9000000        0.34938253    0.00000000
    3          6            6
                                      G and up 
                                                     0        0.0000010       -0.00011185    0.00000000
                                                     2        0.1200000       -0.02301220    0.00000000
                                                     2        0.1400000        0.13317600    0.00000000
[...]
 SCF Done:  E(RHF) =  -1674.33397891     A.U. after    2 cycles
            NFock=  1  Conv=0.21D-01     -V/T= 2.0003

 **********************************************************************

            Population analysis using the SCF Density.

 **********************************************************************

 Orbital symmetries:
       Occupied  (A) (A) (A) (A) (A) (A) (A) (A) (A) (A) (A) (A)
                 (A) (A) (A) (A) (A) (A) (A) (A) (A) (A) (A) (A)
                 (A) (A) (A) (A) (A) (A) (A) (A) (A) (A) (A) (A)
                 (A) (A) (A) (A) (A) (A) (A) (A) (A) (A) (A) (A)
                 (A) (A) (A) (A) (A) (A) (A) (A) (A) (A) (A) (A)
                 (A) (A) (A) (A) (A) (A) (A) (A) (A) (A) (A) (A)
                 (A) (A) (A) (A) (A) (A) (A) (A) (A) (A) (A) (A)
                 (A) (A) (A) (A) (A) (A) (A) (A) (A) (A) (A) (A)
                 (A) (A) (A)
       Virtual   (A) (A) (A) (A) (A) (A) (A) (A) (A) (A) (A) (A)
                 (A) (A) (A) (A) (A) (A) (A) (A) (A) (A) (A) (A)
                 (A) (A) (A) (A) (A) (A) (A) (A) (A) (A) (A) (A)
                 (A) (A) (A) (A) (A) (A) (A) (A) (A) (A) (A) (A)
                 (A) (A) (A) (A) (A) (A) (A) (A) (A) (A) (A) (A)
                 (A) (A) (A) (A) (A) (A) (A) (A) (A) (A) (A) (A)
                 (A) (A) (A) (A) (A) (A) (A) (A) (A) (A) (A) (A)
                 (A) (A) (A) (A) (A) (A) (A) (A) (A) (A) (A) (A)
                 (A) (A) (A) (A) (A) (A) (A) (A) (A) (A) (A) (A)
                 (A) (A) (A) (A) (A) (A) (A) (A) (A) (A) (A) (A)
                 (A) (A) (A) (A) (A) (A) (A) (A) (A) (A) (A) (A)
                 (A) (A) (A) (A) (A) (A) (A) (A) (A) (A) (A) (A)
                 (A) (A) (A) (A) (A) (A) (A) (A) (A) (A) (A) (A)
                 (A) (A) (A) (A) (A) (A) (A) (A) (A) (A) (A) (A)
                 (A) (A) (A) (A) (A) (A) (A) (A) (A) (A) (A) (A)
                 (A) (A) (A) (A) (A) (A) (A) (A) (A) (A) (A) (A)
                 (A) (A) (A) (A) (A) (A) (A) (A) (A) (A) (A) (A)
                 (A) (A) (A) (A) (A) (A) (A) (A) (A) (A) (A) (A)
                 (A) (A) (A) (A) (A) (A) (A) (A) (A) (A) (A) (A)
                 (A) (A) (A) (A) (A) (A) (A) (A) (A) (A) (A) (A)
                 (A) (A) (A) (A) (A) (A) (A) (A) (A) (A) (A) (A)
                 (A) (A) (A) (A) (A) (A) (A) (A) (A) (A) (A) (A)
                 (A) (A) (A) (A) (A) (A) (A) (A) (A) (A) (A) (A)
                 (A) (A) (A) (A) (A) (A) (A) (A) (A) (A) (A) (A)
                 (A) (A) (A) (A) (A) (A) (A) (A) (A) (A) (A) (A)
                 (A) (A) (A) (A) (A) (A) (A) (A) (A) (A) (A) (A)
                 (A) (A) (A) (A) (A) (A) (A) (A) (A) (A) (A) (A)
                 (A) (A) (A) (A) (A) (A) (A) (A) (A) (A) (A) (A)
                 (A) (A) (A) (A) (A) (A) (A) (A) (A) (A) (A) (A)
                 (A) (A) (A) (A) (A) (A) (A) (A) (A) (A) (A) (A)
                 (A) (A) (A) (A) (A) (A) (A) (A) (A) (A) (A) (A)
                 (A) (A) (A) (A) (A) (A) (A) (A) (A) (A) (A) (A)
                 (A) (A) (A) (A) (A) (A) (A) (A) (A) (A) (A) (A)
                 (A) (A) (A) (A) (A) (A) (A) (A) (A) (A) (A) (A)
                 (A) (A) (A) (A) (A) (A) (A) (A) (A) (A) (A) (A)
                 (A) (A) (A) (A) (A) (A) (A) (A) (A) (A) (A) (A)
                 (A) (A) (A) (A) (A) (A) (A) (A) (A) (A) (A) (A)
                 (A) (A) (A) (A) (A) (A) (A) (A) (A) (A) (A) (A)
                 (A) (A) (A) (A) (A) (A) (A) (A) (A) (A) (A) (A)
                 (A) (A) (A) (A) (A) (A) (A) (A) (A) (A) (A) (A)
                 (A) (A) (A) (A) (A) (A) (A) (A) (A) (A) (A) (A)
                 (A) (A) (A) (A) (A) (A) (A) (A) (A) (A) (A) (A)
                 (A) (A) (A) (A) (A) (A) (A) (A) (A) (A) (A) (A)
                 (A) (A) (A) (A) (A) (A) (A) (A) (A) (A) (A) (A)
                 (A) (A) (A) (A) (A) (A) (A) (A) (A) (A) (A) (A)
                 (A) (A) (A) (A) (A) (A) (A) (A) (A) (A) (A) (A)
                 (A) (A) (A) (A) (A) (A) (A) (A) (A) (A) (A) (A)
                 (A) (A) (A) (A) (A) (A) (A) (A) (A) (A) (A) (A)
                 (A) (A) (A) (A) (A) (A) (A) (A) (A) (A) (A) (A)
                 (A) (A) (A) (A) (A) (A) (A) (A) (A) (A) (A) (A)
                 (A) (A) (A) (A) (A) (A) (A) (A) (A) (A) (A) (A)
                 (A) (A) (A) (A) (A) (A) (A) (A) (A) (A) (A) (A)
                 (A) (A) (A) (A) (A) (A) (A) (A) (A) (A) (A) (A)
                 (A) (A)
 The electronic state is 1-A.
 Alpha  occ. eigenvalues --  -93.68644 -26.14742 -26.14166 -20.63353 -20.62843
 Alpha  occ. eigenvalues --  -20.59678 -20.54610 -15.70226 -15.64259 -15.63875
 Alpha  occ. eigenvalues --  -11.48962 -11.36244 -11.34713 -11.33163 -11.31995
 Alpha  occ. eigenvalues --  -11.31774 -11.30760 -11.30102 -11.30037 -11.29308
 Alpha  occ. eigenvalues --  -11.29249 -11.28677 -11.27455 -11.26355 -11.26355
 Alpha  occ. eigenvalues --  -11.26249  -8.96984  -6.31250  -6.31124  -6.30767
 Alpha  occ. eigenvalues --   -1.71213  -1.66278  -1.40923  -1.40119  -1.35922
 Alpha  occ. eigenvalues --   -1.34364  -1.31591  -1.24105  -1.16769  -1.15005
 Alpha  occ. eigenvalues --   -1.09046  -1.07606  -1.04397  -1.02954  -1.00896
 Alpha  occ. eigenvalues --   -0.98485  -0.97486  -0.93821  -0.91246  -0.87421
 Alpha  occ. eigenvalues --   -0.85981  -0.85288  -0.83608  -0.83391  -0.82179
 Alpha  occ. eigenvalues --   -0.81770  -0.78868  -0.75275  -0.74577  -0.73987
 Alpha  occ. eigenvalues --   -0.73721  -0.71687  -0.70637  -0.70355  -0.70246
 Alpha  occ. eigenvalues --   -0.69042  -0.67761  -0.65830  -0.65372  -0.64988
 Alpha  occ. eigenvalues --   -0.64061  -0.63612  -0.63256  -0.63168  -0.62231
 Alpha  occ. eigenvalues --   -0.61420  -0.60823  -0.59974  -0.58563  -0.58324
 Alpha  occ. eigenvalues --   -0.57550  -0.56018  -0.55785  -0.55113  -0.54157
 Alpha  occ. eigenvalues --   -0.53719  -0.52073  -0.51125  -0.48402  -0.48077
 Alpha  occ. eigenvalues --   -0.47354  -0.45367  -0.44883  -0.42715  -0.41012
 Alpha  occ. eigenvalues --   -0.36855  -0.34617  -0.33383  -0.31721
 Alpha virt. eigenvalues --    0.02404   0.02840   0.03650   0.03917   0.04342
 Alpha virt. eigenvalues --    0.04709   0.05190   0.05545   0.06158   0.06258
 Alpha virt. eigenvalues --    0.06560   0.06992   0.07311   0.07904   0.08205
 Alpha virt. eigenvalues --    0.08630   0.08748   0.09070   0.09586   0.10116
 Alpha virt. eigenvalues --    0.10293   0.10642   0.11033   0.11619   0.11715
 Alpha virt. eigenvalues --    0.12104   0.12533   0.12590   0.12869   0.13383
 Alpha virt. eigenvalues --    0.13728   0.13824   0.14010   0.14283   0.14426
 Alpha virt. eigenvalues --    0.14605   0.14814   0.14971   0.15298   0.15661
 Alpha virt. eigenvalues --    0.15889   0.16220   0.16289   0.16713   0.16828
 Alpha virt. eigenvalues --    0.17133   0.17251   0.17663   0.17800   0.18198
 Alpha virt. eigenvalues --    0.18433   0.18758   0.19000   0.19240   0.19534
 Alpha virt. eigenvalues --    0.19870   0.20125   0.20497   0.20601   0.21167
 Alpha virt. eigenvalues --    0.21425   0.21690   0.21699   0.22002   0.22495
 Alpha virt. eigenvalues --    0.22974   0.23228   0.23569   0.23800   0.24326
 Alpha virt. eigenvalues --    0.24670   0.24851   0.25357   0.25907   0.26137
 Alpha virt. eigenvalues --    0.26285   0.26857   0.27122   0.27238   0.27751
 Alpha virt. eigenvalues --    0.28049   0.28417   0.28882   0.29335   0.29509
 Alpha virt. eigenvalues --    0.29672   0.29908   0.30173   0.30332   0.30568
 Alpha virt. eigenvalues --    0.31124   0.31208   0.31733   0.32181   0.32276
 Alpha virt. eigenvalues --    0.32558   0.32762   0.33062   0.33396   0.33842
 Alpha virt. eigenvalues --    0.34035   0.34226   0.34278   0.34591   0.34793
 Alpha virt. eigenvalues --    0.34958   0.35389   0.35884   0.36234   0.36263
 Alpha virt. eigenvalues --    0.36374   0.36679   0.36813   0.37370   0.37463
 Alpha virt. eigenvalues --    0.37784   0.38066   0.38314   0.38557   0.38805
 Alpha virt. eigenvalues --    0.38911   0.39246   0.39881   0.40083   0.40287
 Alpha virt. eigenvalues --    0.40582   0.40887   0.41051   0.41315   0.41571
 Alpha virt. eigenvalues --    0.41828   0.41957   0.42513   0.42715   0.43181
 Alpha virt. eigenvalues --    0.43316   0.43634   0.43757   0.44040   0.44490
 Alpha virt. eigenvalues --    0.44919   0.44956   0.45290   0.45695   0.45753
 Alpha virt. eigenvalues --    0.46043   0.46512   0.46628   0.47093   0.47703
 Alpha virt. eigenvalues --    0.47839   0.48180   0.48720   0.49064   0.49137
 Alpha virt. eigenvalues --    0.49536   0.49833   0.50239   0.50510   0.51115
 Alpha virt. eigenvalues --    0.51600   0.51742   0.52026   0.52402   0.52854
 Alpha virt. eigenvalues --    0.53382   0.54039   0.54135   0.54635   0.55103
 Alpha virt. eigenvalues --    0.55761   0.56039   0.56158   0.56609   0.56908
 Alpha virt. eigenvalues --    0.56994   0.57415   0.58170   0.58616   0.58744
 Alpha virt. eigenvalues --    0.59136   0.59263   0.59720   0.60167   0.60626
 Alpha virt. eigenvalues --    0.60703   0.60927   0.61343   0.61765   0.62127
 Alpha virt. eigenvalues --    0.62517   0.62809   0.62982   0.63545   0.64201
 Alpha virt. eigenvalues --    0.64433   0.64700   0.65159   0.65437   0.65785
 Alpha virt. eigenvalues --    0.66163   0.66226   0.66383   0.66748   0.67154
 Alpha virt. eigenvalues --    0.67652   0.68462   0.68650   0.68776   0.69322
 Alpha virt. eigenvalues --    0.69467   0.69703   0.70030   0.70581   0.70740
 Alpha virt. eigenvalues --    0.71160   0.71638   0.72006   0.72120   0.72668
 Alpha virt. eigenvalues --    0.73070   0.73458   0.73691   0.73900   0.74279
 Alpha virt. eigenvalues --    0.74665   0.74833   0.74895   0.75224   0.75469
 Alpha virt. eigenvalues --    0.75785   0.76274   0.76733   0.77262   0.77520
 Alpha virt. eigenvalues --    0.77728   0.78445   0.78614   0.79198   0.79718
 Alpha virt. eigenvalues --    0.79764   0.80255   0.81080   0.81469   0.81650
 Alpha virt. eigenvalues --    0.82051   0.82524   0.83040   0.83665   0.83831
 Alpha virt. eigenvalues --    0.84194   0.84492   0.85015   0.85205   0.85835
 Alpha virt. eigenvalues --    0.86004   0.86380   0.86668   0.86996   0.88048
 Alpha virt. eigenvalues --    0.88477   0.88591   0.89330   0.89347   0.89624
 Alpha virt. eigenvalues --    0.90002   0.90203   0.90880   0.90979   0.91542
 Alpha virt. eigenvalues --    0.92382   0.93290   0.93471   0.94099   0.94338
 Alpha virt. eigenvalues --    0.94512   0.94842   0.95458   0.95997   0.96620
 Alpha virt. eigenvalues --    0.96878   0.97185   0.97546   0.98188   0.98512
 Alpha virt. eigenvalues --    0.99297   0.99472   1.00357   1.00652   1.01196
 Alpha virt. eigenvalues --    1.01922   1.02175   1.02647   1.03357   1.03647
 Alpha virt. eigenvalues --    1.03826   1.04659   1.04820   1.05214   1.06240
 Alpha virt. eigenvalues --    1.06306   1.07544   1.07610   1.08139   1.08252
 Alpha virt. eigenvalues --    1.09167   1.09892   1.10201   1.10878   1.11129
 Alpha virt. eigenvalues --    1.11935   1.12474   1.12636   1.13496   1.13959
 Alpha virt. eigenvalues --    1.14814   1.15258   1.16092   1.16194   1.17717
 Alpha virt. eigenvalues --    1.18230   1.18714   1.19503   1.19799   1.21023
 Alpha virt. eigenvalues --    1.21592   1.22510   1.22913   1.23240   1.24051
 Alpha virt. eigenvalues --    1.24448   1.25007   1.25875   1.26005   1.27149
 Alpha virt. eigenvalues --    1.28029   1.29121   1.30013   1.30731   1.30930
 Alpha virt. eigenvalues --    1.31234   1.32680   1.33805   1.34314   1.35002
 Alpha virt. eigenvalues --    1.35587   1.36338   1.37560   1.38059   1.40136
 Alpha virt. eigenvalues --    1.40397   1.40652   1.41075   1.41887   1.42837
 Alpha virt. eigenvalues --    1.42929   1.43618   1.44177   1.44406   1.45650
 Alpha virt. eigenvalues --    1.46824   1.47208   1.48279   1.49065   1.49681
 Alpha virt. eigenvalues --    1.49948   1.50825   1.51295   1.51661   1.51951
 Alpha virt. eigenvalues --    1.52633   1.53582   1.54031   1.54133   1.54791
 Alpha virt. eigenvalues --    1.55987   1.56523   1.57457   1.58305   1.58727
 Alpha virt. eigenvalues --    1.59577   1.59987   1.60515   1.61336   1.61659
 Alpha virt. eigenvalues --    1.62067   1.62602   1.63318   1.64070   1.64169
 Alpha virt. eigenvalues --    1.64529   1.65059   1.65482   1.66660   1.66948
 Alpha virt. eigenvalues --    1.67307   1.67711   1.68680   1.69211   1.69798
 Alpha virt. eigenvalues --    1.70103   1.70141   1.71045   1.71496   1.72002
 Alpha virt. eigenvalues --    1.72380   1.73074   1.73293   1.74224   1.74856
 Alpha virt. eigenvalues --    1.75106   1.75583   1.76433   1.76546   1.77326
 Alpha virt. eigenvalues --    1.77696   1.78101   1.79152   1.79260   1.79583
 Alpha virt. eigenvalues --    1.80715   1.81388   1.81568   1.82377   1.83718
 Alpha virt. eigenvalues --    1.83942   1.84657   1.85940   1.86400   1.86909
 Alpha virt. eigenvalues --    1.87363   1.87809   1.88441   1.88910   1.89265
 Alpha virt. eigenvalues --    1.89613   1.90218   1.91150   1.91561   1.92406
 Alpha virt. eigenvalues --    1.93089   1.93321   1.93911   1.94420   1.95168
 Alpha virt. eigenvalues --    1.95495   1.96277   1.96716   1.97088   1.97638
 Alpha virt. eigenvalues --    1.97760   1.98639   1.99229   1.99514   2.00335
 Alpha virt. eigenvalues --    2.00827   2.01647   2.02004   2.04438   2.05412
 Alpha virt. eigenvalues --    2.06133   2.06395   2.07184   2.07700   2.08323
 Alpha virt. eigenvalues --    2.08637   2.09005   2.10168   2.10515   2.11882
 Alpha virt. eigenvalues --    2.12917   2.13734   2.14100   2.14581   2.16609
 Alpha virt. eigenvalues --    2.16792   2.17171   2.17704   2.18549   2.19234
 Alpha virt. eigenvalues --    2.19305   2.20170   2.20339   2.20845   2.21556
 Alpha virt. eigenvalues --    2.22375   2.23274   2.23935   2.24844   2.25139
 Alpha virt. eigenvalues --    2.25498   2.26636   2.27340   2.27694   2.28560
 Alpha virt. eigenvalues --    2.28876   2.29371   2.30489   2.31369   2.31935
 Alpha virt. eigenvalues --    2.32489   2.32641   2.33732   2.34304   2.34959
 Alpha virt. eigenvalues --    2.36094   2.36307   2.36535   2.37380   2.38167
 Alpha virt. eigenvalues --    2.38506   2.39925   2.40234   2.41400   2.43127
 Alpha virt. eigenvalues --    2.43817   2.44164   2.45531   2.46084   2.46514
 Alpha virt. eigenvalues --    2.47895   2.48475   2.49956   2.51275   2.52358
 Alpha virt. eigenvalues --    2.52774   2.53746   2.55422   2.56856   2.57160
 Alpha virt. eigenvalues --    2.59286   2.59673   2.60477   2.61193   2.62341
 Alpha virt. eigenvalues --    2.64075   2.64967   2.66474   2.67292   2.68827
 Alpha virt. eigenvalues --    2.69421   2.70395   2.70705   2.73179   2.73464
 Alpha virt. eigenvalues --    2.74306   2.75400   2.76078   2.76717   2.79483
 Alpha virt. eigenvalues --    2.80115   2.82072   2.82827   2.83905   2.86485
 Alpha virt. eigenvalues --    2.87960   2.90051   2.90506   2.90992   2.91632
 Alpha virt. eigenvalues --    2.92059   2.93154   2.94586   2.95438   2.96619
 Alpha virt. eigenvalues --    2.96737   2.98325   2.99076   3.00510   3.02468
 Alpha virt. eigenvalues --    3.03634   3.05503   3.06082   3.08266   3.09528
 Alpha virt. eigenvalues --    3.10068   3.12165   3.13563   3.16512   3.16845
 Alpha virt. eigenvalues --    3.18815   3.19759   3.20727   3.26121   3.30935
 Alpha virt. eigenvalues --    3.31571   3.34811   3.36486   3.38228   3.40150
 Alpha virt. eigenvalues --    3.41144   3.48534   3.51162   3.51845   3.56604
 Alpha virt. eigenvalues --    3.58209   3.59579   3.62323   3.64417   3.64966
 Alpha virt. eigenvalues --    3.65684   3.66551   3.68634   3.70240   3.70917
 Alpha virt. eigenvalues --    3.71889   3.73435   3.74803   3.76465   3.77272
 Alpha virt. eigenvalues --    3.78075   3.79790   3.80330   3.80978   3.82818
 Alpha virt. eigenvalues --    3.83197   3.86360   3.88047   3.92262   3.95201
 Alpha virt. eigenvalues --    3.98774   4.02115   4.06592   4.12035   4.13975
 Alpha virt. eigenvalues --    4.20659   4.79996   4.87087   4.95766   4.96601
 Alpha virt. eigenvalues --    4.99630   5.00756   5.05751   5.06894   5.09183
 Alpha virt. eigenvalues --    5.13081   5.16190   5.24741
          Condensed to atoms (all electrons):
 Mulliken charges:
               1
     1  H   -0.663289
     2  C    1.375379
     3  C    0.398836
     4  C   -0.168864
     5  H   -0.413820
     6  N   -0.504592
     7  O   -0.700331
     8  C    0.267891
     9  C    0.376003
    10  C    0.850654
    11  O   -0.768274
    12  C    0.365177
    13  H   -0.081756
    14  H   -0.072914
    15  H   -0.317527
    16  C    0.842390
    17  S    1.502333
    18  H   -0.048091
    19  H   -0.186668
    20  C   -0.193638
    21  O   -1.201236
    22  N   -0.840586
    23  N   -0.523927
    24  C   -0.637930
    25  H   -0.041504
    26  C   -0.236846
    27  C    1.371175
    28  C    1.413019
    29  H   -0.624443
    30  C    0.251654
    31  H   -0.542232
    32  C    1.178696
    33  O   -0.777603
    34  H   -0.570041
    35  C    1.143820
    36  F   -0.365286
    37  F   -0.297871
    38  H   -0.157305
    39  H   -0.121171
    40  H   -0.091334
    41  H   -0.187951
 Sum of Mulliken charges =  -0.00000
 Mulliken charges with hydrogens summed into heavy atoms:
               1
     2  C    0.712090
     3  C   -0.014984
     4  C   -0.168864
     6  N   -0.504592
     7  O   -0.700331
     8  C    0.267891
     9  C    0.376003
    10  C    0.378458
    11  O   -0.768274
    12  C    0.130418
    16  C    0.441934
    17  S    1.502333
    20  C   -0.193638
    21  O   -1.201236
    22  N   -0.840586
    23  N   -0.565430
    24  C   -0.637930
    26  C   -0.236846
    27  C    0.746732
    28  C    0.870786
    30  C    0.251654
    32  C    0.608656
    33  O   -0.777603
    35  C    0.986516
    36  F   -0.365286
    37  F   -0.297871
 Electronic spatial extent (au):  <R**2>=          16804.9211
 Charge=              0.0000 electrons
 Dipole moment (field-independent basis, Debye):
    X=              7.4790    Y=              1.9759    Z=              1.7071  Tot=              7.9218

 Test job not archived.
 1\1\GINC-SE177\SP\RHF\Aug-CC-pVDZ\C16H15F2N3O4S1\OHZDE\08-Apr-2025\0\\
 #t hf aug-cc-pvdz iop(5/13=1,5/36=2,99/5=2) pseudo=read geom=check gue
 ss=(read,tcheck) scf=(maxcycle=1)\\title\\0,1\H,0,6.77445,-1.80791,-0.
 37899\C,0,5.72725,-1.53553,-0.25583\C,0,4.73431,-2.27561,-0.90317\C,0,
 5.34002,-0.4617,0.55095\H,0,5.01824,-3.11934,-1.53905\N,0,3.42854,-2.0
 2743,-0.80033\O,0,6.1838,0.32849,1.25894\C,0,3.95878,-0.16823,0.65813\
 C,0,3.05215,-0.98741,-0.02911\C,0,7.58022,0.03837,1.17621\O,0,3.50234,
 0.82363,1.48323\C,0,1.58576,-0.71007,0.04644\H,0,7.94848,0.13993,0.142
 74\H,0,7.79773,-0.97607,1.54668\H,0,8.07437,0.77655,1.81675\C,0,3.7636
 5,2.17049,1.03287\S,0,1.05233,0.1662,-1.50796\H,0,0.99476,-1.63639,0.0
 4519\H,0,1.31459,-0.05703,0.88377\C,0,-0.66722,0.31909,-0.99501\O,0,1.
 56562,1.5835,-1.46529\N,0,-1.54919,-0.63833,-0.8025\N,0,-1.16111,1.585
 96,-0.83759\C,0,-2.71612,0.04078,-0.47766\H,0,-0.59145,2.42224,-0.9437
 5\C,0,-2.49392,1.44624,-0.49525\C,0,-3.98608,-0.47403,-0.17668\C,0,-3.
 51006,2.36216,-0.21541\H,0,-4.16858,-1.54678,-0.21369\C,0,-4.98455,0.4
 4935,0.1188\H,0,-3.34262,3.43937,-0.23297\C,0,-4.75961,1.84156,0.09938
 \O,0,-6.29157,0.08216,0.43376\H,0,-5.59477,2.49938,0.33869\C,0,-6.4846
 2,-1.15973,0.9868\F,0,-6.59124,-2.12481,0.01036\F,0,-7.67325,-1.12165,
 1.63763\H,0,-5.67886,-1.45742,1.67918\H,0,3.23001,2.35579,0.08826\H,0,
 4.84268,2.34278,0.91061\H,0,3.37522,2.82604,1.82121\\Version=ES64L-G16
 RevC.01\State=1-A\HF=-1674.3339789\RMSD=2.123e-02\Dipole=2.9424751,0.7
 773669,0.67164\Quadrupole=4.8798868,2.5875195,-7.4674063,-12.4253764,-
 0.1442522,-0.1550203\PG=C01 [X(C16H15F2N3O4S1)]\\@


 ALL THINGS ARE POSSIBLE EXCEPT SKIING THROUGH A REVOLVING DOOR.
 Job cpu time:       0 days  0 hours 24 minutes 22.3 seconds.
 Elapsed time:       0 days  0 hours  1 minutes 40.3 seconds.
 File lengths (MBytes):  RWF=     77 Int=      0 D2E=      0 Chk=     70 Scr=      1
 Normal termination of Gaussian 16 at Tue Apr  8 18:03:17 2025.
