 Entering Gaussian System, Link 0=g16
 Input=3B-69_20c_maleic_acid_dimerAB_mol1.gjf
 Output=3B-69_20c_maleic_acid_dimerAB_mol1.log
 Initial command:
 /arc/software/Gaussian/g16.c01/l1.exe "/tmp/slurm/4832799/Gau-1425713.inp" -scrdir="/tmp/slurm/4832799/"
 Entering Link 1 = /arc/software/Gaussian/g16.c01/l1.exe PID=   1425714.
  
 Copyright (c) 1988-2019, Gaussian, Inc.  All Rights Reserved.
  
 This is part of the Gaussian(R) 16 program.  It is based on
 the Gaussian(R) 09 system (copyright 2009, Gaussian, Inc.),
 the Gaussian(R) 03 system (copyright 2003, Gaussian, Inc.),
 the Gaussian(R) 98 system (copyright 1998, Gaussian, Inc.),
 the Gaussian(R) 94 system (copyright 1995, Gaussian, Inc.),
 the Gaussian 92(TM) system (copyright 1992, Gaussian, Inc.),
 the Gaussian 90(TM) system (copyright 1990, Gaussian, Inc.),
 the Gaussian 88(TM) system (copyright 1988, Gaussian, Inc.),
 the Gaussian 86(TM) system (copyright 1986, Carnegie Mellon
 University), and the Gaussian 82(TM) system (copyright 1983,
 Carnegie Mellon University). Gaussian is a federally registered
 trademark of Gaussian, Inc.
  
 This software contains proprietary and confidential information,
 including trade secrets, belonging to Gaussian, Inc.
  
 This software is provided under written license and may be
 used, copied, transmitted, or stored only in accord with that
 written license.
  
 The following legend is applicable only to US Government
 contracts under FAR:
  
                    RESTRICTED RIGHTS LEGEND
  
 Use, reproduction and disclosure by the US Government is
 subject to restrictions as set forth in subparagraphs (a)
 and (c) of the Commercial Computer Software - Restricted
 Rights clause in FAR 52.227-19.
  
 Gaussian, Inc.
 340 Quinnipiac St., Bldg. 40, Wallingford CT 06492
  
  
 ---------------------------------------------------------------
 Warning -- This program may not be used in any manner that
 competes with the business of Gaussian, Inc. or will provide
 assistance to any competitor of Gaussian, Inc.  The licensee
 of this program is prohibited from giving any competitor of
 Gaussian, Inc. access to this program.  By using this program,
 the user acknowledges that Gaussian, Inc. is engaged in the
 business of creating and licensing software in the field of
 computational chemistry and represents and warrants to the
 licensee that it is not a competitor of Gaussian, Inc. and that
 it will not use this program in any manner prohibited above.
 ---------------------------------------------------------------
  

 Cite this work as:
 Gaussian 16, Revision C.01,
 M. J. Frisch, G. W. Trucks, H. B. Schlegel, G. E. Scuseria, 
 M. A. Robb, J. R. Cheeseman, G. Scalmani, V. Barone, 
 G. A. Petersson, H. Nakatsuji, X. Li, M. Caricato, A. V. Marenich, 
 J. Bloino, B. G. Janesko, R. Gomperts, B. Mennucci, H. P. Hratchian, 
 J. V. Ortiz, A. F. Izmaylov, J. L. Sonnenberg, D. Williams-Young, 
 F. Ding, F. Lipparini, F. Egidi, J. Goings, B. Peng, A. Petrone, 
 T. Henderson, D. Ranasinghe, V. G. Zakrzewski, J. Gao, N. Rega, 
 G. Zheng, W. Liang, M. Hada, M. Ehara, K. Toyota, R. Fukuda, 
 J. Hasegawa, M. Ishida, T. Nakajima, Y. Honda, O. Kitao, H. Nakai, 
 T. Vreven, K. Throssell, J. A. Montgomery, Jr., J. E. Peralta, 
 F. Ogliaro, M. J. Bearpark, J. J. Heyd, E. N. Brothers, K. N. Kudin, 
 V. N. Staroverov, T. A. Keith, R. Kobayashi, J. Normand, 
 K. Raghavachari, A. P. Rendell, J. C. Burant, S. S. Iyengar, 
 J. Tomasi, M. Cossi, J. M. Millam, M. Klene, C. Adamo, R. Cammi, 
 J. W. Ochterski, R. L. Martin, K. Morokuma, O. Farkas, 
 J. B. Foresman, and D. J. Fox, Gaussian, Inc., Wallingford CT, 2019.
 
 ******************************************
 Gaussian 16:  ES64L-G16RevC.01  3-Jul-2019
                 8-Apr-2025 
 ******************************************
 %nprocs=16
 Will use up to   16 processors via shared memory.
 %mem=30GB
 %chk=3B-69_20c_maleic_acid_dimerAB_mol1.chk
 ----------------------------------------------------------------------
 #t hf aug-cc-pvdz symm=none int=(grid=ultrafine) guess=(read,tcheck) s
 table=(opt,rrhf)
 ----------------------------------------------------------------------
 -----
 title
 -----
 Symbolic Z-matrix:
 Charge =  0 Multiplicity = 1
 C                    -1.64755   10.84574   6.2032 
 O                    -2.15126   10.13543   5.22031 
 H                    -2.04431   9.13617   5.37317 
 O                    -1.75162   12.06825   6.16272 
 C                    -0.9558    10.2072   7.36028 
 H                    -0.55995   10.94655   8.04409 
 C                    -0.75253   8.924     7.68177 
 H                    -0.20686   8.72006   8.5947 
 C                    -1.19245   7.71406   6.9453 
 O                    -0.82451   6.60628   7.53547 
 H                    -1.17735   5.79748   7.04902 
 O                    -1.8425    7.7291    5.89732 
 C                     2.04575   10.84574   6.2032 
 O                     1.54204   10.13543   5.22031 
 H                     1.64899   9.13617   5.37317 
 O                     1.94168   12.06825   6.16272 
 C                     2.7375    10.2072   7.36028 
 H                     3.13335   10.94655   8.04409 
 C                     2.94077   8.924     7.68177 
 H                     3.48644   8.72006   8.5947 
 C                     2.50085   7.71406   6.9453 
 O                     2.86879   6.60628   7.53547 
 H                     2.51595   5.79748   7.04902 
 O                     1.8508    7.7291    5.89732 
 
                    Distance matrix (angstroms):
                    1          2          3          4          5
     1  C    0.000000
     2  O    1.313134   0.000000
     3  H    1.941392   1.016529   0.000000
     4  O    1.227600   2.187150   3.050601   0.000000
     5  C    1.491668   2.452287   2.506108   2.351799   0.000000
     6  H    2.140543   3.341242   3.551710   2.493561   1.082096
     7  C    2.584635   3.079418   2.653939   3.632083   1.338395
     8  H    3.509045   4.143728   3.731980   4.417149   2.072758
     9  C    3.250423   3.123771   2.284660   4.459157   2.538500
    10  O    4.519444   4.424381   3.544547   5.707636   3.607576
    11  H    5.140175   4.807338   3.834964   6.359076   4.426241
    12  O    3.137673   2.518751   1.515027   4.348207   3.011221
    13  C    3.693300   4.368692   4.510009   3.989503   3.279607
    14  O    3.412346   3.693300   3.726101   3.933457   3.289951
    15  H    3.805096   3.932399   3.693300   4.559011   3.446826
    16  O    3.791938   4.623430   5.010855   3.693300   3.645961
    17  C    4.579875   5.337095   5.287861   5.004979   3.693300
    18  H    5.124072   6.046385   6.100783   5.353569   4.211342
    19  C    5.189605   5.784043   5.497796   5.849133   4.115002
    20  H    6.049439   6.721122   6.414102   6.675492   4.844474
    21  C    5.250464   5.520937   5.015227   6.136356   4.282100
    22  O    6.336032   6.558639   5.934177   7.284621   5.255931
    23  H    6.598109   6.629089   5.895024   7.636764   5.620991
    24  O    4.695261   4.718609   4.174507   5.645888   4.019729
                    6          7          8          9         10
     6  H    0.000000
     7  C    2.063752   0.000000
     8  H    2.320582   1.082952   0.000000
     9  C    3.472230   1.483197   2.168860   0.000000
    10  O    4.377972   2.323448   2.443674   1.307998   0.000000
    11  H    5.280552   3.218065   3.445640   1.919441   1.007608
    12  O    4.074985   2.408334   3.306533   1.233306   2.231715
    13  C    3.191968   3.702650   3.913057   4.565529   5.290215
    14  O    3.612472   3.576507   4.055664   4.039316   4.838953
    15  H    3.910328   3.337956   3.741066   3.545104   4.146578
    16  O    3.325043   4.410514   4.662740   5.421643   6.274507
    17  C    3.447809   3.732331   3.522024   4.672527   5.068069
    18  H    3.693300   4.395688   4.051844   5.510800   5.895878
    19  C    4.059188   3.693300   3.283685   4.369196   4.423868
    20  H    4.651204   4.340957   3.693300   5.062076   4.916747
    21  C    4.585279   3.548352   3.326292   3.693300   3.554366
    22  O    5.554533   4.301993   3.879383   4.250780   3.693300
    23  H    6.079815   4.567099   4.283016   4.175673   3.471233
    24  O    4.557659   3.374813   3.534373   3.218675   3.331902
                   11         12         13         14         15
    11  H    0.000000
    12  O    2.345205   0.000000
    13  C    6.048858   4.992538   0.000000
    14  O    5.436644   4.207597   1.313134   0.000000
    15  H    4.684391   3.800663   1.941392   1.016529   0.000000
    16  O    7.059494   5.763564   1.227600   2.187150   3.050601
    17  C    5.904965   5.409031   1.491668   2.452287   2.506108
    18  H    6.788611   6.302354   2.140543   3.341242   3.551710
    19  C    5.209071   5.243254   2.584635   3.079418   2.653939
    20  H    5.716780   6.054375   3.509045   4.143728   3.731980
    21  C    4.148879   4.468014   3.250423   3.123771   2.284660
    22  O    4.154759   5.112774   4.519444   4.424381   3.544547
    23  H    3.693300   4.904448   5.140175   4.807338   3.834964
    24  O    3.771908   3.693300   3.137673   2.518751   1.515027
                   16         17         18         19         20
    16  O    0.000000
    17  C    2.351799   0.000000
    18  H    2.493561   1.082096   0.000000
    19  C    3.632083   1.338395   2.063752   0.000000
    20  H    4.417149   2.072758   2.320582   1.082952   0.000000
    21  C    4.459157   2.538500   3.472230   1.483197   2.168860
    22  O    5.707636   3.607576   4.377972   2.323448   2.443674
    23  H    6.359076   4.426241   5.280552   3.218065   3.445640
    24  O    4.348207   3.011221   4.074985   2.408334   3.306533
                   21         22         23         24
    21  C    0.000000
    22  O    1.307998   0.000000
    23  H    1.919441   1.007608   0.000000
    24  O    1.233306   2.231715   2.345205   0.000000
 Symmetry turned off by external request.
 Rotational constants (GHZ):           0.6046555           0.4706273           0.3073336
   440 basis functions,   776 primitive gaussians,   472 cartesian basis functions
    60 alpha electrons       60 beta electrons
       nuclear repulsion energy      1147.1253350904 Hartrees.
 NAtoms=   24 NActive=   24 NUniq=   24 SFac= 1.00D+00 NAtFMM=   60 NAOKFM=F Big=F
 ExpMin= 2.97D-02 ExpMax= 1.17D+04 ExpMxC= 4.01D+02 IAcc=3 IRadAn=         5 AccDes= 0.00D+00
 Harris functional with IExCor=  205 and IRadAn=       5 diagonalized for initial guess.
 HarFok:  IExCor=  205 AccDes= 0.00D+00 IRadAn=         5 IDoV= 1 UseB2=F ITyADJ=14
 ICtDFT=  3500011 ScaDFX=  1.000000  1.000000  1.000000  1.000000
 FoFCou: FMM=F IPFlag=           0 FMFlag=      100000 FMFlg1=           0
         NFxFlg=           0 DoJE=T BraDBF=F KetDBF=T FulRan=T
         wScrn=  0.000000 ICntrl=       500 IOpCl=  0 I1Cent=   200000004 NGrid=           0
         NMat0=    1 NMatS0=      1 NMatT0=    0 NMatD0=    1 NMtDS0=    0 NMtDT0=    0
 Symmetry not used in FoFCou.
 SCF Done:  E(RHF) =  -906.647118800     A.U. after   15 cycles
            NFock= 15  Conv=0.55D-08     -V/T= 2.0014

 **********************************************************************

            Population analysis using the SCF Density.

 **********************************************************************

 Alpha  occ. eigenvalues --  -20.69113 -20.68156 -20.62125 -20.60564 -20.60126
 Alpha  occ. eigenvalues --  -20.58259 -20.55474 -20.53571 -11.46770 -11.45358
 Alpha  occ. eigenvalues --  -11.40246 -11.38500 -11.32388 -11.31535 -11.30992
 Alpha  occ. eigenvalues --  -11.30115  -1.54029  -1.52878  -1.46227  -1.44349
 Alpha  occ. eigenvalues --   -1.42625  -1.41124  -1.34964  -1.33067  -1.14198
 Alpha  occ. eigenvalues --   -1.12798  -0.98761  -0.97463  -0.88787  -0.87383
 Alpha  occ. eigenvalues --   -0.82492  -0.80872  -0.79727  -0.78370  -0.76963
 Alpha  occ. eigenvalues --   -0.75486  -0.70650  -0.69330  -0.68685  -0.68075
 Alpha  occ. eigenvalues --   -0.67811  -0.66968  -0.63992  -0.63140  -0.62336
 Alpha  occ. eigenvalues --   -0.61190  -0.60512  -0.59775  -0.58915  -0.57262
 Alpha  occ. eigenvalues --   -0.55019  -0.53572  -0.50038  -0.48458  -0.47455
 Alpha  occ. eigenvalues --   -0.46027  -0.45530  -0.44205  -0.43775  -0.41836
 Alpha virt. eigenvalues --    0.00604   0.01272   0.02192   0.02977   0.03147
 Alpha virt. eigenvalues --    0.04300   0.05021   0.06004   0.06856   0.07664
 Alpha virt. eigenvalues --    0.08492   0.08892   0.10451   0.10737   0.10825
 Alpha virt. eigenvalues --    0.11749   0.12048   0.12181   0.13234   0.13542
 Alpha virt. eigenvalues --    0.13593   0.14509   0.14551   0.15411   0.15469
 Alpha virt. eigenvalues --    0.15930   0.16029   0.16414   0.16810   0.17634
 Alpha virt. eigenvalues --    0.18069   0.18767   0.18965   0.19064   0.19482
 Alpha virt. eigenvalues --    0.20850   0.21536   0.21962   0.22110   0.22664
 Alpha virt. eigenvalues --    0.23402   0.24032   0.24824   0.26057   0.26770
 Alpha virt. eigenvalues --    0.27051   0.27345   0.27683   0.28206   0.28696
 Alpha virt. eigenvalues --    0.28814   0.29641   0.29785   0.30496   0.30608
 Alpha virt. eigenvalues --    0.30918   0.31471   0.31922   0.32361   0.32611
 Alpha virt. eigenvalues --    0.33327   0.33664   0.34360   0.34838   0.35043
 Alpha virt. eigenvalues --    0.35526   0.36247   0.36466   0.36926   0.37356
 Alpha virt. eigenvalues --    0.38544   0.38824   0.39298   0.39719   0.40055
 Alpha virt. eigenvalues --    0.40216   0.40983   0.41581   0.42243   0.42822
 Alpha virt. eigenvalues --    0.43198   0.43601   0.44116   0.44323   0.45171
 Alpha virt. eigenvalues --    0.45599   0.46845   0.47368   0.48267   0.48837
 Alpha virt. eigenvalues --    0.49542   0.49633   0.50562   0.50915   0.51399
 Alpha virt. eigenvalues --    0.51904   0.52755   0.53019   0.53596   0.54043
 Alpha virt. eigenvalues --    0.54844   0.55385   0.56718   0.56934   0.57503
 Alpha virt. eigenvalues --    0.58332   0.58534   0.59322   0.60491   0.60659
 Alpha virt. eigenvalues --    0.61245   0.61484   0.61940   0.62640   0.63664
 Alpha virt. eigenvalues --    0.63863   0.64675   0.64882   0.66221   0.66644
 Alpha virt. eigenvalues --    0.67637   0.68067   0.68313   0.69259   0.70123
 Alpha virt. eigenvalues --    0.71224   0.71450   0.71890   0.73126   0.73989
 Alpha virt. eigenvalues --    0.74737   0.76133   0.76480   0.77738   0.78104
 Alpha virt. eigenvalues --    0.80074   0.80417   0.81494   0.81778   0.82190
 Alpha virt. eigenvalues --    0.82446   0.82979   0.84569   0.85276   0.86274
 Alpha virt. eigenvalues --    0.86848   0.87587   0.88233   0.89444   0.89895
 Alpha virt. eigenvalues --    0.91427   0.91874   0.92292   0.92568   0.93176
 Alpha virt. eigenvalues --    0.93795   0.94718   0.95363   0.95651   0.96037
 Alpha virt. eigenvalues --    0.96222   0.96857   0.97920   0.99308   0.99925
 Alpha virt. eigenvalues --    1.00567   1.01538   1.02976   1.03844   1.04985
 Alpha virt. eigenvalues --    1.06603   1.06827   1.08875   1.09083   1.09982
 Alpha virt. eigenvalues --    1.10761   1.12192   1.13180   1.14736   1.15107
 Alpha virt. eigenvalues --    1.16508   1.17064   1.17635   1.19674   1.19877
 Alpha virt. eigenvalues --    1.20314   1.21595   1.22260   1.23176   1.23374
 Alpha virt. eigenvalues --    1.24448   1.25783   1.26503   1.27368   1.28236
 Alpha virt. eigenvalues --    1.28775   1.29451   1.31286   1.32057   1.32111
 Alpha virt. eigenvalues --    1.33768   1.34969   1.35975   1.38063   1.38660
 Alpha virt. eigenvalues --    1.39042   1.39852   1.41039   1.42354   1.43490
 Alpha virt. eigenvalues --    1.44322   1.45794   1.46262   1.48977   1.50026
 Alpha virt. eigenvalues --    1.50948   1.52701   1.53946   1.54500   1.55285
 Alpha virt. eigenvalues --    1.56148   1.57213   1.58309   1.59411   1.60619
 Alpha virt. eigenvalues --    1.61592   1.62637   1.62902   1.64250   1.64945
 Alpha virt. eigenvalues --    1.66043   1.67638   1.68862   1.69517   1.70562
 Alpha virt. eigenvalues --    1.72277   1.73221   1.74087   1.74712   1.76001
 Alpha virt. eigenvalues --    1.77823   1.79024   1.80011   1.81444   1.82708
 Alpha virt. eigenvalues --    1.83097   1.85192   1.86078   1.88527   1.88796
 Alpha virt. eigenvalues --    1.89455   1.91011   1.91728   1.92282   1.93291
 Alpha virt. eigenvalues --    1.94789   1.95453   1.96035   1.98108   1.99734
 Alpha virt. eigenvalues --    2.00295   2.01718   2.04092   2.04314   2.06541
 Alpha virt. eigenvalues --    2.07113   2.08235   2.08905   2.10564   2.11696
 Alpha virt. eigenvalues --    2.12760   2.13260   2.14599   2.15584   2.16350
 Alpha virt. eigenvalues --    2.16992   2.17377   2.17792   2.18630   2.20053
 Alpha virt. eigenvalues --    2.21734   2.23064   2.24474   2.25978   2.26694
 Alpha virt. eigenvalues --    2.29607   2.30269   2.31622   2.32693   2.34614
 Alpha virt. eigenvalues --    2.35238   2.35818   2.37682   2.39098   2.40740
 Alpha virt. eigenvalues --    2.42265   2.43151   2.43943   2.45623   2.47226
 Alpha virt. eigenvalues --    2.48476   2.48955   2.49481   2.50702   2.52018
 Alpha virt. eigenvalues --    2.54744   2.59647   2.61584   2.67811   2.69965
 Alpha virt. eigenvalues --    2.77024   2.79282   2.83341   2.83978   2.86049
 Alpha virt. eigenvalues --    2.88357   2.89394   2.91645   2.93966   2.97589
 Alpha virt. eigenvalues --    2.98884   3.00747   3.08950   3.10718   3.15458
 Alpha virt. eigenvalues --    3.17540   3.19892   3.22453   3.24172   3.27362
 Alpha virt. eigenvalues --    3.30909   3.32034   3.34068   3.39077   3.45636
 Alpha virt. eigenvalues --    3.47032   3.48232   3.55186   3.65198   3.66167
 Alpha virt. eigenvalues --    3.67189   3.69756   3.71814   3.73786   3.74201
 Alpha virt. eigenvalues --    3.74947   3.75316   3.76093   3.77419   3.78530
 Alpha virt. eigenvalues --    3.79529   3.79978   3.81692   3.82681   3.83801
 Alpha virt. eigenvalues --    3.84792   3.85608   3.86417   3.87814   3.88240
 Alpha virt. eigenvalues --    3.89707   3.91661   3.92575   3.94953   3.99609
 Alpha virt. eigenvalues --    4.00571   4.01826   4.02938   4.11223   4.11637
 Alpha virt. eigenvalues --    4.15037   4.16003   4.16528   4.17813   4.24923
 Alpha virt. eigenvalues --    4.26453   4.40784   4.44941   4.59756   4.61297
          Condensed to atoms (all electrons):
 Mulliken charges:
               1
     1  C    1.004377
     2  O   -0.771130
     3  H    0.431510
     4  O   -0.765549
     5  C    0.715757
     6  H   -0.570423
     7  C    0.992880
     8  H   -0.594099
     9  C    1.102306
    10  O   -0.875607
    11  H    0.323214
    12  O   -1.013398
    13  C    1.055472
    14  O   -0.772361
    15  H    0.488498
    16  O   -0.788394
    17  C    0.591225
    18  H   -0.495476
    19  C    0.739486
    20  H   -0.470609
    21  C    1.148001
    22  O   -0.831007
    23  H    0.309876
    24  O   -0.954548
 Sum of Mulliken charges =  -0.00000
 Mulliken charges with hydrogens summed into heavy atoms:
               1
     1  C    1.004377
     2  O   -0.339619
     4  O   -0.765549
     5  C    0.145334
     7  C    0.398781
     9  C    1.102306
    10  O   -0.552394
    12  O   -1.013398
    13  C    1.055472
    14  O   -0.283863
    16  O   -0.788394
    17  C    0.095749
    19  C    0.268877
    21  C    1.148001
    22  O   -0.521132
    24  O   -0.954548
 Electronic spatial extent (au):  <R**2>=          58838.1292
 Charge=             -0.0000 electrons
 Dipole moment (field-independent basis, Debye):
    X=              4.5860    Y=            -11.0299    Z=              6.6394  Tot=             13.6664
 NROrb=    440 NOA=    60 NOB=    60 NVA=   380 NVB=   380

 **** Warning!!: The largest alpha MO coefficient is  0.61556335D+02

    12 initial guesses have been made.
 Iteration     1 Dimension    12 NMult     0 NNew     12
 New state      1 was old state      8
 Iteration     2 Dimension    24 NMult    12 NNew     12
 Iteration     3 Dimension    27 NMult    24 NNew      3
 Iteration     4 Dimension    30 NMult    27 NNew      3
 Iteration     5 Dimension    33 NMult    30 NNew      3
 Iteration     6 Dimension    36 NMult    33 NNew      3
 Iteration     7 Dimension    39 NMult    36 NNew      3
 Iteration     8 Dimension    42 NMult    39 NNew      3
 Iteration     9 Dimension    45 NMult    42 NNew      3
 ***********************************************************************
 Stability analysis using <AA,BB:AA,BB> singles matrix:
 ***********************************************************************
 Ground to excited state transition densities written to RWF  633

 Eigenvectors of the stability matrix:
 
 Excited state symmetry could not be determined.
 Eigenvector   1:      Singlet-?Sym  Eigenvalue= 0.1936357  <S**2>=0.000
      56 -> 62         0.51191
      56 -> 84         0.11893
      56 -> 87        -0.11145
      56 -> 90        -0.14221
      57 -> 62        -0.23108
 The wavefunction is stable under the perturbations considered.
 The wavefunction is already stable.

 **********************************************************************

            Population analysis using the SCF Density.

 **********************************************************************

 Alpha  occ. eigenvalues --  -20.69113 -20.68156 -20.62125 -20.60564 -20.60126
 Alpha  occ. eigenvalues --  -20.58259 -20.55474 -20.53571 -11.46770 -11.45358
 Alpha  occ. eigenvalues --  -11.40246 -11.38500 -11.32388 -11.31535 -11.30992
 Alpha  occ. eigenvalues --  -11.30115  -1.54029  -1.52878  -1.46227  -1.44349
 Alpha  occ. eigenvalues --   -1.42625  -1.41124  -1.34964  -1.33067  -1.14198
 Alpha  occ. eigenvalues --   -1.12798  -0.98761  -0.97463  -0.88787  -0.87383
 Alpha  occ. eigenvalues --   -0.82492  -0.80872  -0.79727  -0.78370  -0.76963
 Alpha  occ. eigenvalues --   -0.75486  -0.70650  -0.69330  -0.68685  -0.68075
 Alpha  occ. eigenvalues --   -0.67811  -0.66968  -0.63992  -0.63140  -0.62336
 Alpha  occ. eigenvalues --   -0.61190  -0.60512  -0.59775  -0.58915  -0.57262
 Alpha  occ. eigenvalues --   -0.55019  -0.53572  -0.50038  -0.48458  -0.47455
 Alpha  occ. eigenvalues --   -0.46027  -0.45530  -0.44205  -0.43775  -0.41836
 Alpha virt. eigenvalues --    0.00604   0.01272   0.02192   0.02977   0.03147
 Alpha virt. eigenvalues --    0.04300   0.05021   0.06004   0.06856   0.07664
 Alpha virt. eigenvalues --    0.08492   0.08892   0.10451   0.10737   0.10825
 Alpha virt. eigenvalues --    0.11749   0.12048   0.12181   0.13234   0.13542
 Alpha virt. eigenvalues --    0.13593   0.14509   0.14551   0.15411   0.15469
 Alpha virt. eigenvalues --    0.15930   0.16029   0.16414   0.16810   0.17634
 Alpha virt. eigenvalues --    0.18069   0.18767   0.18965   0.19064   0.19482
 Alpha virt. eigenvalues --    0.20850   0.21536   0.21962   0.22110   0.22664
 Alpha virt. eigenvalues --    0.23402   0.24032   0.24824   0.26057   0.26770
 Alpha virt. eigenvalues --    0.27051   0.27345   0.27683   0.28206   0.28696
 Alpha virt. eigenvalues --    0.28814   0.29641   0.29785   0.30496   0.30608
 Alpha virt. eigenvalues --    0.30918   0.31471   0.31922   0.32361   0.32611
 Alpha virt. eigenvalues --    0.33327   0.33664   0.34360   0.34838   0.35043
 Alpha virt. eigenvalues --    0.35526   0.36247   0.36466   0.36926   0.37356
 Alpha virt. eigenvalues --    0.38544   0.38824   0.39298   0.39719   0.40055
 Alpha virt. eigenvalues --    0.40216   0.40983   0.41581   0.42243   0.42822
 Alpha virt. eigenvalues --    0.43198   0.43601   0.44116   0.44323   0.45171
 Alpha virt. eigenvalues --    0.45599   0.46845   0.47368   0.48267   0.48837
 Alpha virt. eigenvalues --    0.49542   0.49633   0.50562   0.50915   0.51399
 Alpha virt. eigenvalues --    0.51904   0.52755   0.53019   0.53596   0.54043
 Alpha virt. eigenvalues --    0.54844   0.55385   0.56718   0.56934   0.57503
 Alpha virt. eigenvalues --    0.58332   0.58534   0.59322   0.60491   0.60659
 Alpha virt. eigenvalues --    0.61245   0.61484   0.61940   0.62640   0.63664
 Alpha virt. eigenvalues --    0.63863   0.64675   0.64882   0.66221   0.66644
 Alpha virt. eigenvalues --    0.67637   0.68067   0.68313   0.69259   0.70123
 Alpha virt. eigenvalues --    0.71224   0.71450   0.71890   0.73126   0.73989
 Alpha virt. eigenvalues --    0.74737   0.76133   0.76480   0.77738   0.78104
 Alpha virt. eigenvalues --    0.80074   0.80417   0.81494   0.81778   0.82190
 Alpha virt. eigenvalues --    0.82446   0.82979   0.84569   0.85276   0.86274
 Alpha virt. eigenvalues --    0.86848   0.87587   0.88233   0.89444   0.89895
 Alpha virt. eigenvalues --    0.91427   0.91874   0.92292   0.92568   0.93176
 Alpha virt. eigenvalues --    0.93795   0.94718   0.95363   0.95651   0.96037
 Alpha virt. eigenvalues --    0.96222   0.96857   0.97920   0.99308   0.99925
 Alpha virt. eigenvalues --    1.00567   1.01538   1.02976   1.03844   1.04985
 Alpha virt. eigenvalues --    1.06603   1.06827   1.08875   1.09083   1.09982
 Alpha virt. eigenvalues --    1.10761   1.12192   1.13180   1.14736   1.15107
 Alpha virt. eigenvalues --    1.16508   1.17064   1.17635   1.19674   1.19877
 Alpha virt. eigenvalues --    1.20314   1.21595   1.22260   1.23176   1.23374
 Alpha virt. eigenvalues --    1.24448   1.25783   1.26503   1.27368   1.28236
 Alpha virt. eigenvalues --    1.28775   1.29451   1.31286   1.32057   1.32111
 Alpha virt. eigenvalues --    1.33768   1.34969   1.35975   1.38063   1.38660
 Alpha virt. eigenvalues --    1.39042   1.39852   1.41039   1.42354   1.43490
 Alpha virt. eigenvalues --    1.44322   1.45794   1.46262   1.48977   1.50026
 Alpha virt. eigenvalues --    1.50948   1.52701   1.53946   1.54500   1.55285
 Alpha virt. eigenvalues --    1.56148   1.57213   1.58309   1.59411   1.60619
 Alpha virt. eigenvalues --    1.61592   1.62637   1.62902   1.64250   1.64945
 Alpha virt. eigenvalues --    1.66043   1.67638   1.68862   1.69517   1.70562
 Alpha virt. eigenvalues --    1.72277   1.73221   1.74087   1.74712   1.76001
 Alpha virt. eigenvalues --    1.77823   1.79024   1.80011   1.81444   1.82708
 Alpha virt. eigenvalues --    1.83097   1.85192   1.86078   1.88527   1.88796
 Alpha virt. eigenvalues --    1.89455   1.91011   1.91728   1.92282   1.93291
 Alpha virt. eigenvalues --    1.94789   1.95453   1.96035   1.98108   1.99734
 Alpha virt. eigenvalues --    2.00295   2.01718   2.04092   2.04314   2.06541
 Alpha virt. eigenvalues --    2.07113   2.08235   2.08905   2.10564   2.11696
 Alpha virt. eigenvalues --    2.12760   2.13260   2.14599   2.15584   2.16350
 Alpha virt. eigenvalues --    2.16992   2.17377   2.17792   2.18630   2.20053
 Alpha virt. eigenvalues --    2.21734   2.23064   2.24474   2.25978   2.26694
 Alpha virt. eigenvalues --    2.29607   2.30269   2.31622   2.32693   2.34614
 Alpha virt. eigenvalues --    2.35238   2.35818   2.37682   2.39098   2.40740
 Alpha virt. eigenvalues --    2.42265   2.43151   2.43943   2.45623   2.47226
 Alpha virt. eigenvalues --    2.48476   2.48955   2.49481   2.50702   2.52018
 Alpha virt. eigenvalues --    2.54744   2.59647   2.61584   2.67811   2.69965
 Alpha virt. eigenvalues --    2.77024   2.79282   2.83341   2.83978   2.86049
 Alpha virt. eigenvalues --    2.88357   2.89394   2.91645   2.93966   2.97589
 Alpha virt. eigenvalues --    2.98884   3.00747   3.08950   3.10718   3.15458
 Alpha virt. eigenvalues --    3.17540   3.19892   3.22453   3.24172   3.27362
 Alpha virt. eigenvalues --    3.30909   3.32034   3.34068   3.39077   3.45636
 Alpha virt. eigenvalues --    3.47032   3.48232   3.55186   3.65198   3.66167
 Alpha virt. eigenvalues --    3.67189   3.69756   3.71814   3.73786   3.74201
 Alpha virt. eigenvalues --    3.74947   3.75316   3.76093   3.77419   3.78530
 Alpha virt. eigenvalues --    3.79529   3.79978   3.81692   3.82681   3.83801
 Alpha virt. eigenvalues --    3.84792   3.85608   3.86417   3.87814   3.88240
 Alpha virt. eigenvalues --    3.89707   3.91661   3.92575   3.94953   3.99609
 Alpha virt. eigenvalues --    4.00571   4.01826   4.02938   4.11223   4.11637
 Alpha virt. eigenvalues --    4.15037   4.16003   4.16528   4.17813   4.24923
 Alpha virt. eigenvalues --    4.26453   4.40784   4.44941   4.59756   4.61297
          Condensed to atoms (all electrons):
 Mulliken charges:
               1
     1  C    1.004377
     2  O   -0.771130
     3  H    0.431510
     4  O   -0.765549
     5  C    0.715757
     6  H   -0.570423
     7  C    0.992880
     8  H   -0.594099
     9  C    1.102306
    10  O   -0.875607
    11  H    0.323214
    12  O   -1.013398
    13  C    1.055472
    14  O   -0.772361
    15  H    0.488498
    16  O   -0.788394
    17  C    0.591225
    18  H   -0.495476
    19  C    0.739486
    20  H   -0.470609
    21  C    1.148001
    22  O   -0.831007
    23  H    0.309876
    24  O   -0.954548
 Sum of Mulliken charges =  -0.00000
 Mulliken charges with hydrogens summed into heavy atoms:
               1
     1  C    1.004377
     2  O   -0.339619
     4  O   -0.765549
     5  C    0.145334
     7  C    0.398781
     9  C    1.102306
    10  O   -0.552394
    12  O   -1.013398
    13  C    1.055472
    14  O   -0.283863
    16  O   -0.788394
    17  C    0.095749
    19  C    0.268877
    21  C    1.148001
    22  O   -0.521132
    24  O   -0.954548
 Electronic spatial extent (au):  <R**2>=          58838.1292
 Charge=             -0.0000 electrons
 Dipole moment (field-independent basis, Debye):
    X=              4.5860    Y=            -11.0299    Z=              6.6394  Tot=             13.6664
 Unable to Open any file for archive entry.
 1\1\GINC-SE335\Stability\RHF\Aug-CC-pVDZ\C8H8O8\OHZDE\08-Apr-2025\0\\#
 t hf aug-cc-pvdz symm=none int=(grid=ultrafine) guess=(read,tcheck) st
 able=(opt,rrhf)\\title\\0,1\C,0,-1.647553,10.845738,6.203201\O,0,-2.15
 126,10.135432,5.220314\H,0,-2.044314,9.136168,5.373168\O,0,-1.751616,1
 2.068249,6.16272\C,0,-0.955798,10.207203,7.360275\H,0,-0.559945,10.946
 547,8.044089\C,0,-0.752528,8.923996,7.681774\H,0,-0.206856,8.720057,8.
 594701\C,0,-1.192451,7.714058,6.945301\O,0,-0.824514,6.606276,7.53547\
 H,0,-1.177353,5.797481,7.049024\O,0,-1.842498,7.729101,5.897324\C,0,2.
 045747,10.845738,6.203201\O,0,1.54204,10.135432,5.220314\H,0,1.648986,
 9.136168,5.373168\O,0,1.941684,12.068249,6.16272\C,0,2.737502,10.20720
 3,7.360275\H,0,3.133355,10.946547,8.044089\C,0,2.940772,8.923996,7.681
 774\H,0,3.486444,8.720057,8.594701\C,0,2.500849,7.714058,6.945301\O,0,
 2.868786,6.606276,7.53547\H,0,2.515947,5.797481,7.049024\O,0,1.850802,
 7.729101,5.897324\\Version=ES64L-G16RevC.01\HF=-906.6471188\RMSD=5.510
 e-09\Dipole=1.8042889,-4.3394793,2.6121376\Quadrupole=32.4967582,-125.
 5125555,93.0157972,32.2896583,23.1955894,-2.9094026\PG=Unknown\\@
 The archive entry for this job was punched.


 ARTHROPOD AXIOM: A COMPUTER SYSTEM IS LIKE A SPIDER'S WEB.
 YOU CANNOT PULL ON ONE END WITHOUT MAKING THE OTHER END MOVE.
     -- GREG WETTSTEIN
 Job cpu time:       0 days  1 hours 35 minutes 49.5 seconds.
 Elapsed time:       0 days  0 hours  6 minutes 12.6 seconds.
 File lengths (MBytes):  RWF=    910 Int=      0 D2E=      0 Chk=     26 Scr=      1
 Normal termination of Gaussian 16 at Tue Apr  8 19:09:05 2025.
 Initial command:
 /arc/software/Gaussian/g16.c01/l1.exe "/tmp/slurm/4832799/Gau-1425713.inp" -scrdir="/tmp/slurm/4832799/"
 Entering Link 1 = /arc/software/Gaussian/g16.c01/l1.exe PID=   1428115.
  
 Copyright (c) 1988-2019, Gaussian, Inc.  All Rights Reserved.
  
 This is part of the Gaussian(R) 16 program.  It is based on
 the Gaussian(R) 09 system (copyright 2009, Gaussian, Inc.),
 the Gaussian(R) 03 system (copyright 2003, Gaussian, Inc.),
 the Gaussian(R) 98 system (copyright 1998, Gaussian, Inc.),
 the Gaussian(R) 94 system (copyright 1995, Gaussian, Inc.),
 the Gaussian 92(TM) system (copyright 1992, Gaussian, Inc.),
 the Gaussian 90(TM) system (copyright 1990, Gaussian, Inc.),
 the Gaussian 88(TM) system (copyright 1988, Gaussian, Inc.),
 the Gaussian 86(TM) system (copyright 1986, Carnegie Mellon
 University), and the Gaussian 82(TM) system (copyright 1983,
 Carnegie Mellon University). Gaussian is a federally registered
 trademark of Gaussian, Inc.
  
 This software contains proprietary and confidential information,
 including trade secrets, belonging to Gaussian, Inc.
  
 This software is provided under written license and may be
 used, copied, transmitted, or stored only in accord with that
 written license.
  
 The following legend is applicable only to US Government
 contracts under FAR:
  
                    RESTRICTED RIGHTS LEGEND
  
 Use, reproduction and disclosure by the US Government is
 subject to restrictions as set forth in subparagraphs (a)
 and (c) of the Commercial Computer Software - Restricted
 Rights clause in FAR 52.227-19.
  
 Gaussian, Inc.
 340 Quinnipiac St., Bldg. 40, Wallingford CT 06492
  
  
 ---------------------------------------------------------------
 Warning -- This program may not be used in any manner that
 competes with the business of Gaussian, Inc. or will provide
 assistance to any competitor of Gaussian, Inc.  The licensee
 of this program is prohibited from giving any competitor of
 Gaussian, Inc. access to this program.  By using this program,
 the user acknowledges that Gaussian, Inc. is engaged in the
 business of creating and licensing software in the field of
 computational chemistry and represents and warrants to the
 licensee that it is not a competitor of Gaussian, Inc. and that
 it will not use this program in any manner prohibited above.
 ---------------------------------------------------------------
  

 Cite this work as:
 Gaussian 16, Revision C.01,
 M. J. Frisch, G. W. Trucks, H. B. Schlegel, G. E. Scuseria, 
 M. A. Robb, J. R. Cheeseman, G. Scalmani, V. Barone, 
 G. A. Petersson, H. Nakatsuji, X. Li, M. Caricato, A. V. Marenich, 
 J. Bloino, B. G. Janesko, R. Gomperts, B. Mennucci, H. P. Hratchian, 
 J. V. Ortiz, A. F. Izmaylov, J. L. Sonnenberg, D. Williams-Young, 
 F. Ding, F. Lipparini, F. Egidi, J. Goings, B. Peng, A. Petrone, 
 T. Henderson, D. Ranasinghe, V. G. Zakrzewski, J. Gao, N. Rega, 
 G. Zheng, W. Liang, M. Hada, M. Ehara, K. Toyota, R. Fukuda, 
 J. Hasegawa, M. Ishida, T. Nakajima, Y. Honda, O. Kitao, H. Nakai, 
 T. Vreven, K. Throssell, J. A. Montgomery, Jr., J. E. Peralta, 
 F. Ogliaro, M. J. Bearpark, J. J. Heyd, E. N. Brothers, K. N. Kudin, 
 V. N. Staroverov, T. A. Keith, R. Kobayashi, J. Normand, 
 K. Raghavachari, A. P. Rendell, J. C. Burant, S. S. Iyengar, 
 J. Tomasi, M. Cossi, J. M. Millam, M. Klene, C. Adamo, R. Cammi, 
 J. W. Ochterski, R. L. Martin, K. Morokuma, O. Farkas, 
 J. B. Foresman, and D. J. Fox, Gaussian, Inc., Wallingford CT, 2019.
 
 ******************************************
 Gaussian 16:  ES64L-G16RevC.01  3-Jul-2019
                 8-Apr-2025 
 ******************************************
 %nprocs=16
 Will use up to   16 processors via shared memory.
 %mem=30GB
 %chk=3B-69_20c_maleic_acid_dimerAB_mol1.chk
 ----------------------------------------------------------------------
 #t hf aug-cc-pvdz iop(5/13=1,5/36=2,99/5=2) pseudo=read geom=check gue
 ss=(read,tcheck) scf=(maxcycle=1)
 ----------------------------------------------------------------------
 -----
 title
 -----
 Structure from the checkpoint file:  "3B-69_20c_maleic_acid_dimerAB_mol1.chk"
 Charge =  0 Multiplicity = 1
 Z-Matrix found in chk file.
 C,0,-1.647553,10.845738,6.203201
 O,0,-2.15126,10.135432,5.220314
 H,0,-2.044314,9.136168,5.373168
 O,0,-1.751616,12.068249,6.16272
 C,0,-0.955798,10.207203,7.360275
 H,0,-0.559945,10.946547,8.044089
 C,0,-0.752528,8.923996,7.681774
 H,0,-0.206856,8.720057,8.594701
 C,0,-1.192451,7.714058,6.945301
 O,0,-0.824514,6.606276,7.53547
 H,0,-1.177353,5.797481,7.049024
 O,0,-1.842498,7.729101,5.897324
 C,0,2.045747,10.845738,6.203201
 O,0,1.54204,10.135432,5.220314
 H,0,1.648986,9.136168,5.373168
 O,0,1.941684,12.068249,6.16272
 C,0,2.737502,10.207203,7.360275
 H,0,3.133355,10.946547,8.044089
 C,0,2.940772,8.923996,7.681774
 H,0,3.486444,8.720057,8.594701
 C,0,2.500849,7.714058,6.945301
 O,0,2.868786,6.606276,7.53547
 H,0,2.515947,5.797481,7.049024
 O,0,1.850802,7.729101,5.897324
 Recover connectivity data from disk.
                    Distance matrix (angstroms):
                    1          2          3          4          5
     1  C    0.000000
     2  O    1.313134   0.000000
     3  H    1.941392   1.016529   0.000000
     4  O    1.227600   2.187150   3.050601   0.000000
     5  C    1.491668   2.452287   2.506108   2.351799   0.000000
     6  H    2.140543   3.341242   3.551710   2.493561   1.082096
     7  C    2.584635   3.079418   2.653939   3.632083   1.338395
     8  H    3.509045   4.143728   3.731980   4.417149   2.072758
     9  C    3.250423   3.123771   2.284660   4.459157   2.538500
    10  O    4.519444   4.424381   3.544547   5.707636   3.607576
    11  H    5.140175   4.807338   3.834964   6.359076   4.426241
    12  O    3.137673   2.518751   1.515027   4.348207   3.011221
    13  C    3.693300   4.368692   4.510009   3.989503   3.279607
    14  O    3.412346   3.693300   3.726101   3.933457   3.289951
    15  H    3.805096   3.932399   3.693300   4.559011   3.446826
    16  O    3.791938   4.623430   5.010855   3.693300   3.645961
    17  C    4.579875   5.337095   5.287861   5.004979   3.693300
    18  H    5.124072   6.046385   6.100783   5.353569   4.211342
    19  C    5.189605   5.784043   5.497796   5.849133   4.115002
    20  H    6.049439   6.721122   6.414102   6.675492   4.844474
    21  C    5.250464   5.520937   5.015227   6.136356   4.282100
    22  O    6.336032   6.558639   5.934177   7.284621   5.255931
    23  H    6.598109   6.629089   5.895024   7.636764   5.620991
    24  O    4.695261   4.718609   4.174507   5.645888   4.019729
                    6          7          8          9         10
     6  H    0.000000
     7  C    2.063752   0.000000
     8  H    2.320582   1.082952   0.000000
     9  C    3.472230   1.483197   2.168860   0.000000
    10  O    4.377972   2.323448   2.443674   1.307998   0.000000
    11  H    5.280552   3.218065   3.445640   1.919441   1.007608
    12  O    4.074985   2.408334   3.306533   1.233306   2.231715
    13  C    3.191968   3.702650   3.913057   4.565529   5.290215
    14  O    3.612472   3.576507   4.055664   4.039316   4.838953
    15  H    3.910328   3.337956   3.741066   3.545104   4.146578
    16  O    3.325043   4.410514   4.662740   5.421643   6.274507
    17  C    3.447809   3.732331   3.522024   4.672527   5.068069
    18  H    3.693300   4.395688   4.051844   5.510800   5.895878
    19  C    4.059188   3.693300   3.283685   4.369196   4.423868
    20  H    4.651204   4.340957   3.693300   5.062076   4.916747
    21  C    4.585279   3.548352   3.326292   3.693300   3.554366
    22  O    5.554533   4.301993   3.879383   4.250780   3.693300
    23  H    6.079815   4.567099   4.283016   4.175673   3.471233
    24  O    4.557659   3.374813   3.534373   3.218675   3.331902
                   11         12         13         14         15
    11  H    0.000000
    12  O    2.345205   0.000000
    13  C    6.048858   4.992538   0.000000
    14  O    5.436644   4.207597   1.313134   0.000000
    15  H    4.684391   3.800663   1.941392   1.016529   0.000000
    16  O    7.059494   5.763564   1.227600   2.187150   3.050601
    17  C    5.904965   5.409031   1.491668   2.452287   2.506108
    18  H    6.788611   6.302354   2.140543   3.341242   3.551710
    19  C    5.209071   5.243254   2.584635   3.079418   2.653939
    20  H    5.716780   6.054375   3.509045   4.143728   3.731980
    21  C    4.148879   4.468014   3.250423   3.123771   2.284660
    22  O    4.154759   5.112774   4.519444   4.424381   3.544547
    23  H    3.693300   4.904448   5.140175   4.807338   3.834964
    24  O    3.771908   3.693300   3.137673   2.518751   1.515027
                   16         17         18         19         20
    16  O    0.000000
    17  C    2.351799   0.000000
    18  H    2.493561   1.082096   0.000000
    19  C    3.632083   1.338395   2.063752   0.000000
    20  H    4.417149   2.072758   2.320582   1.082952   0.000000
    21  C    4.459157   2.538500   3.472230   1.483197   2.168860
    22  O    5.707636   3.607576   4.377972   2.323448   2.443674
    23  H    6.359076   4.426241   5.280552   3.218065   3.445640
    24  O    4.348207   3.011221   4.074985   2.408334   3.306533
                   21         22         23         24
    21  C    0.000000
    22  O    1.307998   0.000000
    23  H    1.919441   1.007608   0.000000
    24  O    1.233306   2.231715   2.345205   0.000000
 Framework group  C1[X(C8H8O8)]
 Deg. of freedom    66
                         Standard orientation:                         
 ---------------------------------------------------------------------
 Center     Atomic      Atomic             Coordinates (Angstroms)
 Number     Number       Type             X           Y           Z
 ---------------------------------------------------------------------
      1          6           0       -2.673080   -0.186078   -0.187101
      2          8           0       -2.912126    0.584323    0.849075
      3          1           0       -2.254573    1.356771    0.914476
      4          8           0       -3.424321   -1.131922   -0.406228
      5          6           0       -1.517712    0.058329   -1.098398
      6          1           0       -1.446284   -0.704058   -1.862986
      7          6           0       -0.592736    1.025202   -1.128011
      8          1           0        0.157415    0.972632   -1.907302
      9          6           0       -0.458186    2.192619   -0.223075
     10          8           0        0.564208    2.948974   -0.528848
     11          1           0        0.607493    3.763177    0.063160
     12          8           0       -1.220731    2.445685    0.712620
     13          6           0        0.337920   -2.276259    0.266206
     14          8           0        0.098874   -1.505858    1.302382
     15          1           0        0.756427   -0.733410    1.367783
     16          8           0       -0.413321   -3.222103    0.047079
     17          6           0        1.493288   -2.031852   -0.645091
     18          1           0        1.564716   -2.794239   -1.409679
     19          6           0        2.418263   -1.064979   -0.674704
     20          1           0        3.168415   -1.117549   -1.453995
     21          6           0        2.552814    0.102438    0.230232
     22          8           0        3.575208    0.858793   -0.075541
     23          1           0        3.618493    1.672996    0.516467
     24          8           0        1.790269    0.355504    1.165927
 ---------------------------------------------------------------------
 Rotational constants (GHZ):           0.6046555           0.4706273           0.3073336
 ======================================================================================================
                                       Pseudopotential Parameters
 ======================================================================================================
  Center     Atomic      Valence      Angular      Power
  Number     Number     Electrons     Momentum     of R      Exponent        Coefficient   SO-Coeffient
 ======================================================================================================
    1          6            6
                                      G and up 
                                                     0        0.0000010       -0.00011185    0.00000000
                                                     2        0.1200000       -0.02301220    0.00000000
                                                     2        0.1400000        0.13317600    0.00000000
                                                     2        0.1600000       -0.19690668    0.00000000
                                                     2        0.2200000        0.23163694    0.00000000
                                                     2        0.3000000       -0.36920489    0.00000000
                                                     2        0.4000000        0.36389709    0.00000000
                                                     2        0.7000000       -0.38862160    0.00000000
                                                     2        1.3000000        0.80803421    0.00000000
                                      S - G
                                                     0        0.0000010        0.00312304    0.00000000
                                                     2        0.1200000       -0.00632892    0.00000000
                                                     2        0.2200000       -0.03780897    0.00000000
                                                     2        0.4000000        0.26269560    0.00000000
                                                     2        0.9000000       -0.28209514    0.00000000
                                                     2        1.5000000       -0.72686737    0.00000000
                                      P - G
                                                     0        0.0000010       -0.01465594    0.00000000
                                                     2        0.1200000        0.07908409    0.00000000
                                                     2        0.1800000       -0.30615861    0.00000000
                                                     2        0.2600000        0.41506950    0.00000000
                                                     2        0.5000000       -0.36252345    0.00000000
                                                     2        0.9000000        0.15124193    0.00000000
                                                     2        3.0000000       -0.80425677    0.00000000
                                      D - G
                                                     0        0.0000010        0.01149631    0.00000000
                                                     2        0.1200000       -0.04713561    0.00000000
                                                     2        0.1600000        0.10865096    0.00000000
                                                     2        0.2800000       -0.15816701    0.00000000
                                                     2        0.7000000        0.65478804    0.00000000
                                                     2        1.3000000       -1.73816624    0.00000000
                                      F - G
                                                     0        0.0000010        0.00481868    0.00000000
                                                     2        0.1200000       -0.04746842    0.00000000
                                                     2        0.1600000        0.09327889    0.00000000
                                                     2        0.4000000       -0.19693326    0.00000000
                                                     2        0.9000000        0.34938253    0.00000000
    2          8            8
                                      G and up 
                                                     0        0.0000010        0.00001165    0.00000000
                                                     2        0.1200000       -0.01744018    0.00000000
                                                     2        0.1400000        0.05401326    0.00000000
                                                     2        0.1800000       -0.08231208    0.00000000
                                                     2        0.2600000        0.11570222    0.00000000
                                                     2        0.4000000       -0.20630360    0.00000000
                                                     2        0.7000000        0.38074319    0.00000000
                                                     2        1.2000000       -0.17045091    0.00000000
                                                     2        2.0000000       -1.45433187    0.00000000
                                      S - G
                                                     0        0.0000010       -0.00117944    0.00000000
                                                     2        0.1400000        0.04368312    0.00000000
                                                     2        0.3000000       -0.33477926    0.00000000
                                                     2        0.6000000        1.52630657    0.00000000
                                                     2        1.5000000       -2.50804716    0.00000000
                                                     2        3.0000000        2.89751681    0.00000000
                                      P - G
                                                     0        0.0000010        0.06576007    0.00000000
                                                     2        0.1200000       -0.10329304    0.00000000
                                                     2        0.2000000        0.24891756    0.00000000
                                                     2        0.4000000       -0.50800022    0.00000000
                                                     2        0.9000000        0.81480796    0.00000000
                                      D - G
                                                     0        0.0000010       -0.14101855    0.00000000
                                                     2        0.1200000        0.22105937    0.00000000
                                                     2        0.1800000       -0.45814988    0.00000000
                                                     2        0.3000000        0.46029282    0.00000000
                                      F - G
                                                     0        0.0000010        0.07483044    0.00000000
                                                     2        0.1200000       -0.09134252    0.00000000
                                                     2        0.1400000        0.04125459    0.00000000
                                                     2        0.3000000        0.37914837    0.00000000
                                                     2        0.5000000       -0.86881279    0.00000000
    3          1            1
                                      F and up 
                                                     0        0.0000010       -0.00000699    0.00000000
                                                     2        0.1200000        0.00123686    0.00000000
                                                     2        0.1800000       -0.00752022    0.00000000
                                                     2        0.2600000        0.02503380    0.00000000
                                                     2        0.4000000       -0.08702670    0.00000000
                                                     2        0.6000000        0.30134159    0.00000000
                                                     2        0.8000000       -0.50204959    0.00000000
                                                     2        1.2000000        0.52208372    0.00000000
                                      S - F
                                                     0        0.0000010       -0.01618346    0.00000000
                                                     2        0.1200000       -0.07880581    0.00000000
                                                     2        0.1600000        0.32040539    0.00000000
                                                     2        0.2400000       -0.47500956    0.00000000
                                                     2        0.5000000        0.54013668    0.00000000
                                                     2        1.5000000       -1.40434292    0.00000000
                                                     2        3.0000000        1.46283806    0.00000000
                                      P - F
                                                     0        0.0000010        0.00612970    0.00000000
                                                     2        0.1200000        0.02254406    0.00000000
                                                     2        0.1800000       -0.13874529    0.00000000
                                                     2        0.3000000        0.38299049    0.00000000
                                                     2        0.5000000       -0.57923512    0.00000000
                                                     2        1.0000000        0.63021625    0.00000000
                                                     2        2.0000000       -0.79201034    0.00000000
                                      D - F
                                                     0        0.0000010       -0.00296226    0.00000000
                                                     2        0.1200000       -0.00547344    0.00000000
                                                     2        0.1400000        0.01837884    0.00000000
                                                     2        0.2400000       -0.05565704    0.00000000
                                                     2        0.4000000        0.15376597    0.00000000
                                                     2        0.8000000       -0.32464795    0.00000000
    4          8            8
                                      G and up 
                                                     0        0.0000010        0.00001165    0.00000000
                                                     2        0.1200000       -0.01744018    0.00000000
                                                     2        0.1400000        0.05401326    0.00000000
                                                     2        0.1800000       -0.08231208    0.00000000
                                                     2        0.2600000        0.11570222    0.00000000
                                                     2        0.4000000       -0.20630360    0.00000000
                                                     2        0.7000000        0.38074319    0.00000000
                                                     2        1.2000000       -0.17045091    0.00000000
                                                     2        2.0000000       -1.45433187    0.00000000
                                      S - G
                                                     0        0.0000010       -0.00117944    0.00000000
                                                     2        0.1400000        0.04368312    0.00000000
                                                     2        0.3000000       -0.33477926    0.00000000
                                                     2        0.6000000        1.52630657    0.00000000
                                                     2        1.5000000       -2.50804716    0.00000000
                                                     2        3.0000000        2.89751681    0.00000000
                                      P - G
                                                     0        0.0000010        0.06576007    0.00000000
                                                     2        0.1200000       -0.10329304    0.00000000
                                                     2        0.2000000        0.24891756    0.00000000
                                                     2        0.4000000       -0.50800022    0.00000000
                                                     2        0.9000000        0.81480796    0.00000000
                                      D - G
                                                     0        0.0000010       -0.14101855    0.00000000
                                                     2        0.1200000        0.22105937    0.00000000
                                                     2        0.1800000       -0.45814988    0.00000000
                                                     2        0.3000000        0.46029282    0.00000000
                                      F - G
                                                     0        0.0000010        0.07483044    0.00000000
                                                     2        0.1200000       -0.09134252    0.00000000
                                                     2        0.1400000        0.04125459    0.00000000
                                                     2        0.3000000        0.37914837    0.00000000
                                                     2        0.5000000       -0.86881279    0.00000000
    5          6            6
                                      G and up 
                                                     0        0.0000010       -0.00011185    0.00000000
                                                     2        0.1200000       -0.02301220    0.00000000
                                                     2        0.1400000        0.13317600    0.00000000
                                                     2        0.1600000       -0.19690668    0.00000000
                                                     2        0.2200000        0.23163694    0.00000000
                                                     2        0.3000000       -0.36920489    0.00000000
                                                     2        0.4000000        0.36389709    0.00000000
                                                     2        0.7000000       -0.38862160    0.00000000
                                                     2        1.3000000        0.80803421    0.00000000
                                      S - G
                                                     0        0.0000010        0.00312304    0.00000000
                                                     2        0.1200000       -0.00632892    0.00000000
                                                     2        0.2200000       -0.03780897    0.00000000
                                                     2        0.4000000        0.26269560    0.00000000
                                                     2        0.9000000       -0.28209514    0.00000000
                                                     2        1.5000000       -0.72686737    0.00000000
                                      P - G
                                                     0        0.0000010       -0.01465594    0.00000000
                                                     2        0.1200000        0.07908409    0.00000000
                                                     2        0.1800000       -0.30615861    0.00000000
                                                     2        0.2600000        0.41506950    0.00000000
                                                     2        0.5000000       -0.36252345    0.00000000
                                                     2        0.9000000        0.15124193    0.00000000
                                                     2        3.0000000       -0.80425677    0.00000000
                                      D - G
                                                     0        0.0000010        0.01149631    0.00000000
                                                     2        0.1200000       -0.04713561    0.00000000
                                                     2        0.1600000        0.10865096    0.00000000
                                                     2        0.2800000       -0.15816701    0.00000000
                                                     2        0.7000000        0.65478804    0.00000000
                                                     2        1.3000000       -1.73816624    0.00000000
                                      F - G
                                                     0        0.0000010        0.00481868    0.00000000
                                                     2        0.1200000       -0.04746842    0.00000000
                                                     2        0.1600000        0.09327889    0.00000000
                                                     2        0.4000000       -0.19693326    0.00000000
                                                     2        0.9000000        0.34938253    0.00000000
    6          1            1
                                      F and up 
                                                     0        0.0000010       -0.00000699    0.00000000
                                                     2        0.1200000        0.00123686    0.00000000
                                                     2        0.1800000       -0.00752022    0.00000000
                                                     2        0.2600000        0.02503380    0.00000000
                                                     2        0.4000000       -0.08702670    0.00000000
                                                     2        0.6000000        0.30134159    0.00000000
                                                     2        0.8000000       -0.50204959    0.00000000
                                                     2        1.2000000        0.52208372    0.00000000
                                      S - F
                                                     0        0.0000010       -0.01618346    0.00000000
                                                     2        0.1200000       -0.07880581    0.00000000
                                                     2        0.1600000        0.32040539    0.00000000
                                                     2        0.2400000       -0.47500956    0.00000000
                                                     2        0.5000000        0.54013668    0.00000000
                                                     2        1.5000000       -1.40434292    0.00000000
                                                     2        3.0000000        1.46283806    0.00000000
                                      P - F
                                                     0        0.0000010        0.00612970    0.00000000
                                                     2        0.1200000        0.02254406    0.00000000
                                                     2        0.1800000       -0.13874529    0.00000000
                                                     2        0.3000000        0.38299049    0.00000000
                                                     2        0.5000000       -0.57923512    0.00000000
                                                     2        1.0000000        0.63021625    0.00000000
                                                     2        2.0000000       -0.79201034    0.00000000
                                      D - F
                                                     0        0.0000010       -0.00296226    0.00000000
                                                     2        0.1200000       -0.00547344    0.00000000
                                                     2        0.1400000        0.01837884    0.00000000
                                                     2        0.2400000       -0.05565704    0.00000000
                                                     2        0.4000000        0.15376597    0.00000000
                                                     2        0.8000000       -0.32464795    0.00000000
    7          6            6
                                      G and up 
                                                     0        0.0000010       -0.00011185    0.00000000
                                                     2        0.1200000       -0.02301220    0.00000000
                                                     2        0.1400000        0.13317600    0.00000000
                                                     2        0.1600000       -0.19690668    0.00000000
                                                     2        0.2200000        0.23163694    0.00000000
                                                     2        0.3000000       -0.36920489    0.00000000
                                                     2        0.4000000        0.36389709    0.00000000
                                                     2        0.7000000       -0.38862160    0.00000000
                                                     2        1.3000000        0.80803421    0.00000000
                                      S - G
                                                     0        0.0000010        0.00312304    0.00000000
                                                     2        0.1200000       -0.00632892    0.00000000
                                                     2        0.2200000       -0.03780897    0.00000000
                                                     2        0.4000000        0.26269560    0.00000000
                                                     2        0.9000000       -0.28209514    0.00000000
                                                     2        1.5000000       -0.72686737    0.00000000
                                      P - G
                                                     0        0.0000010       -0.01465594    0.00000000
                                                     2        0.1200000        0.07908409    0.00000000
                                                     2        0.1800000       -0.30615861    0.00000000
                                                     2        0.2600000        0.41506950    0.00000000
                                                     2        0.5000000       -0.36252345    0.00000000
                                                     2        0.9000000        0.15124193    0.00000000
                                                     2        3.0000000       -0.80425677    0.00000000
                                      D - G
                                                     0        0.0000010        0.01149631    0.00000000
                                                     2        0.1200000       -0.04713561    0.00000000
                                                     2        0.1600000        0.10865096    0.00000000
                                                     2        0.2800000       -0.15816701    0.00000000
                                                     2        0.7000000        0.65478804    0.00000000
                                                     2        1.3000000       -1.73816624    0.00000000
                                      F - G
                                                     0        0.0000010        0.00481868    0.00000000
                                                     2        0.1200000       -0.04746842    0.00000000
                                                     2        0.1600000        0.09327889    0.00000000
                                                     2        0.4000000       -0.19693326    0.00000000
                                                     2        0.9000000        0.34938253    0.00000000
    8          1            1
                                      F and up 
                                                     0        0.0000010       -0.00000699    0.00000000
                                                     2        0.1200000        0.00123686    0.00000000
                                                     2        0.1800000       -0.00752022    0.00000000
                                                     2        0.2600000        0.02503380    0.00000000
                                                     2        0.4000000       -0.08702670    0.00000000
                                                     2        0.6000000        0.30134159    0.00000000
                                                     2        0.8000000       -0.50204959    0.00000000
                                                     2        1.2000000        0.52208372    0.00000000
                                      S - F
                                                     0        0.0000010       -0.01618346    0.00000000
                                                     2        0.1200000       -0.07880581    0.00000000
                                                     2        0.1600000        0.32040539    0.00000000
                                                     2        0.2400000       -0.47500956    0.00000000
                                                     2        0.5000000        0.54013668    0.00000000
                                                     2        1.5000000       -1.40434292    0.00000000
                                                     2        3.0000000        1.46283806    0.00000000
                                      P - F
                                                     0        0.0000010        0.00612970    0.00000000
                                                     2        0.1200000        0.02254406    0.00000000
                                                     2        0.1800000       -0.13874529    0.00000000
                                                     2        0.3000000        0.38299049    0.00000000
                                                     2        0.5000000       -0.57923512    0.00000000
                                                     2        1.0000000        0.63021625    0.00000000
                                                     2        2.0000000       -0.79201034    0.00000000
                                      D - F
                                                     0        0.0000010       -0.00296226    0.00000000
                                                     2        0.1200000       -0.00547344    0.00000000
                                                     2        0.1400000        0.01837884    0.00000000
                                                     2        0.2400000       -0.05565704    0.00000000
                                                     2        0.4000000        0.15376597    0.00000000
                                                     2        0.8000000       -0.32464795    0.00000000
    9          6            6
                                      G and up 
                                                     0        0.0000010       -0.00011185    0.00000000
                                                     2        0.1200000       -0.02301220    0.00000000
                                                     2        0.1400000        0.13317600    0.00000000
                                                     2        0.1600000       -0.19690668    0.00000000
                                                     2        0.2200000        0.23163694    0.00000000
                                                     2        0.3000000       -0.36920489    0.00000000
                                                     2        0.4000000        0.36389709    0.00000000
                                                     2        0.7000000       -0.38862160    0.00000000
                                                     2        1.3000000        0.80803421    0.00000000
                                      S - G
                                                     0        0.0000010        0.00312304    0.00000000
                                                     2        0.1200000       -0.00632892    0.00000000
                                                     2        0.2200000       -0.03780897    0.00000000
                                                     2        0.4000000        0.26269560    0.00000000
                                                     2        0.9000000       -0.28209514    0.00000000
                                                     2        1.5000000       -0.72686737    0.00000000
                                      P - G
                                                     0        0.0000010       -0.01465594    0.00000000
                                                     2        0.1200000        0.07908409    0.00000000
                                                     2        0.1800000       -0.30615861    0.00000000
                                                     2        0.2600000        0.41506950    0.00000000
                                                     2        0.5000000       -0.36252345    0.00000000
                                                     2        0.9000000        0.15124193    0.00000000
                                                     2        3.0000000       -0.80425677    0.00000000
                                      D - G
                                                     0        0.0000010        0.01149631    0.00000000
                                                     2        0.1200000       -0.04713561    0.00000000
                                                     2        0.1600000        0.10865096    0.00000000
                                                     2        0.2800000       -0.15816701    0.00000000
                                                     2        0.7000000        0.65478804    0.00000000
                                                     2        1.3000000       -1.73816624    0.00000000
                                      F - G
                                                     0        0.0000010        0.00481868    0.00000000
                                                     2        0.1200000       -0.04746842    0.00000000
                                                     2        0.1600000        0.09327889    0.00000000
                                                     2        0.4000000       -0.19693326    0.00000000
                                                     2        0.9000000        0.34938253    0.00000000
   10          8            8
                                      G and up 
                                                     0        0.0000010        0.00001165    0.00000000
                                                     2        0.1200000       -0.01744018    0.00000000
                                                     2        0.1400000        0.05401326    0.00000000
                                                     2        0.1800000       -0.08231208    0.00000000
                                                     2        0.2600000        0.11570222    0.00000000
                                                     2        0.4000000       -0.20630360    0.00000000
                                                     2        0.7000000        0.38074319    0.00000000
                                                     2        1.2000000       -0.17045091    0.00000000
                                                     2        2.0000000       -1.45433187    0.00000000
                                      S - G
                                                     0        0.0000010       -0.00117944    0.00000000
                                                     2        0.1400000        0.04368312    0.00000000
                                                     2        0.3000000       -0.33477926    0.00000000
                                                     2        0.6000000        1.52630657    0.00000000
                                                     2        1.5000000       -2.50804716    0.00000000
                                                     2        3.0000000        2.89751681    0.00000000
                                      P - G
                                                     0        0.0000010        0.06576007    0.00000000
                                                     2        0.1200000       -0.10329304    0.00000000
                                                     2        0.2000000        0.24891756    0.00000000
                                                     2        0.4000000       -0.50800022    0.00000000
                                                     2        0.9000000        0.81480796    0.00000000
                                      D - G
                                                     0        0.0000010       -0.14101855    0.00000000
                                                     2        0.1200000        0.22105937    0.00000000
                                                     2        0.1800000       -0.45814988    0.00000000
                                                     2        0.3000000        0.46029282    0.00000000
                                      F - G
                                                     0        0.0000010        0.07483044    0.00000000
                                                     2        0.1200000       -0.09134252    0.00000000
                                                     2        0.1400000        0.04125459    0.00000000
                                                     2        0.3000000        0.37914837    0.00000000
                                                     2        0.5000000       -0.86881279    0.00000000
   11          1            1
                                      F and up 
                                                     0        0.0000010       -0.00000699    0.00000000
                                                     2        0.1200000        0.00123686    0.00000000
                                                     2        0.1800000       -0.00752022    0.00000000
                                                     2        0.2600000        0.02503380    0.00000000
                                                     2        0.4000000       -0.08702670    0.00000000
                                                     2        0.6000000        0.30134159    0.00000000
                                                     2        0.8000000       -0.50204959    0.00000000
                                                     2        1.2000000        0.52208372    0.00000000
                                      S - F
                                                     0        0.0000010       -0.01618346    0.00000000
                                                     2        0.1200000       -0.07880581    0.00000000
                                                     2        0.1600000        0.32040539    0.00000000
                                                     2        0.2400000       -0.47500956    0.00000000
                                                     2        0.5000000        0.54013668    0.00000000
                                                     2        1.5000000       -1.40434292    0.00000000
                                                     2        3.0000000        1.46283806    0.00000000
                                      P - F
                                                     0        0.0000010        0.00612970    0.00000000
                                                     2        0.1200000        0.02254406    0.00000000
                                                     2        0.1800000       -0.13874529    0.00000000
                                                     2        0.3000000        0.38299049    0.00000000
                                                     2        0.5000000       -0.57923512    0.00000000
                                                     2        1.0000000        0.63021625    0.00000000
                                                     2        2.0000000       -0.79201034    0.00000000
                                      D - F
                                                     0        0.0000010       -0.00296226    0.00000000
[...]
                                                     2        0.3000000        0.37914837    0.00000000
                                                     2        0.5000000       -0.86881279    0.00000000
   23          1            1
                                      F and up 
                                                     0        0.0000010       -0.00000699    0.00000000
                                                     2        0.1200000        0.00123686    0.00000000
                                                     2        0.1800000       -0.00752022    0.00000000
                                                     2        0.2600000        0.02503380    0.00000000
                                                     2        0.4000000       -0.08702670    0.00000000
                                                     2        0.6000000        0.30134159    0.00000000
                                                     2        0.8000000       -0.50204959    0.00000000
                                                     2        1.2000000        0.52208372    0.00000000
                                      S - F
                                                     0        0.0000010       -0.01618346    0.00000000
                                                     2        0.1200000       -0.07880581    0.00000000
                                                     2        0.1600000        0.32040539    0.00000000
                                                     2        0.2400000       -0.47500956    0.00000000
                                                     2        0.5000000        0.54013668    0.00000000
                                                     2        1.5000000       -1.40434292    0.00000000
                                                     2        3.0000000        1.46283806    0.00000000
                                      P - F
                                                     0        0.0000010        0.00612970    0.00000000
                                                     2        0.1200000        0.02254406    0.00000000
                                                     2        0.1800000       -0.13874529    0.00000000
                                                     2        0.3000000        0.38299049    0.00000000
                                                     2        0.5000000       -0.57923512    0.00000000
                                                     2        1.0000000        0.63021625    0.00000000
                                                     2        2.0000000       -0.79201034    0.00000000
                                      D - F
                                                     0        0.0000010       -0.00296226    0.00000000
                                                     2        0.1200000       -0.00547344    0.00000000
                                                     2        0.1400000        0.01837884    0.00000000
                                                     2        0.2400000       -0.05565704    0.00000000
                                                     2        0.4000000        0.15376597    0.00000000
                                                     2        0.8000000       -0.32464795    0.00000000
   24          8            8
                                      G and up 
                                                     0        0.0000010        0.00001165    0.00000000
                                                     2        0.1200000       -0.01744018    0.00000000
                                                     2        0.1400000        0.05401326    0.00000000
                                                     2        0.1800000       -0.08231208    0.00000000
                                                     2        0.2600000        0.11570222    0.00000000
                                                     2        0.4000000       -0.20630360    0.00000000
                                                     2        0.7000000        0.38074319    0.00000000
                                                     2        1.2000000       -0.17045091    0.00000000
                                                     2        2.0000000       -1.45433187    0.00000000
                                      S - G
                                                     0        0.0000010       -0.00117944    0.00000000
                                                     2        0.1400000        0.04368312    0.00000000
                                                     2        0.3000000       -0.33477926    0.00000000
                                                     2        0.6000000        1.52630657    0.00000000
                                                     2        1.5000000       -2.50804716    0.00000000
                                                     2        3.0000000        2.89751681    0.00000000
                                      P - G
                                                     0        0.0000010        0.06576007    0.00000000
                                                     2        0.1200000       -0.10329304    0.00000000
                                                     2        0.2000000        0.24891756    0.00000000
                                                     2        0.4000000       -0.50800022    0.00000000
                                                     2        0.9000000        0.81480796    0.00000000
                                      D - G
                                                     0        0.0000010       -0.14101855    0.00000000
                                                     2        0.1200000        0.22105937    0.00000000
                                                     2        0.1800000       -0.45814988    0.00000000
                                                     2        0.3000000        0.46029282    0.00000000
                                      F - G
                                                     0        0.0000010        0.07483044    0.00000000
                                                     2        0.1200000       -0.09134252    0.00000000
                                                     2        0.1400000        0.04125459    0.00000000
                                                     2        0.3000000        0.37914837    0.00000000
                                                     2        0.5000000       -0.86881279    0.00000000
 ======================================================================================================
   440 basis functions,   776 primitive gaussians,   472 cartesian basis functions
    60 alpha electrons       60 beta electrons
       nuclear repulsion energy      1147.1253350904 Hartrees.
 NAtoms=   24 NActive=   24 NUniq=   24 SFac= 1.00D+00 NAtFMM=   60 NAOKFM=F Big=F
   1 Symmetry operations used in ECPInt.
 ECPInt:  NShTT=   17020 NPrTT=   90844 LenC2=   16650 LenP2D=   58365.
 LDataN:  DoStor=T MaxTD1= 6 Len=  172
 Initial guess from the checkpoint file:  "3B-69_20c_maleic_acid_dimerAB_mol1.chk"
 B after Tr=     6.002648   13.517843   15.540367
         Rot=    0.078675    0.949442   -0.290685    0.088724 Ang= 170.98 deg.
 >>>>>>>>>> Convergence criterion not met.
 SCF Done:  E(RHF) =  -906.930577142     A.U. after    2 cycles
            NFock=  1  Conv=0.59D-02     -V/T= 1.9974

 **********************************************************************

            Population analysis using the SCF Density.

 **********************************************************************

 Orbital symmetries:
       Occupied  (A) (A) (A) (A) (A) (A) (A) (A) (A) (A) (A) (A)
                 (A) (A) (A) (A) (A) (A) (A) (A) (A) (A) (A) (A)
                 (A) (A) (A) (A) (A) (A) (A) (A) (A) (A) (A) (A)
                 (A) (A) (A) (A) (A) (A) (A) (A) (A) (A) (A) (A)
                 (A) (A) (A) (A) (A) (A) (A) (A) (A) (A) (A) (A)
       Virtual   (A) (A) (A) (A) (A) (A) (A) (A) (A) (A) (A) (A)
                 (A) (A) (A) (A) (A) (A) (A) (A) (A) (A) (A) (A)
                 (A) (A) (A) (A) (A) (A) (A) (A) (A) (A) (A) (A)
                 (A) (A) (A) (A) (A) (A) (A) (A) (A) (A) (A) (A)
                 (A) (A) (A) (A) (A) (A) (A) (A) (A) (A) (A) (A)
                 (A) (A) (A) (A) (A) (A) (A) (A) (A) (A) (A) (A)
                 (A) (A) (A) (A) (A) (A) (A) (A) (A) (A) (A) (A)
                 (A) (A) (A) (A) (A) (A) (A) (A) (A) (A) (A) (A)
                 (A) (A) (A) (A) (A) (A) (A) (A) (A) (A) (A) (A)
                 (A) (A) (A) (A) (A) (A) (A) (A) (A) (A) (A) (A)
                 (A) (A) (A) (A) (A) (A) (A) (A) (A) (A) (A) (A)
                 (A) (A) (A) (A) (A) (A) (A) (A) (A) (A) (A) (A)
                 (A) (A) (A) (A) (A) (A) (A) (A) (A) (A) (A) (A)
                 (A) (A) (A) (A) (A) (A) (A) (A) (A) (A) (A) (A)
                 (A) (A) (A) (A) (A) (A) (A) (A) (A) (A) (A) (A)
                 (A) (A) (A) (A) (A) (A) (A) (A) (A) (A) (A) (A)
                 (A) (A) (A) (A) (A) (A) (A) (A) (A) (A) (A) (A)
                 (A) (A) (A) (A) (A) (A) (A) (A) (A) (A) (A) (A)
                 (A) (A) (A) (A) (A) (A) (A) (A) (A) (A) (A) (A)
                 (A) (A) (A) (A) (A) (A) (A) (A) (A) (A) (A) (A)
                 (A) (A) (A) (A) (A) (A) (A) (A) (A) (A) (A) (A)
                 (A) (A) (A) (A) (A) (A) (A) (A) (A) (A) (A) (A)
                 (A) (A) (A) (A) (A) (A) (A) (A) (A) (A) (A) (A)
                 (A) (A) (A) (A) (A) (A) (A) (A) (A) (A) (A) (A)
                 (A) (A) (A) (A) (A) (A) (A) (A) (A) (A) (A) (A)
                 (A) (A) (A) (A) (A) (A) (A) (A) (A) (A) (A) (A)
                 (A) (A) (A) (A) (A) (A) (A) (A) (A) (A) (A) (A)
                 (A) (A) (A) (A) (A) (A) (A) (A) (A) (A) (A) (A)
                 (A) (A) (A) (A) (A) (A) (A) (A) (A) (A) (A) (A)
                 (A) (A) (A) (A) (A) (A) (A) (A) (A) (A) (A) (A)
                 (A) (A) (A) (A) (A) (A) (A) (A) (A) (A) (A) (A)
                 (A) (A) (A) (A) (A) (A) (A) (A)
 The electronic state is 1-A.
 Alpha  occ. eigenvalues --  -20.69576 -20.68618 -20.62597 -20.61038 -20.60584
 Alpha  occ. eigenvalues --  -20.58719 -20.55952 -20.54051 -11.47305 -11.45892
 Alpha  occ. eigenvalues --  -11.40778 -11.39033 -11.32765 -11.31915 -11.31370
 Alpha  occ. eigenvalues --  -11.30496  -1.49654  -1.48501  -1.41881  -1.40012
 Alpha  occ. eigenvalues --   -1.38699  -1.37192  -1.31204  -1.29305  -1.13339
 Alpha  occ. eigenvalues --   -1.11947  -0.98943  -0.97666  -0.89418  -0.87997
 Alpha  occ. eigenvalues --   -0.83852  -0.82229  -0.80701  -0.79339  -0.78109
 Alpha  occ. eigenvalues --   -0.76622  -0.72231  -0.70468  -0.70120  -0.69249
 Alpha  occ. eigenvalues --   -0.68806  -0.68083  -0.65304  -0.64625  -0.63655
 Alpha  occ. eigenvalues --   -0.62355  -0.62050  -0.60903  -0.60517  -0.58869
 Alpha  occ. eigenvalues --   -0.56981  -0.55516  -0.51856  -0.50281  -0.49025
 Alpha  occ. eigenvalues --   -0.47954  -0.47073  -0.46123  -0.44831  -0.42838
 Alpha virt. eigenvalues --    0.00534   0.00671   0.02150   0.02536   0.02937
 Alpha virt. eigenvalues --    0.04155   0.04979   0.05972   0.06822   0.07600
 Alpha virt. eigenvalues --    0.08404   0.08832   0.10359   0.10677   0.10753
 Alpha virt. eigenvalues --    0.11725   0.11947   0.12061   0.13111   0.13428
 Alpha virt. eigenvalues --    0.13493   0.14366   0.14434   0.15098   0.15396
 Alpha virt. eigenvalues --    0.15676   0.15894   0.16324   0.16711   0.17513
 Alpha virt. eigenvalues --    0.18011   0.18673   0.18756   0.18905   0.19430
 Alpha virt. eigenvalues --    0.20762   0.21432   0.21784   0.21969   0.22594
 Alpha virt. eigenvalues --    0.23281   0.23949   0.24782   0.25966   0.26593
 Alpha virt. eigenvalues --    0.26994   0.27037   0.27568   0.27917   0.28453
 Alpha virt. eigenvalues --    0.28718   0.29477   0.29621   0.30270   0.30523
 Alpha virt. eigenvalues --    0.30788   0.31380   0.31757   0.32210   0.32506
 Alpha virt. eigenvalues --    0.33187   0.33555   0.34256   0.34678   0.34909
 Alpha virt. eigenvalues --    0.35353   0.36124   0.36269   0.36783   0.37199
 Alpha virt. eigenvalues --    0.38425   0.38706   0.39205   0.39533   0.39955
 Alpha virt. eigenvalues --    0.40118   0.40812   0.41484   0.42182   0.42667
 Alpha virt. eigenvalues --    0.43013   0.43466   0.43951   0.44021   0.44994
 Alpha virt. eigenvalues --    0.45392   0.46723   0.47104   0.48013   0.48487
 Alpha virt. eigenvalues --    0.49250   0.49327   0.50331   0.50727   0.51111
 Alpha virt. eigenvalues --    0.51603   0.52423   0.52777   0.53359   0.53825
 Alpha virt. eigenvalues --    0.54594   0.55213   0.56552   0.56761   0.57195
 Alpha virt. eigenvalues --    0.58023   0.58301   0.58892   0.59994   0.60218
 Alpha virt. eigenvalues --    0.60876   0.61222   0.61544   0.62157   0.63148
 Alpha virt. eigenvalues --    0.63410   0.64382   0.64495   0.65847   0.66288
 Alpha virt. eigenvalues --    0.67344   0.67664   0.68019   0.69037   0.69848
 Alpha virt. eigenvalues --    0.70994   0.71288   0.71725   0.72931   0.73643
 Alpha virt. eigenvalues --    0.74486   0.75607   0.75962   0.77208   0.77732
 Alpha virt. eigenvalues --    0.79614   0.80050   0.81153   0.81389   0.81803
 Alpha virt. eigenvalues --    0.82177   0.82550   0.84185   0.84970   0.85683
 Alpha virt. eigenvalues --    0.86513   0.87145   0.87845   0.89045   0.89580
 Alpha virt. eigenvalues --    0.91047   0.91353   0.91865   0.92204   0.92858
 Alpha virt. eigenvalues --    0.93424   0.94499   0.95022   0.95290   0.95669
 Alpha virt. eigenvalues --    0.96041   0.96457   0.97678   0.99111   0.99597
 Alpha virt. eigenvalues --    1.00419   1.01164   1.02737   1.03747   1.04817
 Alpha virt. eigenvalues --    1.06307   1.06856   1.08486   1.09009   1.09857
 Alpha virt. eigenvalues --    1.10543   1.12278   1.12973   1.14464   1.14960
 Alpha virt. eigenvalues --    1.16467   1.16863   1.17398   1.19318   1.19795
 Alpha virt. eigenvalues --    1.20382   1.21434   1.22297   1.22941   1.23239
 Alpha virt. eigenvalues --    1.24248   1.25757   1.26404   1.27242   1.28141
 Alpha virt. eigenvalues --    1.28580   1.29373   1.31175   1.31762   1.32030
 Alpha virt. eigenvalues --    1.33339   1.34720   1.35643   1.37732   1.38382
 Alpha virt. eigenvalues --    1.38567   1.39531   1.40734   1.41832   1.42842
 Alpha virt. eigenvalues --    1.43654   1.45340   1.45805   1.48235   1.49242
 Alpha virt. eigenvalues --    1.49938   1.51600   1.52728   1.53575   1.54450
 Alpha virt. eigenvalues --    1.55196   1.56194   1.57268   1.58351   1.59598
 Alpha virt. eigenvalues --    1.60747   1.61341   1.61928   1.63123   1.63835
 Alpha virt. eigenvalues --    1.65030   1.66550   1.67635   1.68200   1.69306
 Alpha virt. eigenvalues --    1.70854   1.72016   1.72551   1.73317   1.74599
 Alpha virt. eigenvalues --    1.76597   1.77659   1.78557   1.79459   1.81181
 Alpha virt. eigenvalues --    1.81683   1.83424   1.84506   1.86743   1.86798
 Alpha virt. eigenvalues --    1.87706   1.89066   1.89738   1.90313   1.91620
 Alpha virt. eigenvalues --    1.92840   1.93574   1.94206   1.96062   1.97575
 Alpha virt. eigenvalues --    1.98345   1.99605   2.02288   2.02439   2.04321
 Alpha virt. eigenvalues --    2.05332   2.06338   2.06866   2.08373   2.09485
 Alpha virt. eigenvalues --    2.10698   2.11143   2.12782   2.13443   2.14182
 Alpha virt. eigenvalues --    2.15091   2.15774   2.16212   2.16972   2.17804
 Alpha virt. eigenvalues --    2.19464   2.21142   2.22668   2.24250   2.24867
 Alpha virt. eigenvalues --    2.27644   2.28681   2.29654   2.30641   2.32030
 Alpha virt. eigenvalues --    2.32938   2.33892   2.36004   2.37385   2.38683
 Alpha virt. eigenvalues --    2.40122   2.40938   2.41612   2.43677   2.44921
 Alpha virt. eigenvalues --    2.46546   2.46786   2.47416   2.48215   2.49660
 Alpha virt. eigenvalues --    2.52749   2.56190   2.58418   2.64610   2.66810
 Alpha virt. eigenvalues --    2.75031   2.77087   2.81018   2.81672   2.83716
 Alpha virt. eigenvalues --    2.86200   2.86994   2.89477   2.92056   2.95072
 Alpha virt. eigenvalues --    2.96492   2.98741   3.06353   3.08173   3.12259
 Alpha virt. eigenvalues --    3.14900   3.17984   3.19850   3.21140   3.24784
 Alpha virt. eigenvalues --    3.28532   3.30166   3.32344   3.36489   3.42100
 Alpha virt. eigenvalues --    3.43825   3.44732   3.50282   3.50499   3.50831
 Alpha virt. eigenvalues --    3.52079   3.55017   3.56589   3.58641   3.59275
 Alpha virt. eigenvalues --    3.59763   3.60878   3.61783   3.62255   3.64077
 Alpha virt. eigenvalues --    3.64570   3.65750   3.66560   3.68184   3.68584
 Alpha virt. eigenvalues --    3.69775   3.70526   3.71294   3.73578   3.75238
 Alpha virt. eigenvalues --    3.76205   3.77368   3.78531   3.80878   3.85966
 Alpha virt. eigenvalues --    3.86934   3.87882   3.88615   3.96424   3.96680
 Alpha virt. eigenvalues --    4.00545   4.01883   4.03136   4.04782   4.11953
 Alpha virt. eigenvalues --    4.13783   4.29371   4.32992   4.48690   4.52518
          Condensed to atoms (all electrons):
 Mulliken charges:
               1
     1  C    0.570543
     2  O   -0.515628
     3  H    0.331766
     4  O   -0.498008
     5  C    0.607572
     6  H   -0.526783
     7  C    1.082744
     8  H   -0.568589
     9  C    0.470041
    10  O   -0.603394
    11  H    0.297942
    12  O   -0.662835
    13  C    0.626445
    14  O   -0.512281
    15  H    0.374727
    16  O   -0.520116
    17  C    0.509810
    18  H   -0.448286
    19  C    0.756518
    20  H   -0.442869
    21  C    0.565187
    22  O   -0.552546
    23  H    0.284061
    24  O   -0.626022
 Sum of Mulliken charges =  -0.00000
 Mulliken charges with hydrogens summed into heavy atoms:
               1
     1  C    0.570543
     2  O   -0.183862
     4  O   -0.498008
     5  C    0.080788
     7  C    0.514155
     9  C    0.470041
    10  O   -0.305452
    12  O   -0.662835
    13  C    0.626445
    14  O   -0.137554
    16  O   -0.520116
    17  C    0.061524
    19  C    0.313650
    21  C    0.565187
    22  O   -0.268485
    24  O   -0.626022
 Electronic spatial extent (au):  <R**2>=           3521.1367
 Charge=             -0.0000 electrons
 Dipole moment (field-independent basis, Debye):
    X=             11.4872    Y=              7.2136    Z=             -3.9475  Tot=             14.1270

 Test job not archived.
 1\1\GINC-SE335\SP\RHF\Aug-CC-pVDZ\C8H8O8\OHZDE\08-Apr-2025\0\\#t hf au
 g-cc-pvdz iop(5/13=1,5/36=2,99/5=2) pseudo=read geom=check guess=(read
 ,tcheck) scf=(maxcycle=1)\\title\\0,1\C,0,-1.647553,10.845738,6.203201
 \O,0,-2.15126,10.135432,5.220314\H,0,-2.044314,9.136168,5.373168\O,0,-
 1.751616,12.068249,6.16272\C,0,-0.955798,10.207203,7.360275\H,0,-0.559
 945,10.946547,8.044089\C,0,-0.752528,8.923996,7.681774\H,0,-0.206856,8
 .720057,8.594701\C,0,-1.192451,7.714058,6.945301\O,0,-0.824514,6.60627
 6,7.53547\H,0,-1.177353,5.797481,7.049024\O,0,-1.842498,7.729101,5.897
 324\C,0,2.045747,10.845738,6.203201\O,0,1.54204,10.135432,5.220314\H,0
 ,1.648986,9.136168,5.373168\O,0,1.941684,12.068249,6.16272\C,0,2.73750
 2,10.207203,7.360275\H,0,3.133355,10.946547,8.044089\C,0,2.940772,8.92
 3996,7.681774\H,0,3.486444,8.720057,8.594701\C,0,2.500849,7.714058,6.9
 45301\O,0,2.868786,6.606276,7.53547\H,0,2.515947,5.797481,7.049024\O,0
 ,1.850802,7.729101,5.897324\\Version=ES64L-G16RevC.01\State=1-A\HF=-90
 6.9305771\RMSD=5.901e-03\Dipole=1.8877232,-4.4426702,2.7551025\Quadrup
 ole=2.1760205,-2.470632,0.2946115,4.7824657,-1.7557239,6.1364437\PG=C0
 1 [X(C8H8O8)]\\@


 MY GROUP MEETINGS AREN'T VERY STRUCTURED.
     -- PROF. M. S. GORDON, OCT. 5, 1984
 Job cpu time:       0 days  0 hours  5 minutes 51.8 seconds.
 Elapsed time:       0 days  0 hours  0 minutes 23.9 seconds.
 File lengths (MBytes):  RWF=     30 Int=      0 D2E=      0 Chk=     26 Scr=      1
 Normal termination of Gaussian 16 at Tue Apr  8 19:09:29 2025.
