 Entering Gaussian System, Link 0=g16
 Input=ANI1ccx_455_conf10_mol2.gjf
 Output=ANI1ccx_455_conf10_mol2.log
 Initial command:
 /arc/software/Gaussian/g16.c01/l1.exe "/tmp/slurm/4838504/Gau-1724588.inp" -scrdir="/tmp/slurm/4838504/"
 Entering Link 1 = /arc/software/Gaussian/g16.c01/l1.exe PID=   1724589.
  
 Copyright (c) 1988-2019, Gaussian, Inc.  All Rights Reserved.
  
 This is part of the Gaussian(R) 16 program.  It is based on
 the Gaussian(R) 09 system (copyright 2009, Gaussian, Inc.),
 the Gaussian(R) 03 system (copyright 2003, Gaussian, Inc.),
 the Gaussian(R) 98 system (copyright 1998, Gaussian, Inc.),
 the Gaussian(R) 94 system (copyright 1995, Gaussian, Inc.),
 the Gaussian 92(TM) system (copyright 1992, Gaussian, Inc.),
 the Gaussian 90(TM) system (copyright 1990, Gaussian, Inc.),
 the Gaussian 88(TM) system (copyright 1988, Gaussian, Inc.),
 the Gaussian 86(TM) system (copyright 1986, Carnegie Mellon
 University), and the Gaussian 82(TM) system (copyright 1983,
 Carnegie Mellon University). Gaussian is a federally registered
 trademark of Gaussian, Inc.
  
 This software contains proprietary and confidential information,
 including trade secrets, belonging to Gaussian, Inc.
  
 This software is provided under written license and may be
 used, copied, transmitted, or stored only in accord with that
 written license.
  
 The following legend is applicable only to US Government
 contracts under FAR:
  
                    RESTRICTED RIGHTS LEGEND
  
 Use, reproduction and disclosure by the US Government is
 subject to restrictions as set forth in subparagraphs (a)
 and (c) of the Commercial Computer Software - Restricted
 Rights clause in FAR 52.227-19.
  
 Gaussian, Inc.
 340 Quinnipiac St., Bldg. 40, Wallingford CT 06492
  
  
 ---------------------------------------------------------------
 Warning -- This program may not be used in any manner that
 competes with the business of Gaussian, Inc. or will provide
 assistance to any competitor of Gaussian, Inc.  The licensee
 of this program is prohibited from giving any competitor of
 Gaussian, Inc. access to this program.  By using this program,
 the user acknowledges that Gaussian, Inc. is engaged in the
 business of creating and licensing software in the field of
 computational chemistry and represents and warrants to the
 licensee that it is not a competitor of Gaussian, Inc. and that
 it will not use this program in any manner prohibited above.
 ---------------------------------------------------------------
  

 Cite this work as:
 Gaussian 16, Revision C.01,
 M. J. Frisch, G. W. Trucks, H. B. Schlegel, G. E. Scuseria, 
 M. A. Robb, J. R. Cheeseman, G. Scalmani, V. Barone, 
 G. A. Petersson, H. Nakatsuji, X. Li, M. Caricato, A. V. Marenich, 
 J. Bloino, B. G. Janesko, R. Gomperts, B. Mennucci, H. P. Hratchian, 
 J. V. Ortiz, A. F. Izmaylov, J. L. Sonnenberg, D. Williams-Young, 
 F. Ding, F. Lipparini, F. Egidi, J. Goings, B. Peng, A. Petrone, 
 T. Henderson, D. Ranasinghe, V. G. Zakrzewski, J. Gao, N. Rega, 
 G. Zheng, W. Liang, M. Hada, M. Ehara, K. Toyota, R. Fukuda, 
 J. Hasegawa, M. Ishida, T. Nakajima, Y. Honda, O. Kitao, H. Nakai, 
 T. Vreven, K. Throssell, J. A. Montgomery, Jr., J. E. Peralta, 
 F. Ogliaro, M. J. Bearpark, J. J. Heyd, E. N. Brothers, K. N. Kudin, 
 V. N. Staroverov, T. A. Keith, R. Kobayashi, J. Normand, 
 K. Raghavachari, A. P. Rendell, J. C. Burant, S. S. Iyengar, 
 J. Tomasi, M. Cossi, J. M. Millam, M. Klene, C. Adamo, R. Cammi, 
 J. W. Ochterski, R. L. Martin, K. Morokuma, O. Farkas, 
 J. B. Foresman, and D. J. Fox, Gaussian, Inc., Wallingford CT, 2019.
 
 ******************************************
 Gaussian 16:  ES64L-G16RevC.01  3-Jul-2019
                 8-Apr-2025 
 ******************************************
 %nprocs=16
 Will use up to   16 processors via shared memory.
 %mem=30GB
 %chk=ANI1ccx_455_conf10_mol2.chk
 ----------------------------------------------------------------------
 #t hf aug-cc-pvdz symm=none int=(grid=ultrafine) guess=(read,tcheck) s
 table=(opt,rrhf)
 ----------------------------------------------------------------------
 -----
 title
 -----
 Symbolic Z-matrix:
 Charge =  0 Multiplicity = 1
 C                     0.76718   0.0177    0.00474 
 N                    -1.36745  -0.62489  -0.01078 
 N                    -1.37877   0.60467  -0.01735 
 O                     1.95053  -0.00723  -0.01752 
 O                    -0.05521  -1.07522   0.01796 
 O                    -0.06776   1.08687   0.02062 
 
                    Distance matrix (angstroms):
                    1          2          3          4          5
     1  C    0.000000
     2  N    2.229310   0.000000
     3  N    2.224888   1.229636   0.000000
     4  O    1.183821   3.374987   3.385066   0.000000
     5  O    1.367841   1.387656   2.138947   2.272631   0.000000
     6  O    1.356649   2.149490   1.397390   2.296088   2.162128
                    6
     6  O    0.000000
 Symmetry turned off by external request.
 Rotational constants (GHZ):          10.5283212           4.1813073           2.9935584
   138 basis functions,   258 primitive gaussians,   150 cartesian basis functions
    22 alpha electrons       22 beta electrons
       nuclear repulsion energy       232.8494164554 Hartrees.
 NAtoms=    6 NActive=    6 NUniq=    6 SFac= 1.00D+00 NAtFMM=   60 NAOKFM=F Big=F
 ExpMin= 4.04D-02 ExpMax= 1.17D+04 ExpMxC= 4.01D+02 IAcc=3 IRadAn=         5 AccDes= 0.00D+00
 Harris functional with IExCor=  205 and IRadAn=       5 diagonalized for initial guess.
 HarFok:  IExCor=  205 AccDes= 0.00D+00 IRadAn=         5 IDoV= 1 UseB2=F ITyADJ=14
 ICtDFT=  3500011 ScaDFX=  1.000000  1.000000  1.000000  1.000000
 FoFCou: FMM=F IPFlag=           0 FMFlag=      100000 FMFlg1=           0
         NFxFlg=           0 DoJE=T BraDBF=F KetDBF=T FulRan=T
         wScrn=  0.000000 ICntrl=       500 IOpCl=  0 I1Cent=   200000004 NGrid=           0
         NMat0=    1 NMatS0=      1 NMatT0=    0 NMatD0=    1 NMtDS0=    0 NMtDT0=    0
 Symmetry not used in FoFCou.
 SCF Done:  E(RHF) =  -371.291348680     A.U. after   14 cycles
            NFock= 14  Conv=0.56D-08     -V/T= 2.0019

 **********************************************************************

            Population analysis using the SCF Density.

 **********************************************************************

 Alpha  occ. eigenvalues --  -20.73198 -20.72941 -20.61586 -15.78150 -15.77979
 Alpha  occ. eigenvalues --  -11.50404  -1.67337  -1.49496  -1.48033  -1.35447
 Alpha  occ. eigenvalues --   -0.99836  -0.95422  -0.80025  -0.79780  -0.71436
 Alpha  occ. eigenvalues --   -0.68345  -0.64078  -0.63437  -0.61647  -0.60194
 Alpha  occ. eigenvalues --   -0.51266  -0.49496
 Alpha virt. eigenvalues --    0.06590   0.06927   0.08192   0.08248   0.08935
 Alpha virt. eigenvalues --    0.12280   0.12934   0.15548   0.15858   0.16997
 Alpha virt. eigenvalues --    0.18993   0.19771   0.20942   0.23042   0.25106
 Alpha virt. eigenvalues --    0.26033   0.26508   0.27670   0.29851   0.29910
 Alpha virt. eigenvalues --    0.30104   0.31396   0.32379   0.33463   0.34427
 Alpha virt. eigenvalues --    0.38997   0.39732   0.47506   0.48888   0.53057
 Alpha virt. eigenvalues --    0.55779   0.57220   0.61052   0.63865   0.64427
 Alpha virt. eigenvalues --    0.71105   0.71596   0.78106   0.78807   0.78891
 Alpha virt. eigenvalues --    0.82519   0.83410   0.84014   0.89356   0.90025
 Alpha virt. eigenvalues --    0.92037   0.97115   0.97456   1.00661   1.00924
 Alpha virt. eigenvalues --    1.06399   1.12871   1.13290   1.13788   1.15726
 Alpha virt. eigenvalues --    1.16376   1.19454   1.20777   1.25382   1.29860
 Alpha virt. eigenvalues --    1.32980   1.33819   1.35170   1.36374   1.40784
 Alpha virt. eigenvalues --    1.41132   1.43128   1.45829   1.56283   1.58122
 Alpha virt. eigenvalues --    1.59227   1.70789   1.73774   1.74719   1.81953
 Alpha virt. eigenvalues --    1.85188   1.95546   2.00003   2.04043   2.06987
 Alpha virt. eigenvalues --    2.13818   2.16414   2.19351   2.24210   2.34827
 Alpha virt. eigenvalues --    2.36537   2.47756   2.56569   2.56758   2.58662
 Alpha virt. eigenvalues --    2.62676   2.67732   2.79464   2.91970   2.94768
 Alpha virt. eigenvalues --    3.00203   3.09486   3.25312   3.30864   3.34098
 Alpha virt. eigenvalues --    3.60065   3.60591   3.62825   3.63529   3.65953
 Alpha virt. eigenvalues --    3.68031   3.69128   3.78861   3.78971   3.79253
 Alpha virt. eigenvalues --    3.82454   3.86551   3.98857   4.12267   4.16376
 Alpha virt. eigenvalues --    4.42189
          Condensed to atoms (all electrons):
 Mulliken charges:
               1
     1  C    1.268266
     2  N    0.357377
     3  N    0.349214
     4  O   -0.555330
     5  O   -0.714180
     6  O   -0.705347
 Sum of Mulliken charges =  -0.00000
 Mulliken charges with hydrogens summed into heavy atoms:
               1
     1  C    1.268266
     2  N    0.357377
     3  N    0.349214
     4  O   -0.555330
     5  O   -0.714180
     6  O   -0.705347
 Electronic spatial extent (au):  <R**2>=            378.6455
 Charge=             -0.0000 electrons
 Dipole moment (field-independent basis, Debye):
    X=             -1.7057    Y=              0.0478    Z=              0.0319  Tot=              1.7066
 NROrb=    138 NOA=    22 NOB=    22 NVA=   116 NVB=   116

 **** Warning!!: The largest alpha MO coefficient is  0.27829717D+02

    12 initial guesses have been made.
 Iteration     1 Dimension    12 NMult     0 NNew     12
 New state      1 was old state      2
 Iteration     2 Dimension    24 NMult    12 NNew     12
 Iteration     3 Dimension    27 NMult    24 NNew      3
 Iteration     4 Dimension    30 NMult    27 NNew      3
 Iteration     5 Dimension    33 NMult    30 NNew      3
 Iteration     6 Dimension    36 NMult    33 NNew      3
 ***********************************************************************
 Stability analysis using <AA,BB:AA,BB> singles matrix:
 ***********************************************************************
 Ground to excited state transition densities written to RWF  633

 Eigenvectors of the stability matrix:
 
 Excited state symmetry could not be determined.
 Eigenvector   1:      Singlet-?Sym  Eigenvalue= 0.2708491  <S**2>=0.000
      20 -> 24        -0.39423
      21 -> 24         0.49345
      22 -> 35         0.13101
 The wavefunction is stable under the perturbations considered.
 The wavefunction is already stable.

 **********************************************************************

            Population analysis using the SCF Density.

 **********************************************************************

 Alpha  occ. eigenvalues --  -20.73198 -20.72941 -20.61586 -15.78150 -15.77979
 Alpha  occ. eigenvalues --  -11.50404  -1.67337  -1.49496  -1.48033  -1.35447
 Alpha  occ. eigenvalues --   -0.99836  -0.95422  -0.80025  -0.79780  -0.71436
 Alpha  occ. eigenvalues --   -0.68345  -0.64078  -0.63437  -0.61647  -0.60194
 Alpha  occ. eigenvalues --   -0.51266  -0.49496
 Alpha virt. eigenvalues --    0.06590   0.06927   0.08192   0.08248   0.08935
 Alpha virt. eigenvalues --    0.12280   0.12934   0.15548   0.15858   0.16997
 Alpha virt. eigenvalues --    0.18993   0.19771   0.20942   0.23042   0.25106
 Alpha virt. eigenvalues --    0.26033   0.26508   0.27670   0.29851   0.29910
 Alpha virt. eigenvalues --    0.30104   0.31396   0.32379   0.33463   0.34427
 Alpha virt. eigenvalues --    0.38997   0.39732   0.47506   0.48888   0.53057
 Alpha virt. eigenvalues --    0.55779   0.57220   0.61052   0.63865   0.64427
 Alpha virt. eigenvalues --    0.71105   0.71596   0.78106   0.78807   0.78891
 Alpha virt. eigenvalues --    0.82519   0.83410   0.84014   0.89356   0.90025
 Alpha virt. eigenvalues --    0.92037   0.97115   0.97456   1.00661   1.00924
 Alpha virt. eigenvalues --    1.06399   1.12871   1.13290   1.13788   1.15726
 Alpha virt. eigenvalues --    1.16376   1.19454   1.20777   1.25382   1.29860
 Alpha virt. eigenvalues --    1.32980   1.33819   1.35170   1.36374   1.40784
 Alpha virt. eigenvalues --    1.41132   1.43128   1.45829   1.56283   1.58122
 Alpha virt. eigenvalues --    1.59227   1.70789   1.73774   1.74719   1.81953
 Alpha virt. eigenvalues --    1.85188   1.95546   2.00003   2.04043   2.06987
 Alpha virt. eigenvalues --    2.13818   2.16414   2.19351   2.24210   2.34827
 Alpha virt. eigenvalues --    2.36537   2.47756   2.56569   2.56758   2.58662
 Alpha virt. eigenvalues --    2.62676   2.67732   2.79464   2.91970   2.94768
 Alpha virt. eigenvalues --    3.00203   3.09486   3.25312   3.30864   3.34098
 Alpha virt. eigenvalues --    3.60065   3.60591   3.62825   3.63529   3.65953
 Alpha virt. eigenvalues --    3.68031   3.69128   3.78861   3.78971   3.79253
 Alpha virt. eigenvalues --    3.82454   3.86551   3.98857   4.12267   4.16376
 Alpha virt. eigenvalues --    4.42189
          Condensed to atoms (all electrons):
 Mulliken charges:
               1
     1  C    1.268266
     2  N    0.357377
     3  N    0.349214
     4  O   -0.555330
     5  O   -0.714180
     6  O   -0.705347
 Sum of Mulliken charges =  -0.00000
 Mulliken charges with hydrogens summed into heavy atoms:
               1
     1  C    1.268266
     2  N    0.357377
     3  N    0.349214
     4  O   -0.555330
     5  O   -0.714180
     6  O   -0.705347
 Electronic spatial extent (au):  <R**2>=            378.6455
 Charge=             -0.0000 electrons
 Dipole moment (field-independent basis, Debye):
    X=             -1.7057    Y=              0.0478    Z=              0.0319  Tot=              1.7066
 Unable to Open any file for archive entry.
 1\1\GINC-SE334\Stability\RHF\Aug-CC-pVDZ\C1N2O3\OHZDE\08-Apr-2025\0\\#
 t hf aug-cc-pvdz symm=none int=(grid=ultrafine) guess=(read,tcheck) st
 able=(opt,rrhf)\\title\\0,1\C,0,0.767181,0.0177046,0.00473527\N,0,-1.3
 6745,-0.624893,-0.0107786\N,0,-1.37877,0.604673,-0.0173544\O,0,1.95053
 ,-0.00723447,-0.0175179\O,0,-0.0552116,-1.07522,0.0179621\O,0,-0.06776
 16,1.08687,0.0206207\\Version=ES64L-G16RevC.01\HF=-371.2913487\RMSD=5.
 641e-09\Dipole=-0.6710654,0.0188185,0.0125572\Quadrupole=-3.2507258,0.
 1833027,3.0674232,0.0827435,0.0357021,-0.0017088\PG=Unknown\\@
 The archive entry for this job was punched.


 Human beings, who are almost unique in having the
 ability to learn from the experience of others, are
 also remarkable for their apparent disinclination to do so.
                               -- Douglas Adams,
                                Last Chance to See
 Job cpu time:       0 days  0 hours  0 minutes 37.6 seconds.
 Elapsed time:       0 days  0 hours  0 minutes  4.5 seconds.
 File lengths (MBytes):  RWF=    131 Int=      0 D2E=      0 Chk=      4 Scr=      1
 Normal termination of Gaussian 16 at Tue Apr  8 21:38:41 2025.
 Initial command:
 /arc/software/Gaussian/g16.c01/l1.exe "/tmp/slurm/4838504/Gau-1724588.inp" -scrdir="/tmp/slurm/4838504/"
 Entering Link 1 = /arc/software/Gaussian/g16.c01/l1.exe PID=   1724921.
  
 Copyright (c) 1988-2019, Gaussian, Inc.  All Rights Reserved.
  
 This is part of the Gaussian(R) 16 program.  It is based on
 the Gaussian(R) 09 system (copyright 2009, Gaussian, Inc.),
 the Gaussian(R) 03 system (copyright 2003, Gaussian, Inc.),
 the Gaussian(R) 98 system (copyright 1998, Gaussian, Inc.),
 the Gaussian(R) 94 system (copyright 1995, Gaussian, Inc.),
 the Gaussian 92(TM) system (copyright 1992, Gaussian, Inc.),
 the Gaussian 90(TM) system (copyright 1990, Gaussian, Inc.),
 the Gaussian 88(TM) system (copyright 1988, Gaussian, Inc.),
 the Gaussian 86(TM) system (copyright 1986, Carnegie Mellon
 University), and the Gaussian 82(TM) system (copyright 1983,
 Carnegie Mellon University). Gaussian is a federally registered
 trademark of Gaussian, Inc.
  
 This software contains proprietary and confidential information,
 including trade secrets, belonging to Gaussian, Inc.
  
 This software is provided under written license and may be
 used, copied, transmitted, or stored only in accord with that
 written license.
  
 The following legend is applicable only to US Government
 contracts under FAR:
  
                    RESTRICTED RIGHTS LEGEND
  
 Use, reproduction and disclosure by the US Government is
 subject to restrictions as set forth in subparagraphs (a)
 and (c) of the Commercial Computer Software - Restricted
 Rights clause in FAR 52.227-19.
  
 Gaussian, Inc.
 340 Quinnipiac St., Bldg. 40, Wallingford CT 06492
  
  
 ---------------------------------------------------------------
 Warning -- This program may not be used in any manner that
 competes with the business of Gaussian, Inc. or will provide
 assistance to any competitor of Gaussian, Inc.  The licensee
 of this program is prohibited from giving any competitor of
 Gaussian, Inc. access to this program.  By using this program,
 the user acknowledges that Gaussian, Inc. is engaged in the
 business of creating and licensing software in the field of
 computational chemistry and represents and warrants to the
 licensee that it is not a competitor of Gaussian, Inc. and that
 it will not use this program in any manner prohibited above.
 ---------------------------------------------------------------
  

 Cite this work as:
 Gaussian 16, Revision C.01,
 M. J. Frisch, G. W. Trucks, H. B. Schlegel, G. E. Scuseria, 
 M. A. Robb, J. R. Cheeseman, G. Scalmani, V. Barone, 
 G. A. Petersson, H. Nakatsuji, X. Li, M. Caricato, A. V. Marenich, 
 J. Bloino, B. G. Janesko, R. Gomperts, B. Mennucci, H. P. Hratchian, 
 J. V. Ortiz, A. F. Izmaylov, J. L. Sonnenberg, D. Williams-Young, 
 F. Ding, F. Lipparini, F. Egidi, J. Goings, B. Peng, A. Petrone, 
 T. Henderson, D. Ranasinghe, V. G. Zakrzewski, J. Gao, N. Rega, 
 G. Zheng, W. Liang, M. Hada, M. Ehara, K. Toyota, R. Fukuda, 
 J. Hasegawa, M. Ishida, T. Nakajima, Y. Honda, O. Kitao, H. Nakai, 
 T. Vreven, K. Throssell, J. A. Montgomery, Jr., J. E. Peralta, 
 F. Ogliaro, M. J. Bearpark, J. J. Heyd, E. N. Brothers, K. N. Kudin, 
 V. N. Staroverov, T. A. Keith, R. Kobayashi, J. Normand, 
 K. Raghavachari, A. P. Rendell, J. C. Burant, S. S. Iyengar, 
 J. Tomasi, M. Cossi, J. M. Millam, M. Klene, C. Adamo, R. Cammi, 
 J. W. Ochterski, R. L. Martin, K. Morokuma, O. Farkas, 
 J. B. Foresman, and D. J. Fox, Gaussian, Inc., Wallingford CT, 2019.
 
 ******************************************
 Gaussian 16:  ES64L-G16RevC.01  3-Jul-2019
                 8-Apr-2025 
 ******************************************
 %nprocs=16
 Will use up to   16 processors via shared memory.
 %mem=30GB
 %chk=ANI1ccx_455_conf10_mol2.chk
 ----------------------------------------------------------------------
 #t hf aug-cc-pvdz iop(5/13=1,5/36=2,99/5=2) pseudo=read geom=check gue
 ss=(read,tcheck) scf=(maxcycle=1)
 ----------------------------------------------------------------------
 -----
 title
 -----
 Structure from the checkpoint file:  "ANI1ccx_455_conf10_mol2.chk"
 Charge =  0 Multiplicity = 1
 Z-Matrix found in chk file.
 C,0,0.767181,0.0177046,0.00473527
 N,0,-1.36745,-0.624893,-0.0107786
 N,0,-1.37877,0.604673,-0.0173544
 O,0,1.95053,-0.00723447,-0.0175179
 O,0,-0.0552116,-1.07522,0.0179621
 O,0,-0.0677616,1.08687,0.0206207
 Recover connectivity data from disk.
                    Distance matrix (angstroms):
                    1          2          3          4          5
     1  C    0.000000
     2  N    2.229310   0.000000
     3  N    2.224888   1.229636   0.000000
     4  O    1.183821   3.374987   3.385066   0.000000
     5  O    1.367841   1.387656   2.138947   2.272631   0.000000
     6  O    1.356649   2.149490   1.397390   2.296088   2.162128
                    6
     6  O    0.000000
 Framework group  C1[X(CN2O3)]
 Deg. of freedom    12
                         Standard orientation:                         
 ---------------------------------------------------------------------
 Center     Atomic      Atomic             Coordinates (Angstroms)
 Number     Number       Type             X           Y           Z
 ---------------------------------------------------------------------
      1          6           0        0.767181    0.017705    0.004735
      2          7           0       -1.367450   -0.624894   -0.010779
      3          7           0       -1.378770    0.604672   -0.017354
      4          8           0        1.950530   -0.007233   -0.017518
      5          8           0       -0.055211   -1.075220    0.017962
      6          8           0       -0.067762    1.086870    0.020621
 ---------------------------------------------------------------------
 Rotational constants (GHZ):          10.5283212           4.1813073           2.9935584
 ======================================================================================================
                                       Pseudopotential Parameters
 ======================================================================================================
  Center     Atomic      Valence      Angular      Power
  Number     Number     Electrons     Momentum     of R      Exponent        Coefficient   SO-Coeffient
 ======================================================================================================
    1          6            6
                                      G and up 
                                                     0        0.0000010       -0.00011185    0.00000000
                                                     2        0.1200000       -0.02301220    0.00000000
                                                     2        0.1400000        0.13317600    0.00000000
                                                     2        0.1600000       -0.19690668    0.00000000
                                                     2        0.2200000        0.23163694    0.00000000
                                                     2        0.3000000       -0.36920489    0.00000000
                                                     2        0.4000000        0.36389709    0.00000000
                                                     2        0.7000000       -0.38862160    0.00000000
                                                     2        1.3000000        0.80803421    0.00000000
                                      S - G
                                                     0        0.0000010        0.00312304    0.00000000
                                                     2        0.1200000       -0.00632892    0.00000000
                                                     2        0.2200000       -0.03780897    0.00000000
                                                     2        0.4000000        0.26269560    0.00000000
                                                     2        0.9000000       -0.28209514    0.00000000
                                                     2        1.5000000       -0.72686737    0.00000000
                                      P - G
                                                     0        0.0000010       -0.01465594    0.00000000
                                                     2        0.1200000        0.07908409    0.00000000
                                                     2        0.1800000       -0.30615861    0.00000000
                                                     2        0.2600000        0.41506950    0.00000000
                                                     2        0.5000000       -0.36252345    0.00000000
                                                     2        0.9000000        0.15124193    0.00000000
                                                     2        3.0000000       -0.80425677    0.00000000
                                      D - G
                                                     0        0.0000010        0.01149631    0.00000000
                                                     2        0.1200000       -0.04713561    0.00000000
                                                     2        0.1600000        0.10865096    0.00000000
                                                     2        0.2800000       -0.15816701    0.00000000
                                                     2        0.7000000        0.65478804    0.00000000
                                                     2        1.3000000       -1.73816624    0.00000000
                                      F - G
                                                     0        0.0000010        0.00481868    0.00000000
                                                     2        0.1200000       -0.04746842    0.00000000
                                                     2        0.1600000        0.09327889    0.00000000
                                                     2        0.4000000       -0.19693326    0.00000000
                                                     2        0.9000000        0.34938253    0.00000000
    2          7            7
                                      G and up 
                                                     0        0.0000010       -0.00000022    0.00000000
                                                     2        0.1200000       -0.00992020    0.00000000
                                                     2        0.1400000        0.02578711    0.00000000
                                                     2        0.2200000       -0.10543517    0.00000000
                                                     2        0.3000000        0.23013665    0.00000000
                                                     2        0.5000000       -0.60834094    0.00000000
                                                     2        0.8000000        1.81436815    0.00000000
                                                     2        1.2000000       -3.87539738    0.00000000
                                                     2        2.0000000        2.94656640    0.00000000
                                      S - G
                                                     0        0.0000010       -0.00223566    0.00000000
                                                     2        0.1200000        0.45247937    0.00000000
                                                     2        0.1600000       -0.78978304    0.00000000
                                                     2        0.4000000        0.84956595    0.00000000
                                                     2        3.0000000       -0.75910174    0.00000000
                                      P - G
                                                     0        0.0000010       -0.25576737    0.00000000
                                                     2        0.1200000       -0.19992277    0.00000000
                                                     2        0.1600000        0.88518512    0.00000000
                                                     2        0.2400000       -1.33293917    0.00000000
                                                     2        0.4000000        1.33451776    0.00000000
                                                     2        0.9000000       -0.55709210    0.00000000
                                                     2        2.5000000        2.48506502    0.00000000
                                      D - G
                                                     0        0.0000010        0.26143746    0.00000000
                                                     2        0.1200000       -0.04492212    0.00000000
                                                     2        0.1400000       -0.18274021    0.00000000
                                                     2        0.2400000        0.53490004    0.00000000
                                                     2        0.4000000       -0.74136473    0.00000000
                                                     2        1.3000000        1.71401021    0.00000000
                                      F - G
                                                     0        0.0000010       -0.07169988    0.00000000
                                                     2        0.1200000        0.04480029    0.00000000
                                                     2        0.2600000       -0.08050831    0.00000000
                                                     2        0.5000000        0.31290809    0.00000000
                                                     2        1.0000000       -0.45253098    0.00000000
    3          7            7
                                      G and up 
                                                     0        0.0000010       -0.00000022    0.00000000
                                                     2        0.1200000       -0.00992020    0.00000000
                                                     2        0.1400000        0.02578711    0.00000000
                                                     2        0.2200000       -0.10543517    0.00000000
                                                     2        0.3000000        0.23013665    0.00000000
                                                     2        0.5000000       -0.60834094    0.00000000
                                                     2        0.8000000        1.81436815    0.00000000
                                                     2        1.2000000       -3.87539738    0.00000000
                                                     2        2.0000000        2.94656640    0.00000000
                                      S - G
                                                     0        0.0000010       -0.00223566    0.00000000
                                                     2        0.1200000        0.45247937    0.00000000
                                                     2        0.1600000       -0.78978304    0.00000000
                                                     2        0.4000000        0.84956595    0.00000000
                                                     2        3.0000000       -0.75910174    0.00000000
                                      P - G
                                                     0        0.0000010       -0.25576737    0.00000000
                                                     2        0.1200000       -0.19992277    0.00000000
                                                     2        0.1600000        0.88518512    0.00000000
                                                     2        0.2400000       -1.33293917    0.00000000
                                                     2        0.4000000        1.33451776    0.00000000
                                                     2        0.9000000       -0.55709210    0.00000000
                                                     2        2.5000000        2.48506502    0.00000000
                                      D - G
                                                     0        0.0000010        0.26143746    0.00000000
                                                     2        0.1200000       -0.04492212    0.00000000
                                                     2        0.1400000       -0.18274021    0.00000000
                                                     2        0.2400000        0.53490004    0.00000000
                                                     2        0.4000000       -0.74136473    0.00000000
                                                     2        1.3000000        1.71401021    0.00000000
                                      F - G
                                                     0        0.0000010       -0.07169988    0.00000000
                                                     2        0.1200000        0.04480029    0.00000000
                                                     2        0.2600000       -0.08050831    0.00000000
                                                     2        0.5000000        0.31290809    0.00000000
                                                     2        1.0000000       -0.45253098    0.00000000
    4          8            8
                                      G and up 
                                                     0        0.0000010        0.00001165    0.00000000
                                                     2        0.1200000       -0.01744018    0.00000000
                                                     2        0.1400000        0.05401326    0.00000000
                                                     2        0.1800000       -0.08231208    0.00000000
                                                     2        0.2600000        0.11570222    0.00000000
                                                     2        0.4000000       -0.20630360    0.00000000
                                                     2        0.7000000        0.38074319    0.00000000
                                                     2        1.2000000       -0.17045091    0.00000000
                                                     2        2.0000000       -1.45433187    0.00000000
                                      S - G
                                                     0        0.0000010       -0.00117944    0.00000000
                                                     2        0.1400000        0.04368312    0.00000000
                                                     2        0.3000000       -0.33477926    0.00000000
                                                     2        0.6000000        1.52630657    0.00000000
                                                     2        1.5000000       -2.50804716    0.00000000
                                                     2        3.0000000        2.89751681    0.00000000
                                      P - G
                                                     0        0.0000010        0.06576007    0.00000000
                                                     2        0.1200000       -0.10329304    0.00000000
                                                     2        0.2000000        0.24891756    0.00000000
                                                     2        0.4000000       -0.50800022    0.00000000
                                                     2        0.9000000        0.81480796    0.00000000
                                      D - G
                                                     0        0.0000010       -0.14101855    0.00000000
                                                     2        0.1200000        0.22105937    0.00000000
                                                     2        0.1800000       -0.45814988    0.00000000
                                                     2        0.3000000        0.46029282    0.00000000
                                      F - G
                                                     0        0.0000010        0.07483044    0.00000000
                                                     2        0.1200000       -0.09134252    0.00000000
                                                     2        0.1400000        0.04125459    0.00000000
                                                     2        0.3000000        0.37914837    0.00000000
                                                     2        0.5000000       -0.86881279    0.00000000
    5          8            8
                                      G and up 
                                                     0        0.0000010        0.00001165    0.00000000
                                                     2        0.1200000       -0.01744018    0.00000000
                                                     2        0.1400000        0.05401326    0.00000000
                                                     2        0.1800000       -0.08231208    0.00000000
                                                     2        0.2600000        0.11570222    0.00000000
                                                     2        0.4000000       -0.20630360    0.00000000
                                                     2        0.7000000        0.38074319    0.00000000
                                                     2        1.2000000       -0.17045091    0.00000000
                                                     2        2.0000000       -1.45433187    0.00000000
                                      S - G
                                                     0        0.0000010       -0.00117944    0.00000000
                                                     2        0.1400000        0.04368312    0.00000000
                                                     2        0.3000000       -0.33477926    0.00000000
                                                     2        0.6000000        1.52630657    0.00000000
                                                     2        1.5000000       -2.50804716    0.00000000
                                                     2        3.0000000        2.89751681    0.00000000
                                      P - G
                                                     0        0.0000010        0.06576007    0.00000000
                                                     2        0.1200000       -0.10329304    0.00000000
                                                     2        0.2000000        0.24891756    0.00000000
                                                     2        0.4000000       -0.50800022    0.00000000
                                                     2        0.9000000        0.81480796    0.00000000
                                      D - G
                                                     0        0.0000010       -0.14101855    0.00000000
                                                     2        0.1200000        0.22105937    0.00000000
                                                     2        0.1800000       -0.45814988    0.00000000
                                                     2        0.3000000        0.46029282    0.00000000
                                      F - G
                                                     0        0.0000010        0.07483044    0.00000000
                                                     2        0.1200000       -0.09134252    0.00000000
                                                     2        0.1400000        0.04125459    0.00000000
                                                     2        0.3000000        0.37914837    0.00000000
                                                     2        0.5000000       -0.86881279    0.00000000
    6          8            8
                                      G and up 
                                                     0        0.0000010        0.00001165    0.00000000
                                                     2        0.1200000       -0.01744018    0.00000000
                                                     2        0.1400000        0.05401326    0.00000000
                                                     2        0.1800000       -0.08231208    0.00000000
                                                     2        0.2600000        0.11570222    0.00000000
                                                     2        0.4000000       -0.20630360    0.00000000
                                                     2        0.7000000        0.38074319    0.00000000
                                                     2        1.2000000       -0.17045091    0.00000000
                                                     2        2.0000000       -1.45433187    0.00000000
                                      S - G
                                                     0        0.0000010       -0.00117944    0.00000000
                                                     2        0.1400000        0.04368312    0.00000000
                                                     2        0.3000000       -0.33477926    0.00000000
                                                     2        0.6000000        1.52630657    0.00000000
                                                     2        1.5000000       -2.50804716    0.00000000
                                                     2        3.0000000        2.89751681    0.00000000
                                      P - G
                                                     0        0.0000010        0.06576007    0.00000000
                                                     2        0.1200000       -0.10329304    0.00000000
                                                     2        0.2000000        0.24891756    0.00000000
                                                     2        0.4000000       -0.50800022    0.00000000
                                                     2        0.9000000        0.81480796    0.00000000
                                      D - G
                                                     0        0.0000010       -0.14101855    0.00000000
                                                     2        0.1200000        0.22105937    0.00000000
                                                     2        0.1800000       -0.45814988    0.00000000
                                                     2        0.3000000        0.46029282    0.00000000
                                      F - G
                                                     0        0.0000010        0.07483044    0.00000000
                                                     2        0.1200000       -0.09134252    0.00000000
                                                     2        0.1400000        0.04125459    0.00000000
                                                     2        0.3000000        0.37914837    0.00000000
                                                     2        0.5000000       -0.86881279    0.00000000
 ======================================================================================================
   138 basis functions,   258 primitive gaussians,   150 cartesian basis functions
    22 alpha electrons       22 beta electrons
       nuclear repulsion energy       232.8494164554 Hartrees.
 NAtoms=    6 NActive=    6 NUniq=    6 SFac= 1.00D+00 NAtFMM=   60 NAOKFM=F Big=F
   1 Symmetry operations used in ECPInt.
 ECPInt:  NShTT=    1485 NPrTT=    9861 LenC2=    1484 LenP2D=    7322.
 LDataN:  DoStor=T MaxTD1= 6 Len=  172
 Initial guess from the checkpoint file:  "ANI1ccx_455_conf10_mol2.chk"
 B after Tr=    -0.000000   -0.000001    0.000000
         Rot=    1.000000    0.000000    0.000000   -0.000000 Ang=  -0.00 deg.
 >>>>>>>>>> Convergence criterion not met.
 SCF Done:  E(RHF) =  -371.405229542     A.U. after    2 cycles
            NFock=  1  Conv=0.34D-02     -V/T= 1.9983

 **********************************************************************

            Population analysis using the SCF Density.

 **********************************************************************

 Orbital symmetries:
       Occupied  (A) (A) (A) (A) (A) (A) (A) (A) (A) (A) (A) (A)
                 (A) (A) (A) (A) (A) (A) (A) (A) (A) (A)
       Virtual   (A) (A) (A) (A) (A) (A) (A) (A) (A) (A) (A) (A)
                 (A) (A) (A) (A) (A) (A) (A) (A) (A) (A) (A) (A)
                 (A) (A) (A) (A) (A) (A) (A) (A) (A) (A) (A) (A)
                 (A) (A) (A) (A) (A) (A) (A) (A) (A) (A) (A) (A)
                 (A) (A) (A) (A) (A) (A) (A) (A) (A) (A) (A) (A)
                 (A) (A) (A) (A) (A) (A) (A) (A) (A) (A) (A) (A)
                 (A) (A) (A) (A) (A) (A) (A) (A) (A) (A) (A) (A)
                 (A) (A) (A) (A) (A) (A) (A) (A) (A) (A) (A) (A)
                 (A) (A) (A) (A) (A) (A) (A) (A) (A) (A) (A) (A)
                 (A) (A) (A) (A) (A) (A) (A) (A)
 The electronic state is 1-A.
 Alpha  occ. eigenvalues --  -20.73757 -20.73499 -20.62101 -15.84003 -15.83839
 Alpha  occ. eigenvalues --  -11.51015  -1.61973  -1.44894  -1.44119  -1.31795
 Alpha  occ. eigenvalues --   -0.99350  -0.95997  -0.81015  -0.80704  -0.72682
 Alpha  occ. eigenvalues --   -0.69586  -0.66094  -0.63120  -0.62279  -0.61043
 Alpha  occ. eigenvalues --   -0.52626  -0.50694
 Alpha virt. eigenvalues --    0.06773   0.07367   0.07721   0.07765   0.09007
 Alpha virt. eigenvalues --    0.12275   0.12623   0.14803   0.16028   0.16549
 Alpha virt. eigenvalues --    0.19146   0.20277   0.20718   0.23285   0.25117
 Alpha virt. eigenvalues --    0.25862   0.26625   0.27701   0.29506   0.29532
 Alpha virt. eigenvalues --    0.29894   0.31338   0.32261   0.33460   0.34284
 Alpha virt. eigenvalues --    0.39009   0.39648   0.46247   0.48835   0.52682
 Alpha virt. eigenvalues --    0.55859   0.57213   0.60939   0.63673   0.64200
 Alpha virt. eigenvalues --    0.70692   0.71186   0.78288   0.78455   0.78944
 Alpha virt. eigenvalues --    0.82602   0.83197   0.84355   0.89784   0.90096
 Alpha virt. eigenvalues --    0.92145   0.97005   0.97845   1.00954   1.01230
 Alpha virt. eigenvalues --    1.06742   1.13264   1.13927   1.14372   1.16237
 Alpha virt. eigenvalues --    1.16540   1.20003   1.21021   1.24977   1.29205
 Alpha virt. eigenvalues --    1.32772   1.33556   1.35179   1.36088   1.40006
 Alpha virt. eigenvalues --    1.41040   1.41498   1.45691   1.55834   1.56336
 Alpha virt. eigenvalues --    1.57539   1.70495   1.71973   1.73707   1.79657
 Alpha virt. eigenvalues --    1.83415   1.94308   1.97955   2.02385   2.04441
 Alpha virt. eigenvalues --    2.15578   2.17231   2.24300   2.29737   2.31609
 Alpha virt. eigenvalues --    2.39950   2.56220   2.57490   2.59670   2.67791
 Alpha virt. eigenvalues --    2.68650   2.70298   2.81937   2.97362   3.04430
 Alpha virt. eigenvalues --    3.07563   3.16512   3.23784   3.31382   3.34419
 Alpha virt. eigenvalues --    3.45109   3.47064   3.48248   3.50575   3.53566
 Alpha virt. eigenvalues --    3.53707   3.56443   3.63554   3.64147   3.67784
 Alpha virt. eigenvalues --    3.71640   3.72960   3.85069   4.01477   4.02406
 Alpha virt. eigenvalues --    4.31573
          Condensed to atoms (all electrons):
 Mulliken charges:
               1
     1  C    0.832422
     2  N    0.270395
     3  N    0.259817
     4  O   -0.333461
     5  O   -0.520482
     6  O   -0.508692
 Sum of Mulliken charges =  -0.00000
 Mulliken charges with hydrogens summed into heavy atoms:
               1
     1  C    0.832422
     2  N    0.270395
     3  N    0.259817
     4  O   -0.333461
     5  O   -0.520482
     6  O   -0.508692
 Electronic spatial extent (au):  <R**2>=            378.1435
 Charge=              0.0000 electrons
 Dipole moment (field-independent basis, Debye):
    X=             -1.9977    Y=              0.0506    Z=              0.0273  Tot=              1.9985

 Test job not archived.
 1\1\GINC-SE334\SP\RHF\Aug-CC-pVDZ\C1N2O3\OHZDE\08-Apr-2025\0\\#t hf au
 g-cc-pvdz iop(5/13=1,5/36=2,99/5=2) pseudo=read geom=check guess=(read
 ,tcheck) scf=(maxcycle=1)\\title\\0,1\C,0,0.767181,0.0177046,0.0047352
 7\N,0,-1.36745,-0.624893,-0.0107786\N,0,-1.37877,0.604673,-0.0173544\O
 ,0,1.95053,-0.00723447,-0.0175179\O,0,-0.0552116,-1.07522,0.0179621\O,
 0,-0.0677616,1.08687,0.0206207\\Version=ES64L-G16RevC.01\State=1-A\HF=
 -371.4052295\RMSD=3.419e-03\Dipole=-0.785951,0.0199199,0.0107263\Quadr
 upole=-3.2440529,0.0548763,3.1891766,0.0904761,0.0404949,-0.0025536\PG
 =C01 [X(C1N2O3)]\\@


 GARLIC THEN HAVE POWER TO SAVE FROM DEATH
 BEAR WITH IT THOUGH IT MAKETH UNSAVORY BREATH,
 AND SCORN NOT GARLIC LIKE SOME THAT THINK
 IT ONLY MAKETH MEN WINK AND DRINK AND STINK.
   --  SIR JOHN HARRINGTON,
       "THE ENGLISHMAN'S DOCTOR", 1609
 Job cpu time:       0 days  0 hours  0 minutes 21.2 seconds.
 Elapsed time:       0 days  0 hours  0 minutes  2.2 seconds.
 File lengths (MBytes):  RWF=      6 Int=      0 D2E=      0 Chk=      4 Scr=      1
 Normal termination of Gaussian 16 at Tue Apr  8 21:38:43 2025.
