 Entering Gaussian System, Link 0=g16
 Input=ANI1ccx_1844_conf344_mol1.gjf
 Output=ANI1ccx_1844_conf344_mol1.log
 Initial command:
 /arc/software/Gaussian/g16.c01/l1.exe "/tmp/slurm/4836918/Gau-1448066.inp" -scrdir="/tmp/slurm/4836918/"
 Entering Link 1 = /arc/software/Gaussian/g16.c01/l1.exe PID=   1448084.
  
 Copyright (c) 1988-2019, Gaussian, Inc.  All Rights Reserved.
  
 This is part of the Gaussian(R) 16 program.  It is based on
 the Gaussian(R) 09 system (copyright 2009, Gaussian, Inc.),
 the Gaussian(R) 03 system (copyright 2003, Gaussian, Inc.),
 the Gaussian(R) 98 system (copyright 1998, Gaussian, Inc.),
 the Gaussian(R) 94 system (copyright 1995, Gaussian, Inc.),
 the Gaussian 92(TM) system (copyright 1992, Gaussian, Inc.),
 the Gaussian 90(TM) system (copyright 1990, Gaussian, Inc.),
 the Gaussian 88(TM) system (copyright 1988, Gaussian, Inc.),
 the Gaussian 86(TM) system (copyright 1986, Carnegie Mellon
 University), and the Gaussian 82(TM) system (copyright 1983,
 Carnegie Mellon University). Gaussian is a federally registered
 trademark of Gaussian, Inc.
  
 This software contains proprietary and confidential information,
 including trade secrets, belonging to Gaussian, Inc.
  
 This software is provided under written license and may be
 used, copied, transmitted, or stored only in accord with that
 written license.
  
 The following legend is applicable only to US Government
 contracts under FAR:
  
                    RESTRICTED RIGHTS LEGEND
  
 Use, reproduction and disclosure by the US Government is
 subject to restrictions as set forth in subparagraphs (a)
 and (c) of the Commercial Computer Software - Restricted
 Rights clause in FAR 52.227-19.
  
 Gaussian, Inc.
 340 Quinnipiac St., Bldg. 40, Wallingford CT 06492
  
  
 ---------------------------------------------------------------
 Warning -- This program may not be used in any manner that
 competes with the business of Gaussian, Inc. or will provide
 assistance to any competitor of Gaussian, Inc.  The licensee
 of this program is prohibited from giving any competitor of
 Gaussian, Inc. access to this program.  By using this program,
 the user acknowledges that Gaussian, Inc. is engaged in the
 business of creating and licensing software in the field of
 computational chemistry and represents and warrants to the
 licensee that it is not a competitor of Gaussian, Inc. and that
 it will not use this program in any manner prohibited above.
 ---------------------------------------------------------------
  

 Cite this work as:
 Gaussian 16, Revision C.01,
 M. J. Frisch, G. W. Trucks, H. B. Schlegel, G. E. Scuseria, 
 M. A. Robb, J. R. Cheeseman, G. Scalmani, V. Barone, 
 G. A. Petersson, H. Nakatsuji, X. Li, M. Caricato, A. V. Marenich, 
 J. Bloino, B. G. Janesko, R. Gomperts, B. Mennucci, H. P. Hratchian, 
 J. V. Ortiz, A. F. Izmaylov, J. L. Sonnenberg, D. Williams-Young, 
 F. Ding, F. Lipparini, F. Egidi, J. Goings, B. Peng, A. Petrone, 
 T. Henderson, D. Ranasinghe, V. G. Zakrzewski, J. Gao, N. Rega, 
 G. Zheng, W. Liang, M. Hada, M. Ehara, K. Toyota, R. Fukuda, 
 J. Hasegawa, M. Ishida, T. Nakajima, Y. Honda, O. Kitao, H. Nakai, 
 T. Vreven, K. Throssell, J. A. Montgomery, Jr., J. E. Peralta, 
 F. Ogliaro, M. J. Bearpark, J. J. Heyd, E. N. Brothers, K. N. Kudin, 
 V. N. Staroverov, T. A. Keith, R. Kobayashi, J. Normand, 
 K. Raghavachari, A. P. Rendell, J. C. Burant, S. S. Iyengar, 
 J. Tomasi, M. Cossi, J. M. Millam, M. Klene, C. Adamo, R. Cammi, 
 J. W. Ochterski, R. L. Martin, K. Morokuma, O. Farkas, 
 J. B. Foresman, and D. J. Fox, Gaussian, Inc., Wallingford CT, 2019.
 
 ******************************************
 Gaussian 16:  ES64L-G16RevC.01  3-Jul-2019
                 8-Apr-2025 
 ******************************************
 %nprocs=16
 Will use up to   16 processors via shared memory.
 %mem=30GB
 %chk=ANI1ccx_1844_conf344_mol1.chk
 ----------------------------------------------------------------------
 #t hf aug-cc-pvdz symm=none int=(grid=ultrafine) guess=(read,tcheck) s
 table=(opt,rrhf)
 ----------------------------------------------------------------------
 -----
 title
 -----
 Symbolic Z-matrix:
 Charge =  0 Multiplicity = 1
 H                    -1.24164  -1.87576   1.61917 
 H                    -2.36937   0.79446  -0.11141 
 H                    -3.444    -0.1109   -0.60648 
 H                     1.87327   1.00674   0.56228 
 H                     1.30024   2.08891   1.61614 
 H                    -0.29553   1.97063  -0.22992 
 H                    -1.88768  -1.2638    0.36477 
 H                    -1.52311   2.84055  -0.94694 
 H                     1.14822  -2.70374  -0.71681 
 H                     0.17355  -1.52809  -0.19313 
 H                     2.51773  -0.95558  -0.25357 
 H                     3.403     0.34873  -0.69127 
 O                     1.34615   1.8914    0.6404 
 O                     0.85608  -1.77588  -0.88822 
 O                    -3.00235   0.09936   0.20454 
 O                    -1.06614   1.92001  -0.76866 
 O                    -1.19119  -1.95406   0.63458 
 O                     3.10063  -0.25735   0.12576 
 
                    Distance matrix (angstroms):
                    1          2          3          4          5
     1  H    0.000000
     2  H    3.375913   0.000000
     3  H    3.594251   1.489832   0.000000
     4  H    4.373613   4.301037   5.557740   0.000000
     5  H    4.709540   4.257473   5.682166   1.615573   0.000000
     6  H    4.371382   2.387098   3.793078   2.502069   2.443032
     7  H    1.537982   2.166846   2.166710   4.397625   4.792644
     8  H    5.376592   2.366588   3.537907   4.144395   3.886600
     9  H    3.442931   4.997736   5.274797   3.991168   5.332471
    10  H    2.325522   3.444902   3.907163   3.144054   4.198284
    11  H    4.299619   5.192939   6.031605   2.220730   3.774522
    12  H    5.644392   5.818519   6.862934   2.084330   3.574067
    13  O    4.673987   3.946337   5.339423   1.032754   0.996591
    14  O    3.270688   4.196855   4.619761   3.298729   4.626630
    15  O    3.000397   0.991794   0.947111   4.972221   4.946028
    16  O    4.487804   1.843158   3.131311   3.353444   3.363858
    17  O    0.988984   3.082044   3.164274   4.261746   4.849359
    18  O    4.868761   5.575255   6.587093   1.815185   3.311737
                    6          7          8          9         10
     6  H    0.000000
     7  H    3.653785   0.000000
     8  H    1.666686   4.324255   0.000000
     9  H    4.916421   3.529861   6.158581   0.000000
    10  H    3.530216   2.151685   4.746777   1.614430   0.000000
    11  H    4.059273   4.459257   5.587467   2.268525   2.413839
    12  H    4.064788   5.630875   5.526400   3.795031   3.768285
    13  O    1.859794   4.526468   3.413676   4.795466   3.709809
    14  O    3.974404   3.059477   5.193785   0.987752   1.005187
    15  O    3.319230   1.768155   3.320870   5.092494   3.590690
    16  O    0.941617   3.477963   1.043073   5.126904   3.709103
    17  O    4.117374   1.017034   5.059612   2.803768   1.651986
    18  O    4.077290   5.094438   5.668038   3.241393   3.206912
                   11         12         13         14         15
    11  H    0.000000
    12  H    1.636007   0.000000
    13  O    3.205788   2.895478   0.000000
    14  O    1.958767   3.322586   4.003222   0.000000
    15  O    5.638622   6.472493   4.723433   4.426976   0.000000
    16  O    4.623687   4.737945   2.793813   4.167591   2.830332
    17  O    3.942315   5.307288   4.607135   2.557729   2.771602
    18  O    0.985486   1.061269   2.821382   2.893457   6.113904
                   16         17         18
    16  O    0.000000
    17  O    4.122273   0.000000
    18  O    4.785693   4.642999   0.000000
 Symmetry turned off by external request.
 Rotational constants (GHZ):           1.6456949           1.0672066           0.7299704
   246 basis functions,   390 primitive gaussians,   258 cartesian basis functions
    30 alpha electrons       30 beta electrons
       nuclear repulsion energy       272.8537467699 Hartrees.
 NAtoms=   18 NActive=   18 NUniq=   18 SFac= 1.00D+00 NAtFMM=   60 NAOKFM=F Big=F
 ExpMin= 2.97D-02 ExpMax= 1.17D+04 ExpMxC= 4.01D+02 IAcc=3 IRadAn=         5 AccDes= 0.00D+00
 Harris functional with IExCor=  205 and IRadAn=       5 diagonalized for initial guess.
 HarFok:  IExCor=  205 AccDes= 0.00D+00 IRadAn=         5 IDoV= 1 UseB2=F ITyADJ=14
 ICtDFT=  3500011 ScaDFX=  1.000000  1.000000  1.000000  1.000000
 FoFCou: FMM=F IPFlag=           0 FMFlag=      100000 FMFlg1=           0
         NFxFlg=           0 DoJE=T BraDBF=F KetDBF=T FulRan=T
         wScrn=  0.000000 ICntrl=       500 IOpCl=  0 I1Cent=   200000004 NGrid=           0
         NMat0=    1 NMatS0=      1 NMatT0=    0 NMatD0=    1 NMtDS0=    0 NMtDT0=    0
 Symmetry not used in FoFCou.
 SCF Done:  E(RHF) =  -456.243311193     A.U. after   11 cycles
            NFock= 11  Conv=0.79D-08     -V/T= 2.0028

 **********************************************************************

            Population analysis using the SCF Density.

 **********************************************************************

 Alpha  occ. eigenvalues --  -20.58181 -20.57934 -20.57622 -20.57561 -20.57483
 Alpha  occ. eigenvalues --  -20.54912  -1.36631  -1.34400  -1.34184  -1.33300
 Alpha  occ. eigenvalues --   -1.32059  -1.30798  -0.72783  -0.71428  -0.70536
 Alpha  occ. eigenvalues --   -0.69921  -0.69023  -0.68612  -0.62095  -0.60104
 Alpha  occ. eigenvalues --   -0.59097  -0.57090  -0.55664  -0.54590  -0.50880
 Alpha  occ. eigenvalues --   -0.50613  -0.50320  -0.49875  -0.49486  -0.47886
 Alpha virt. eigenvalues --    0.02821   0.04278   0.04723   0.05166   0.06300
 Alpha virt. eigenvalues --    0.07005   0.08220   0.09013   0.09999   0.10464
 Alpha virt. eigenvalues --    0.10849   0.12050   0.17502   0.18105   0.18322
 Alpha virt. eigenvalues --    0.19627   0.19904   0.20926   0.21731   0.22543
 Alpha virt. eigenvalues --    0.22811   0.23384   0.24316   0.24882   0.25158
 Alpha virt. eigenvalues --    0.26563   0.27216   0.27450   0.28458   0.29498
 Alpha virt. eigenvalues --    0.29693   0.29941   0.30875   0.31548   0.31886
 Alpha virt. eigenvalues --    0.33058   0.34019   0.34976   0.37241   0.37548
 Alpha virt. eigenvalues --    0.38027   0.39752   0.40320   0.42000   0.43052
 Alpha virt. eigenvalues --    0.43353   0.45382   0.45924   0.46736   0.47734
 Alpha virt. eigenvalues --    0.48430   0.49803   0.50457   0.50653   0.51381
 Alpha virt. eigenvalues --    0.51566   0.53328   0.54078   0.55033   0.55997
 Alpha virt. eigenvalues --    0.56716   0.58278   0.58907   0.59967   0.61035
 Alpha virt. eigenvalues --    0.61974   0.62693   0.63908   0.65243   0.66290
 Alpha virt. eigenvalues --    0.66726   0.67491   0.68231   0.69088   0.70301
 Alpha virt. eigenvalues --    0.70738   0.71825   0.72195   0.78897   0.80530
 Alpha virt. eigenvalues --    0.83519   0.84774   0.86732   0.89070   0.91355
 Alpha virt. eigenvalues --    0.93771   0.95164   0.98070   1.00585   1.02106
 Alpha virt. eigenvalues --    1.02310   1.03948   1.05038   1.06933   1.10249
 Alpha virt. eigenvalues --    1.10855   1.16097   1.17672   1.18189   1.19271
 Alpha virt. eigenvalues --    1.20556   1.21431   1.22900   1.23507   1.25057
 Alpha virt. eigenvalues --    1.26306   1.27047   1.28053   1.29203   1.30334
 Alpha virt. eigenvalues --    1.32745   1.34099   1.35343   1.36097   1.39366
 Alpha virt. eigenvalues --    1.39764   1.43632   1.46173   1.46649   1.48791
 Alpha virt. eigenvalues --    1.51560   1.52124   1.55887   1.57944   1.58124
 Alpha virt. eigenvalues --    1.61975   1.64702   1.67876   1.69358   1.70482
 Alpha virt. eigenvalues --    1.73207   1.78869   1.84642   1.90072   1.91895
 Alpha virt. eigenvalues --    1.95222   1.96468   1.98623   1.98909   2.00053
 Alpha virt. eigenvalues --    2.04348   2.04670   2.05688   2.07225   2.07484
 Alpha virt. eigenvalues --    2.12063   2.12404   2.14827   2.17942   2.19418
 Alpha virt. eigenvalues --    2.20880   2.24220   2.25995   2.26278   2.34550
 Alpha virt. eigenvalues --    2.36236   2.39504   2.41069   2.43114   2.43484
 Alpha virt. eigenvalues --    2.47827   2.48468   2.48878   2.53046   2.54205
 Alpha virt. eigenvalues --    2.56706   2.61598   2.62175   2.73502   2.74902
 Alpha virt. eigenvalues --    2.77217   2.78010   2.80686   2.81609   2.85859
 Alpha virt. eigenvalues --    2.87457   2.89507   2.94489   2.95694   3.04175
 Alpha virt. eigenvalues --    3.08301   3.11271   3.15559   3.18608   3.20835
 Alpha virt. eigenvalues --    3.25124   3.72470   3.72946   3.73408   3.73831
 Alpha virt. eigenvalues --    3.75018   3.75434   3.76669   3.77214   3.77638
 Alpha virt. eigenvalues --    3.79307   3.80136   3.80871   3.83575   3.84964
 Alpha virt. eigenvalues --    3.87347   3.89076   3.90810   3.92219   4.06746
 Alpha virt. eigenvalues --    4.09521   4.11125   4.13641   4.16515   4.20116
 Alpha virt. eigenvalues --    4.32049   4.34126   4.38232   4.40286   4.41638
 Alpha virt. eigenvalues --    4.45880
          Condensed to atoms (all electrons):
 Mulliken charges:
               1
     1  H    0.221638
     2  H    0.341170
     3  H    0.156330
     4  H    0.380332
     5  H    0.221838
     6  H    0.277502
     7  H    0.383840
     8  H    0.284502
     9  H    0.213310
    10  H    0.389314
    11  H    0.290490
    12  H    0.294510
    13  O   -0.612398
    14  O   -0.552073
    15  O   -0.487916
    16  O   -0.547373
    17  O   -0.643568
    18  O   -0.611449
 Sum of Mulliken charges =  -0.00000
 Mulliken charges with hydrogens summed into heavy atoms:
               1
    13  O   -0.010227
    14  O    0.050552
    15  O    0.009584
    16  O    0.014632
    17  O   -0.038090
    18  O   -0.026449
 Electronic spatial extent (au):  <R**2>=           1558.1252
 Charge=             -0.0000 electrons
 Dipole moment (field-independent basis, Debye):
    X=             -0.9589    Y=              1.4049    Z=              0.8842  Tot=              1.9170
 NROrb=    246 NOA=    30 NOB=    30 NVA=   216 NVB=   216
    12 initial guesses have been made.
 Iteration     1 Dimension    12 NMult     0 NNew     12
 Iteration     2 Dimension    24 NMult    12 NNew     12
 Iteration     3 Dimension    27 NMult    24 NNew      3
 Iteration     4 Dimension    30 NMult    27 NNew      3
 Iteration     5 Dimension    33 NMult    30 NNew      3
 Iteration     6 Dimension    36 NMult    33 NNew      3
 Iteration     7 Dimension    39 NMult    36 NNew      3
 Iteration     8 Dimension    42 NMult    39 NNew      3
 Iteration     9 Dimension    45 NMult    42 NNew      3
 Iteration    10 Dimension    48 NMult    45 NNew      3
 New state      1 was old state      2
 Iteration    11 Dimension    51 NMult    48 NNew      3
 Iteration    12 Dimension    54 NMult    51 NNew      3
 Iteration    13 Dimension    57 NMult    54 NNew      3
 Iteration    14 Dimension    60 NMult    57 NNew      3
 ***********************************************************************
 Stability analysis using <AA,BB:AA,BB> singles matrix:
 ***********************************************************************
 Ground to excited state transition densities written to RWF  633

 Eigenvectors of the stability matrix:
 
 Excited state symmetry could not be determined.
 Eigenvector   1:      Singlet-?Sym  Eigenvalue= 0.3259565  <S**2>=0.000
      25 -> 31        -0.25002
      25 -> 32        -0.22076
      25 -> 35         0.15552
      25 -> 43        -0.15886
      25 -> 48        -0.11826
      25 -> 49        -0.12328
      26 -> 31         0.15559
      26 -> 32         0.14302
      26 -> 43         0.10284
      27 -> 31        -0.24213
      27 -> 32        -0.14241
      27 -> 43        -0.12344
 The wavefunction is stable under the perturbations considered.
 The wavefunction is already stable.

 **********************************************************************

            Population analysis using the SCF Density.

 **********************************************************************

 Alpha  occ. eigenvalues --  -20.58181 -20.57934 -20.57622 -20.57561 -20.57483
 Alpha  occ. eigenvalues --  -20.54912  -1.36631  -1.34400  -1.34184  -1.33300
 Alpha  occ. eigenvalues --   -1.32059  -1.30798  -0.72783  -0.71428  -0.70536
 Alpha  occ. eigenvalues --   -0.69921  -0.69023  -0.68612  -0.62095  -0.60104
 Alpha  occ. eigenvalues --   -0.59097  -0.57090  -0.55664  -0.54590  -0.50880
 Alpha  occ. eigenvalues --   -0.50613  -0.50320  -0.49875  -0.49486  -0.47886
 Alpha virt. eigenvalues --    0.02821   0.04278   0.04723   0.05166   0.06300
 Alpha virt. eigenvalues --    0.07005   0.08220   0.09013   0.09999   0.10464
 Alpha virt. eigenvalues --    0.10849   0.12050   0.17502   0.18105   0.18322
 Alpha virt. eigenvalues --    0.19627   0.19904   0.20926   0.21731   0.22543
 Alpha virt. eigenvalues --    0.22811   0.23384   0.24316   0.24882   0.25158
 Alpha virt. eigenvalues --    0.26563   0.27216   0.27450   0.28458   0.29498
 Alpha virt. eigenvalues --    0.29693   0.29941   0.30875   0.31548   0.31886
 Alpha virt. eigenvalues --    0.33058   0.34019   0.34976   0.37241   0.37548
 Alpha virt. eigenvalues --    0.38027   0.39752   0.40320   0.42000   0.43052
 Alpha virt. eigenvalues --    0.43353   0.45382   0.45924   0.46736   0.47734
 Alpha virt. eigenvalues --    0.48430   0.49803   0.50457   0.50653   0.51381
 Alpha virt. eigenvalues --    0.51566   0.53328   0.54078   0.55033   0.55997
 Alpha virt. eigenvalues --    0.56716   0.58278   0.58907   0.59967   0.61035
 Alpha virt. eigenvalues --    0.61974   0.62693   0.63908   0.65243   0.66290
 Alpha virt. eigenvalues --    0.66726   0.67491   0.68231   0.69088   0.70301
 Alpha virt. eigenvalues --    0.70738   0.71825   0.72195   0.78897   0.80530
 Alpha virt. eigenvalues --    0.83519   0.84774   0.86732   0.89070   0.91355
 Alpha virt. eigenvalues --    0.93771   0.95164   0.98070   1.00585   1.02106
 Alpha virt. eigenvalues --    1.02310   1.03948   1.05038   1.06933   1.10249
 Alpha virt. eigenvalues --    1.10855   1.16097   1.17672   1.18189   1.19271
 Alpha virt. eigenvalues --    1.20556   1.21431   1.22900   1.23507   1.25057
 Alpha virt. eigenvalues --    1.26306   1.27047   1.28053   1.29203   1.30334
 Alpha virt. eigenvalues --    1.32745   1.34099   1.35343   1.36097   1.39366
 Alpha virt. eigenvalues --    1.39764   1.43632   1.46173   1.46649   1.48791
 Alpha virt. eigenvalues --    1.51560   1.52124   1.55887   1.57944   1.58124
 Alpha virt. eigenvalues --    1.61975   1.64702   1.67876   1.69358   1.70482
 Alpha virt. eigenvalues --    1.73207   1.78869   1.84642   1.90072   1.91895
 Alpha virt. eigenvalues --    1.95222   1.96468   1.98623   1.98909   2.00053
 Alpha virt. eigenvalues --    2.04348   2.04670   2.05688   2.07225   2.07484
 Alpha virt. eigenvalues --    2.12063   2.12404   2.14827   2.17942   2.19418
 Alpha virt. eigenvalues --    2.20880   2.24220   2.25995   2.26278   2.34550
 Alpha virt. eigenvalues --    2.36236   2.39504   2.41069   2.43114   2.43484
 Alpha virt. eigenvalues --    2.47827   2.48468   2.48878   2.53046   2.54205
 Alpha virt. eigenvalues --    2.56706   2.61598   2.62175   2.73502   2.74902
 Alpha virt. eigenvalues --    2.77217   2.78010   2.80686   2.81609   2.85859
 Alpha virt. eigenvalues --    2.87457   2.89507   2.94489   2.95694   3.04175
 Alpha virt. eigenvalues --    3.08301   3.11271   3.15559   3.18608   3.20835
 Alpha virt. eigenvalues --    3.25124   3.72470   3.72946   3.73408   3.73831
 Alpha virt. eigenvalues --    3.75018   3.75434   3.76669   3.77214   3.77638
 Alpha virt. eigenvalues --    3.79307   3.80136   3.80871   3.83575   3.84964
 Alpha virt. eigenvalues --    3.87347   3.89076   3.90810   3.92219   4.06746
 Alpha virt. eigenvalues --    4.09521   4.11125   4.13641   4.16515   4.20116
 Alpha virt. eigenvalues --    4.32049   4.34126   4.38232   4.40286   4.41638
 Alpha virt. eigenvalues --    4.45880
          Condensed to atoms (all electrons):
 Mulliken charges:
               1
     1  H    0.221638
     2  H    0.341170
     3  H    0.156330
     4  H    0.380332
     5  H    0.221838
     6  H    0.277502
     7  H    0.383840
     8  H    0.284502
     9  H    0.213310
    10  H    0.389314
    11  H    0.290490
    12  H    0.294510
    13  O   -0.612398
    14  O   -0.552073
    15  O   -0.487916
    16  O   -0.547373
    17  O   -0.643568
    18  O   -0.611449
 Sum of Mulliken charges =  -0.00000
 Mulliken charges with hydrogens summed into heavy atoms:
               1
    13  O   -0.010227
    14  O    0.050552
    15  O    0.009584
    16  O    0.014632
    17  O   -0.038090
    18  O   -0.026449
 Electronic spatial extent (au):  <R**2>=           1558.1252
 Charge=             -0.0000 electrons
 Dipole moment (field-independent basis, Debye):
    X=             -0.9589    Y=              1.4049    Z=              0.8842  Tot=              1.9170
 Unable to Open any file for archive entry.
 1\1\GINC-SE364\Stability\RHF\Aug-CC-pVDZ\H12O6\OHZDE\08-Apr-2025\0\\#t
  hf aug-cc-pvdz symm=none int=(grid=ultrafine) guess=(read,tcheck) sta
 ble=(opt,rrhf)\\title\\0,1\H,0,-1.24164,-1.87576,1.61917\H,0,-2.36937,
 0.794463,-0.111414\H,0,-3.444,-0.110899,-0.60648\H,0,1.87327,1.00674,0
 .56228\H,0,1.30024,2.08891,1.61614\H,0,-0.295527,1.97063,-0.229921\H,0
 ,-1.88768,-1.2638,0.364767\H,0,-1.52311,2.84055,-0.946943\H,0,1.14822,
 -2.70374,-0.716808\H,0,0.173545,-1.52809,-0.19313\H,0,2.51773,-0.95558
 3,-0.253565\H,0,3.403,0.34873,-0.691268\O,0,1.34615,1.8914,0.640396\O,
 0,0.856076,-1.77588,-0.888221\O,0,-3.00235,0.0993626,0.204541\O,0,-1.0
 6614,1.92001,-0.768657\O,0,-1.19119,-1.95406,0.634582\O,0,3.10063,-0.2
 57353,0.125756\\Version=ES64L-G16RevC.01\HF=-456.2433112\RMSD=7.890e-0
 9\Dipole=-0.377242,0.5527185,0.3478544\Quadrupole=-2.2756056,2.0802181
 ,0.1953875,-2.7620315,1.1831024,-1.1709066\PG=Unknown\\@
 The archive entry for this job was punched.


 WE TEND TO MEET ANY NEW SITUATION BY REORGANIZING. IT CAN BE A
 WONDERFUL METHOD FOR CREATING THE ILLUSION OF PROGRESS WHILE PRODUCING
 CONFUSION, INEFFICIENCY, AND DEMORALIZATION.
     -- PETRONIUS ARBITER, 210 B.C.
 Job cpu time:       0 days  0 hours  8 minutes  9.8 seconds.
 Elapsed time:       0 days  0 hours  0 minutes 35.4 seconds.
 File lengths (MBytes):  RWF=    292 Int=      0 D2E=      0 Chk=      9 Scr=      1
 Normal termination of Gaussian 16 at Tue Apr  8 21:06:45 2025.
 Initial command:
 /arc/software/Gaussian/g16.c01/l1.exe "/tmp/slurm/4836918/Gau-1448066.inp" -scrdir="/tmp/slurm/4836918/"
 Entering Link 1 = /arc/software/Gaussian/g16.c01/l1.exe PID=   1448666.
  
 Copyright (c) 1988-2019, Gaussian, Inc.  All Rights Reserved.
  
 This is part of the Gaussian(R) 16 program.  It is based on
 the Gaussian(R) 09 system (copyright 2009, Gaussian, Inc.),
 the Gaussian(R) 03 system (copyright 2003, Gaussian, Inc.),
 the Gaussian(R) 98 system (copyright 1998, Gaussian, Inc.),
 the Gaussian(R) 94 system (copyright 1995, Gaussian, Inc.),
 the Gaussian 92(TM) system (copyright 1992, Gaussian, Inc.),
 the Gaussian 90(TM) system (copyright 1990, Gaussian, Inc.),
 the Gaussian 88(TM) system (copyright 1988, Gaussian, Inc.),
 the Gaussian 86(TM) system (copyright 1986, Carnegie Mellon
 University), and the Gaussian 82(TM) system (copyright 1983,
 Carnegie Mellon University). Gaussian is a federally registered
 trademark of Gaussian, Inc.
  
 This software contains proprietary and confidential information,
 including trade secrets, belonging to Gaussian, Inc.
  
 This software is provided under written license and may be
 used, copied, transmitted, or stored only in accord with that
 written license.
  
 The following legend is applicable only to US Government
 contracts under FAR:
  
                    RESTRICTED RIGHTS LEGEND
  
 Use, reproduction and disclosure by the US Government is
 subject to restrictions as set forth in subparagraphs (a)
 and (c) of the Commercial Computer Software - Restricted
 Rights clause in FAR 52.227-19.
  
 Gaussian, Inc.
 340 Quinnipiac St., Bldg. 40, Wallingford CT 06492
  
  
 ---------------------------------------------------------------
 Warning -- This program may not be used in any manner that
 competes with the business of Gaussian, Inc. or will provide
 assistance to any competitor of Gaussian, Inc.  The licensee
 of this program is prohibited from giving any competitor of
 Gaussian, Inc. access to this program.  By using this program,
 the user acknowledges that Gaussian, Inc. is engaged in the
 business of creating and licensing software in the field of
 computational chemistry and represents and warrants to the
 licensee that it is not a competitor of Gaussian, Inc. and that
 it will not use this program in any manner prohibited above.
 ---------------------------------------------------------------
  

 Cite this work as:
 Gaussian 16, Revision C.01,
 M. J. Frisch, G. W. Trucks, H. B. Schlegel, G. E. Scuseria, 
 M. A. Robb, J. R. Cheeseman, G. Scalmani, V. Barone, 
 G. A. Petersson, H. Nakatsuji, X. Li, M. Caricato, A. V. Marenich, 
 J. Bloino, B. G. Janesko, R. Gomperts, B. Mennucci, H. P. Hratchian, 
 J. V. Ortiz, A. F. Izmaylov, J. L. Sonnenberg, D. Williams-Young, 
 F. Ding, F. Lipparini, F. Egidi, J. Goings, B. Peng, A. Petrone, 
 T. Henderson, D. Ranasinghe, V. G. Zakrzewski, J. Gao, N. Rega, 
 G. Zheng, W. Liang, M. Hada, M. Ehara, K. Toyota, R. Fukuda, 
 J. Hasegawa, M. Ishida, T. Nakajima, Y. Honda, O. Kitao, H. Nakai, 
 T. Vreven, K. Throssell, J. A. Montgomery, Jr., J. E. Peralta, 
 F. Ogliaro, M. J. Bearpark, J. J. Heyd, E. N. Brothers, K. N. Kudin, 
 V. N. Staroverov, T. A. Keith, R. Kobayashi, J. Normand, 
 K. Raghavachari, A. P. Rendell, J. C. Burant, S. S. Iyengar, 
 J. Tomasi, M. Cossi, J. M. Millam, M. Klene, C. Adamo, R. Cammi, 
 J. W. Ochterski, R. L. Martin, K. Morokuma, O. Farkas, 
 J. B. Foresman, and D. J. Fox, Gaussian, Inc., Wallingford CT, 2019.
 
 ******************************************
 Gaussian 16:  ES64L-G16RevC.01  3-Jul-2019
                 8-Apr-2025 
 ******************************************
 %nprocs=16
 Will use up to   16 processors via shared memory.
 %mem=30GB
 %chk=ANI1ccx_1844_conf344_mol1.chk
 ----------------------------------------------------------------------
 #t hf aug-cc-pvdz iop(5/13=1,5/36=2,99/5=2) pseudo=read geom=check gue
 ss=(read,tcheck) scf=(maxcycle=1)
 ----------------------------------------------------------------------
 -----
 title
 -----
 Structure from the checkpoint file:  "ANI1ccx_1844_conf344_mol1.chk"
 Charge =  0 Multiplicity = 1
 Z-Matrix found in chk file.
 H,0,-1.24164,-1.87576,1.61917
 H,0,-2.36937,0.794463,-0.111414
 H,0,-3.444,-0.110899,-0.60648
 H,0,1.87327,1.00674,0.56228
 H,0,1.30024,2.08891,1.61614
 H,0,-0.295527,1.97063,-0.229921
 H,0,-1.88768,-1.2638,0.364767
 H,0,-1.52311,2.84055,-0.946943
 H,0,1.14822,-2.70374,-0.716808
 H,0,0.173545,-1.52809,-0.19313
 H,0,2.51773,-0.955583,-0.253565
 H,0,3.403,0.34873,-0.691268
 O,0,1.34615,1.8914,0.640396
 O,0,0.856076,-1.77588,-0.888221
 O,0,-3.00235,0.0993626,0.204541
 O,0,-1.06614,1.92001,-0.768657
 O,0,-1.19119,-1.95406,0.634582
 O,0,3.10063,-0.257353,0.125756
 Recover connectivity data from disk.
                    Distance matrix (angstroms):
                    1          2          3          4          5
     1  H    0.000000
     2  H    3.375913   0.000000
     3  H    3.594251   1.489832   0.000000
     4  H    4.373613   4.301037   5.557740   0.000000
     5  H    4.709540   4.257473   5.682166   1.615573   0.000000
     6  H    4.371382   2.387098   3.793078   2.502069   2.443032
     7  H    1.537982   2.166846   2.166710   4.397625   4.792644
     8  H    5.376592   2.366588   3.537907   4.144395   3.886600
     9  H    3.442931   4.997736   5.274797   3.991168   5.332471
    10  H    2.325522   3.444902   3.907163   3.144054   4.198284
    11  H    4.299619   5.192939   6.031605   2.220730   3.774522
    12  H    5.644392   5.818519   6.862934   2.084330   3.574067
    13  O    4.673987   3.946337   5.339423   1.032754   0.996591
    14  O    3.270688   4.196855   4.619761   3.298729   4.626630
    15  O    3.000397   0.991794   0.947111   4.972221   4.946028
    16  O    4.487804   1.843158   3.131311   3.353444   3.363858
    17  O    0.988984   3.082044   3.164274   4.261746   4.849359
    18  O    4.868761   5.575255   6.587093   1.815185   3.311737
                    6          7          8          9         10
     6  H    0.000000
     7  H    3.653785   0.000000
     8  H    1.666686   4.324255   0.000000
     9  H    4.916421   3.529861   6.158581   0.000000
    10  H    3.530216   2.151685   4.746777   1.614430   0.000000
    11  H    4.059273   4.459257   5.587467   2.268525   2.413839
    12  H    4.064788   5.630875   5.526400   3.795031   3.768285
    13  O    1.859794   4.526468   3.413676   4.795466   3.709809
    14  O    3.974404   3.059477   5.193785   0.987752   1.005187
    15  O    3.319230   1.768155   3.320870   5.092494   3.590690
    16  O    0.941617   3.477963   1.043073   5.126904   3.709103
    17  O    4.117374   1.017034   5.059612   2.803768   1.651986
    18  O    4.077290   5.094438   5.668038   3.241393   3.206912
                   11         12         13         14         15
    11  H    0.000000
    12  H    1.636007   0.000000
    13  O    3.205788   2.895478   0.000000
    14  O    1.958767   3.322586   4.003222   0.000000
    15  O    5.638622   6.472493   4.723433   4.426976   0.000000
    16  O    4.623687   4.737945   2.793813   4.167591   2.830332
    17  O    3.942315   5.307288   4.607135   2.557729   2.771602
    18  O    0.985486   1.061269   2.821382   2.893457   6.113904
                   16         17         18
    16  O    0.000000
    17  O    4.122273   0.000000
    18  O    4.785693   4.642999   0.000000
 Framework group  C1[X(H12O6)]
 Deg. of freedom    48
                         Standard orientation:                         
 ---------------------------------------------------------------------
 Center     Atomic      Atomic             Coordinates (Angstroms)
 Number     Number       Type             X           Y           Z
 ---------------------------------------------------------------------
      1          1           0       -1.241644   -1.875758    1.619170
      2          1           0       -2.369371    0.794466   -0.111414
      3          1           0       -3.444002   -0.110895   -0.606480
      4          1           0        1.873270    1.006738    0.562280
      5          1           0        1.300241    2.088909    1.616140
      6          1           0       -0.295526    1.970631   -0.229921
      7          1           0       -1.887683   -1.263798    0.364767
      8          1           0       -1.523108    2.840552   -0.946943
      9          1           0        1.148215   -2.703741   -0.716808
     10          1           0        0.173542   -1.528090   -0.193130
     11          1           0        2.517727   -0.955586   -0.253565
     12          1           0        3.402999    0.348726   -0.691268
     13          8           0        1.346151    1.891399    0.640396
     14          8           0        0.856072   -1.775881   -0.888221
     15          8           0       -3.002351    0.099366    0.204541
     16          8           0       -1.066139    1.920011   -0.768657
     17          8           0       -1.191194   -1.954058    0.634582
     18          8           0        3.100628   -0.257356    0.125756
 ---------------------------------------------------------------------
 Rotational constants (GHZ):           1.6456949           1.0672066           0.7299704
 ======================================================================================================
                                       Pseudopotential Parameters
 ======================================================================================================
  Center     Atomic      Valence      Angular      Power
  Number     Number     Electrons     Momentum     of R      Exponent        Coefficient   SO-Coeffient
 ======================================================================================================
    1          1            1
                                      F and up 
                                                     0        0.0000010       -0.00000699    0.00000000
                                                     2        0.1200000        0.00123686    0.00000000
                                                     2        0.1800000       -0.00752022    0.00000000
                                                     2        0.2600000        0.02503380    0.00000000
                                                     2        0.4000000       -0.08702670    0.00000000
                                                     2        0.6000000        0.30134159    0.00000000
                                                     2        0.8000000       -0.50204959    0.00000000
                                                     2        1.2000000        0.52208372    0.00000000
                                      S - F
                                                     0        0.0000010       -0.01618346    0.00000000
                                                     2        0.1200000       -0.07880581    0.00000000
                                                     2        0.1600000        0.32040539    0.00000000
                                                     2        0.2400000       -0.47500956    0.00000000
                                                     2        0.5000000        0.54013668    0.00000000
                                                     2        1.5000000       -1.40434292    0.00000000
                                                     2        3.0000000        1.46283806    0.00000000
                                      P - F
                                                     0        0.0000010        0.00612970    0.00000000
                                                     2        0.1200000        0.02254406    0.00000000
                                                     2        0.1800000       -0.13874529    0.00000000
                                                     2        0.3000000        0.38299049    0.00000000
                                                     2        0.5000000       -0.57923512    0.00000000
                                                     2        1.0000000        0.63021625    0.00000000
                                                     2        2.0000000       -0.79201034    0.00000000
                                      D - F
                                                     0        0.0000010       -0.00296226    0.00000000
                                                     2        0.1200000       -0.00547344    0.00000000
                                                     2        0.1400000        0.01837884    0.00000000
                                                     2        0.2400000       -0.05565704    0.00000000
                                                     2        0.4000000        0.15376597    0.00000000
                                                     2        0.8000000       -0.32464795    0.00000000
    2          1            1
                                      F and up 
                                                     0        0.0000010       -0.00000699    0.00000000
                                                     2        0.1200000        0.00123686    0.00000000
                                                     2        0.1800000       -0.00752022    0.00000000
                                                     2        0.2600000        0.02503380    0.00000000
                                                     2        0.4000000       -0.08702670    0.00000000
                                                     2        0.6000000        0.30134159    0.00000000
                                                     2        0.8000000       -0.50204959    0.00000000
                                                     2        1.2000000        0.52208372    0.00000000
                                      S - F
                                                     0        0.0000010       -0.01618346    0.00000000
                                                     2        0.1200000       -0.07880581    0.00000000
                                                     2        0.1600000        0.32040539    0.00000000
                                                     2        0.2400000       -0.47500956    0.00000000
                                                     2        0.5000000        0.54013668    0.00000000
                                                     2        1.5000000       -1.40434292    0.00000000
                                                     2        3.0000000        1.46283806    0.00000000
                                      P - F
                                                     0        0.0000010        0.00612970    0.00000000
                                                     2        0.1200000        0.02254406    0.00000000
                                                     2        0.1800000       -0.13874529    0.00000000
                                                     2        0.3000000        0.38299049    0.00000000
                                                     2        0.5000000       -0.57923512    0.00000000
                                                     2        1.0000000        0.63021625    0.00000000
                                                     2        2.0000000       -0.79201034    0.00000000
                                      D - F
                                                     0        0.0000010       -0.00296226    0.00000000
                                                     2        0.1200000       -0.00547344    0.00000000
                                                     2        0.1400000        0.01837884    0.00000000
                                                     2        0.2400000       -0.05565704    0.00000000
                                                     2        0.4000000        0.15376597    0.00000000
                                                     2        0.8000000       -0.32464795    0.00000000
    3          1            1
                                      F and up 
                                                     0        0.0000010       -0.00000699    0.00000000
                                                     2        0.1200000        0.00123686    0.00000000
                                                     2        0.1800000       -0.00752022    0.00000000
                                                     2        0.2600000        0.02503380    0.00000000
                                                     2        0.4000000       -0.08702670    0.00000000
                                                     2        0.6000000        0.30134159    0.00000000
                                                     2        0.8000000       -0.50204959    0.00000000
                                                     2        1.2000000        0.52208372    0.00000000
                                      S - F
                                                     0        0.0000010       -0.01618346    0.00000000
                                                     2        0.1200000       -0.07880581    0.00000000
                                                     2        0.1600000        0.32040539    0.00000000
                                                     2        0.2400000       -0.47500956    0.00000000
                                                     2        0.5000000        0.54013668    0.00000000
                                                     2        1.5000000       -1.40434292    0.00000000
                                                     2        3.0000000        1.46283806    0.00000000
                                      P - F
                                                     0        0.0000010        0.00612970    0.00000000
                                                     2        0.1200000        0.02254406    0.00000000
                                                     2        0.1800000       -0.13874529    0.00000000
                                                     2        0.3000000        0.38299049    0.00000000
                                                     2        0.5000000       -0.57923512    0.00000000
                                                     2        1.0000000        0.63021625    0.00000000
                                                     2        2.0000000       -0.79201034    0.00000000
                                      D - F
                                                     0        0.0000010       -0.00296226    0.00000000
                                                     2        0.1200000       -0.00547344    0.00000000
                                                     2        0.1400000        0.01837884    0.00000000
                                                     2        0.2400000       -0.05565704    0.00000000
                                                     2        0.4000000        0.15376597    0.00000000
                                                     2        0.8000000       -0.32464795    0.00000000
    4          1            1
                                      F and up 
                                                     0        0.0000010       -0.00000699    0.00000000
                                                     2        0.1200000        0.00123686    0.00000000
                                                     2        0.1800000       -0.00752022    0.00000000
                                                     2        0.2600000        0.02503380    0.00000000
                                                     2        0.4000000       -0.08702670    0.00000000
                                                     2        0.6000000        0.30134159    0.00000000
                                                     2        0.8000000       -0.50204959    0.00000000
                                                     2        1.2000000        0.52208372    0.00000000
                                      S - F
                                                     0        0.0000010       -0.01618346    0.00000000
                                                     2        0.1200000       -0.07880581    0.00000000
                                                     2        0.1600000        0.32040539    0.00000000
                                                     2        0.2400000       -0.47500956    0.00000000
                                                     2        0.5000000        0.54013668    0.00000000
                                                     2        1.5000000       -1.40434292    0.00000000
                                                     2        3.0000000        1.46283806    0.00000000
                                      P - F
                                                     0        0.0000010        0.00612970    0.00000000
                                                     2        0.1200000        0.02254406    0.00000000
                                                     2        0.1800000       -0.13874529    0.00000000
                                                     2        0.3000000        0.38299049    0.00000000
                                                     2        0.5000000       -0.57923512    0.00000000
                                                     2        1.0000000        0.63021625    0.00000000
                                                     2        2.0000000       -0.79201034    0.00000000
                                      D - F
                                                     0        0.0000010       -0.00296226    0.00000000
                                                     2        0.1200000       -0.00547344    0.00000000
                                                     2        0.1400000        0.01837884    0.00000000
                                                     2        0.2400000       -0.05565704    0.00000000
                                                     2        0.4000000        0.15376597    0.00000000
                                                     2        0.8000000       -0.32464795    0.00000000
    5          1            1
                                      F and up 
                                                     0        0.0000010       -0.00000699    0.00000000
                                                     2        0.1200000        0.00123686    0.00000000
                                                     2        0.1800000       -0.00752022    0.00000000
                                                     2        0.2600000        0.02503380    0.00000000
                                                     2        0.4000000       -0.08702670    0.00000000
                                                     2        0.6000000        0.30134159    0.00000000
                                                     2        0.8000000       -0.50204959    0.00000000
                                                     2        1.2000000        0.52208372    0.00000000
                                      S - F
                                                     0        0.0000010       -0.01618346    0.00000000
                                                     2        0.1200000       -0.07880581    0.00000000
                                                     2        0.1600000        0.32040539    0.00000000
                                                     2        0.2400000       -0.47500956    0.00000000
                                                     2        0.5000000        0.54013668    0.00000000
                                                     2        1.5000000       -1.40434292    0.00000000
                                                     2        3.0000000        1.46283806    0.00000000
                                      P - F
                                                     0        0.0000010        0.00612970    0.00000000
                                                     2        0.1200000        0.02254406    0.00000000
                                                     2        0.1800000       -0.13874529    0.00000000
                                                     2        0.3000000        0.38299049    0.00000000
                                                     2        0.5000000       -0.57923512    0.00000000
                                                     2        1.0000000        0.63021625    0.00000000
                                                     2        2.0000000       -0.79201034    0.00000000
                                      D - F
                                                     0        0.0000010       -0.00296226    0.00000000
                                                     2        0.1200000       -0.00547344    0.00000000
                                                     2        0.1400000        0.01837884    0.00000000
                                                     2        0.2400000       -0.05565704    0.00000000
                                                     2        0.4000000        0.15376597    0.00000000
                                                     2        0.8000000       -0.32464795    0.00000000
    6          1            1
                                      F and up 
                                                     0        0.0000010       -0.00000699    0.00000000
                                                     2        0.1200000        0.00123686    0.00000000
                                                     2        0.1800000       -0.00752022    0.00000000
                                                     2        0.2600000        0.02503380    0.00000000
                                                     2        0.4000000       -0.08702670    0.00000000
                                                     2        0.6000000        0.30134159    0.00000000
                                                     2        0.8000000       -0.50204959    0.00000000
                                                     2        1.2000000        0.52208372    0.00000000
                                      S - F
                                                     0        0.0000010       -0.01618346    0.00000000
                                                     2        0.1200000       -0.07880581    0.00000000
                                                     2        0.1600000        0.32040539    0.00000000
                                                     2        0.2400000       -0.47500956    0.00000000
                                                     2        0.5000000        0.54013668    0.00000000
                                                     2        1.5000000       -1.40434292    0.00000000
                                                     2        3.0000000        1.46283806    0.00000000
                                      P - F
                                                     0        0.0000010        0.00612970    0.00000000
                                                     2        0.1200000        0.02254406    0.00000000
                                                     2        0.1800000       -0.13874529    0.00000000
                                                     2        0.3000000        0.38299049    0.00000000
                                                     2        0.5000000       -0.57923512    0.00000000
                                                     2        1.0000000        0.63021625    0.00000000
                                                     2        2.0000000       -0.79201034    0.00000000
                                      D - F
                                                     0        0.0000010       -0.00296226    0.00000000
                                                     2        0.1200000       -0.00547344    0.00000000
                                                     2        0.1400000        0.01837884    0.00000000
                                                     2        0.2400000       -0.05565704    0.00000000
                                                     2        0.4000000        0.15376597    0.00000000
                                                     2        0.8000000       -0.32464795    0.00000000
    7          1            1
                                      F and up 
                                                     0        0.0000010       -0.00000699    0.00000000
                                                     2        0.1200000        0.00123686    0.00000000
                                                     2        0.1800000       -0.00752022    0.00000000
                                                     2        0.2600000        0.02503380    0.00000000
                                                     2        0.4000000       -0.08702670    0.00000000
                                                     2        0.6000000        0.30134159    0.00000000
                                                     2        0.8000000       -0.50204959    0.00000000
                                                     2        1.2000000        0.52208372    0.00000000
                                      S - F
                                                     0        0.0000010       -0.01618346    0.00000000
                                                     2        0.1200000       -0.07880581    0.00000000
                                                     2        0.1600000        0.32040539    0.00000000
                                                     2        0.2400000       -0.47500956    0.00000000
                                                     2        0.5000000        0.54013668    0.00000000
                                                     2        1.5000000       -1.40434292    0.00000000
                                                     2        3.0000000        1.46283806    0.00000000
                                      P - F
                                                     0        0.0000010        0.00612970    0.00000000
                                                     2        0.1200000        0.02254406    0.00000000
                                                     2        0.1800000       -0.13874529    0.00000000
                                                     2        0.3000000        0.38299049    0.00000000
                                                     2        0.5000000       -0.57923512    0.00000000
                                                     2        1.0000000        0.63021625    0.00000000
                                                     2        2.0000000       -0.79201034    0.00000000
                                      D - F
                                                     0        0.0000010       -0.00296226    0.00000000
                                                     2        0.1200000       -0.00547344    0.00000000
                                                     2        0.1400000        0.01837884    0.00000000
                                                     2        0.2400000       -0.05565704    0.00000000
                                                     2        0.4000000        0.15376597    0.00000000
                                                     2        0.8000000       -0.32464795    0.00000000
    8          1            1
                                      F and up 
                                                     0        0.0000010       -0.00000699    0.00000000
                                                     2        0.1200000        0.00123686    0.00000000
                                                     2        0.1800000       -0.00752022    0.00000000
                                                     2        0.2600000        0.02503380    0.00000000
                                                     2        0.4000000       -0.08702670    0.00000000
                                                     2        0.6000000        0.30134159    0.00000000
                                                     2        0.8000000       -0.50204959    0.00000000
                                                     2        1.2000000        0.52208372    0.00000000
                                      S - F
                                                     0        0.0000010       -0.01618346    0.00000000
                                                     2        0.1200000       -0.07880581    0.00000000
                                                     2        0.1600000        0.32040539    0.00000000
                                                     2        0.2400000       -0.47500956    0.00000000
                                                     2        0.5000000        0.54013668    0.00000000
                                                     2        1.5000000       -1.40434292    0.00000000
                                                     2        3.0000000        1.46283806    0.00000000
                                      P - F
                                                     0        0.0000010        0.00612970    0.00000000
                                                     2        0.1200000        0.02254406    0.00000000
                                                     2        0.1800000       -0.13874529    0.00000000
                                                     2        0.3000000        0.38299049    0.00000000
                                                     2        0.5000000       -0.57923512    0.00000000
                                                     2        1.0000000        0.63021625    0.00000000
                                                     2        2.0000000       -0.79201034    0.00000000
                                      D - F
                                                     0        0.0000010       -0.00296226    0.00000000
                                                     2        0.1200000       -0.00547344    0.00000000
                                                     2        0.1400000        0.01837884    0.00000000
                                                     2        0.2400000       -0.05565704    0.00000000
                                                     2        0.4000000        0.15376597    0.00000000
                                                     2        0.8000000       -0.32464795    0.00000000
    9          1            1
                                      F and up 
                                                     0        0.0000010       -0.00000699    0.00000000
                                                     2        0.1200000        0.00123686    0.00000000
                                                     2        0.1800000       -0.00752022    0.00000000
                                                     2        0.2600000        0.02503380    0.00000000
                                                     2        0.4000000       -0.08702670    0.00000000
                                                     2        0.6000000        0.30134159    0.00000000
                                                     2        0.8000000       -0.50204959    0.00000000
                                                     2        1.2000000        0.52208372    0.00000000
                                      S - F
                                                     0        0.0000010       -0.01618346    0.00000000
                                                     2        0.1200000       -0.07880581    0.00000000
                                                     2        0.1600000        0.32040539    0.00000000
                                                     2        0.2400000       -0.47500956    0.00000000
                                                     2        0.5000000        0.54013668    0.00000000
                                                     2        1.5000000       -1.40434292    0.00000000
                                                     2        3.0000000        1.46283806    0.00000000
                                      P - F
                                                     0        0.0000010        0.00612970    0.00000000
                                                     2        0.1200000        0.02254406    0.00000000
                                                     2        0.1800000       -0.13874529    0.00000000
                                                     2        0.3000000        0.38299049    0.00000000
                                                     2        0.5000000       -0.57923512    0.00000000
                                                     2        1.0000000        0.63021625    0.00000000
                                                     2        2.0000000       -0.79201034    0.00000000
                                      D - F
                                                     0        0.0000010       -0.00296226    0.00000000
                                                     2        0.1200000       -0.00547344    0.00000000
                                                     2        0.1400000        0.01837884    0.00000000
                                                     2        0.2400000       -0.05565704    0.00000000
                                                     2        0.4000000        0.15376597    0.00000000
                                                     2        0.8000000       -0.32464795    0.00000000
   10          1            1
                                      F and up 
                                                     0        0.0000010       -0.00000699    0.00000000
                                                     2        0.1200000        0.00123686    0.00000000
                                                     2        0.1800000       -0.00752022    0.00000000
                                                     2        0.2600000        0.02503380    0.00000000
                                                     2        0.4000000       -0.08702670    0.00000000
                                                     2        0.6000000        0.30134159    0.00000000
                                                     2        0.8000000       -0.50204959    0.00000000
                                                     2        1.2000000        0.52208372    0.00000000
                                      S - F
                                                     0        0.0000010       -0.01618346    0.00000000
                                                     2        0.1200000       -0.07880581    0.00000000
                                                     2        0.1600000        0.32040539    0.00000000
                                                     2        0.2400000       -0.47500956    0.00000000
                                                     2        0.5000000        0.54013668    0.00000000
                                                     2        1.5000000       -1.40434292    0.00000000
                                                     2        3.0000000        1.46283806    0.00000000
                                      P - F
                                                     0        0.0000010        0.00612970    0.00000000
                                                     2        0.1200000        0.02254406    0.00000000
                                                     2        0.1800000       -0.13874529    0.00000000
                                                     2        0.3000000        0.38299049    0.00000000
                                                     2        0.5000000       -0.57923512    0.00000000
                                                     2        1.0000000        0.63021625    0.00000000
                                                     2        2.0000000       -0.79201034    0.00000000
                                      D - F
                                                     0        0.0000010       -0.00296226    0.00000000
                                                     2        0.1200000       -0.00547344    0.00000000
                                                     2        0.1400000        0.01837884    0.00000000
                                                     2        0.2400000       -0.05565704    0.00000000
                                                     2        0.4000000        0.15376597    0.00000000
                                                     2        0.8000000       -0.32464795    0.00000000
   11          1            1
                                      F and up 
                                                     0        0.0000010       -0.00000699    0.00000000
                                                     2        0.1200000        0.00123686    0.00000000
                                                     2        0.1800000       -0.00752022    0.00000000
                                                     2        0.2600000        0.02503380    0.00000000
                                                     2        0.4000000       -0.08702670    0.00000000
                                                     2        0.6000000        0.30134159    0.00000000
                                                     2        0.8000000       -0.50204959    0.00000000
                                                     2        1.2000000        0.52208372    0.00000000
                                      S - F
                                                     0        0.0000010       -0.01618346    0.00000000
                                                     2        0.1200000       -0.07880581    0.00000000
                                                     2        0.1600000        0.32040539    0.00000000
                                                     2        0.2400000       -0.47500956    0.00000000
                                                     2        0.5000000        0.54013668    0.00000000
                                                     2        1.5000000       -1.40434292    0.00000000
                                                     2        3.0000000        1.46283806    0.00000000
                                      P - F
                                                     0        0.0000010        0.00612970    0.00000000
                                                     2        0.1200000        0.02254406    0.00000000
                                                     2        0.1800000       -0.13874529    0.00000000
                                                     2        0.3000000        0.38299049    0.00000000
                                                     2        0.5000000       -0.57923512    0.00000000
                                                     2        1.0000000        0.63021625    0.00000000
                                                     2        2.0000000       -0.79201034    0.00000000
                                      D - F
                                                     0        0.0000010       -0.00296226    0.00000000
                                                     2        0.1200000       -0.00547344    0.00000000
                                                     2        0.1400000        0.01837884    0.00000000
                                                     2        0.2400000       -0.05565704    0.00000000
                                                     2        0.4000000        0.15376597    0.00000000
                                                     2        0.8000000       -0.32464795    0.00000000
   12          1            1
                                      F and up 
                                                     0        0.0000010       -0.00000699    0.00000000
                                                     2        0.1200000        0.00123686    0.00000000
                                                     2        0.1800000       -0.00752022    0.00000000
                                                     2        0.2600000        0.02503380    0.00000000
                                                     2        0.4000000       -0.08702670    0.00000000
                                                     2        0.6000000        0.30134159    0.00000000
                                                     2        0.8000000       -0.50204959    0.00000000
                                                     2        1.2000000        0.52208372    0.00000000
                                      S - F
                                                     0        0.0000010       -0.01618346    0.00000000
                                                     2        0.1200000       -0.07880581    0.00000000
                                                     2        0.1600000        0.32040539    0.00000000
                                                     2        0.2400000       -0.47500956    0.00000000
                                                     2        0.5000000        0.54013668    0.00000000
                                                     2        1.5000000       -1.40434292    0.00000000
                                                     2        3.0000000        1.46283806    0.00000000
                                      P - F
                                                     0        0.0000010        0.00612970    0.00000000
                                                     2        0.1200000        0.02254406    0.00000000
                                                     2        0.1800000       -0.13874529    0.00000000
                                                     2        0.3000000        0.38299049    0.00000000
                                                     2        0.5000000       -0.57923512    0.00000000
                                                     2        1.0000000        0.63021625    0.00000000
                                                     2        2.0000000       -0.79201034    0.00000000
                                      D - F
                                                     0        0.0000010       -0.00296226    0.00000000
                                                     2        0.1200000       -0.00547344    0.00000000
                                                     2        0.1400000        0.01837884    0.00000000
                                                     2        0.2400000       -0.05565704    0.00000000
                                                     2        0.4000000        0.15376597    0.00000000
                                                     2        0.8000000       -0.32464795    0.00000000
   13          8            8
                                      G and up 
                                                     0        0.0000010        0.00001165    0.00000000
                                                     2        0.1200000       -0.01744018    0.00000000
                                                     2        0.1400000        0.05401326    0.00000000
                                                     2        0.1800000       -0.08231208    0.00000000
                                                     2        0.2600000        0.11570222    0.00000000
                                                     2        0.4000000       -0.20630360    0.00000000
                                                     2        0.7000000        0.38074319    0.00000000
                                                     2        1.2000000       -0.17045091    0.00000000
                                                     2        2.0000000       -1.45433187    0.00000000
                                      S - G
                                                     0        0.0000010       -0.00117944    0.00000000
                                                     2        0.1400000        0.04368312    0.00000000
                                                     2        0.3000000       -0.33477926    0.00000000
                                                     2        0.6000000        1.52630657    0.00000000
                                                     2        1.5000000       -2.50804716    0.00000000
                                                     2        3.0000000        2.89751681    0.00000000
                                      P - G
                                                     0        0.0000010        0.06576007    0.00000000
                                                     2        0.1200000       -0.10329304    0.00000000
                                                     2        0.2000000        0.24891756    0.00000000
                                                     2        0.4000000       -0.50800022    0.00000000
                                                     2        0.9000000        0.81480796    0.00000000
                                      D - G
                                                     0        0.0000010       -0.14101855    0.00000000
                                                     2        0.1200000        0.22105937    0.00000000
                                                     2        0.1800000       -0.45814988    0.00000000
                                                     2        0.3000000        0.46029282    0.00000000
                                      F - G
                                                     0        0.0000010        0.07483044    0.00000000
                                                     2        0.1200000       -0.09134252    0.00000000
                                                     2        0.1400000        0.04125459    0.00000000
                                                     2        0.3000000        0.37914837    0.00000000
                                                     2        0.5000000       -0.86881279    0.00000000
   14          8            8
                                      G and up 
                                                     0        0.0000010        0.00001165    0.00000000
                                                     2        0.1200000       -0.01744018    0.00000000
                                                     2        0.1400000        0.05401326    0.00000000
                                                     2        0.1800000       -0.08231208    0.00000000
                                                     2        0.2600000        0.11570222    0.00000000
                                                     2        0.4000000       -0.20630360    0.00000000
                                                     2        0.7000000        0.38074319    0.00000000
                                                     2        1.2000000       -0.17045091    0.00000000
                                                     2        2.0000000       -1.45433187    0.00000000
                                      S - G
                                                     0        0.0000010       -0.00117944    0.00000000
                                                     2        0.1400000        0.04368312    0.00000000
                                                     2        0.3000000       -0.33477926    0.00000000
                                                     2        0.6000000        1.52630657    0.00000000
                                                     2        1.5000000       -2.50804716    0.00000000
                                                     2        3.0000000        2.89751681    0.00000000
                                      P - G
                                                     0        0.0000010        0.06576007    0.00000000
                                                     2        0.1200000       -0.10329304    0.00000000
                                                     2        0.2000000        0.24891756    0.00000000
                                                     2        0.4000000       -0.50800022    0.00000000
                                                     2        0.9000000        0.81480796    0.00000000
                                      D - G
                                                     0        0.0000010       -0.14101855    0.00000000
                                                     2        0.1200000        0.22105937    0.00000000
                                                     2        0.1800000       -0.45814988    0.00000000
                                                     2        0.3000000        0.46029282    0.00000000
                                      F - G
                                                     0        0.0000010        0.07483044    0.00000000
                                                     2        0.1200000       -0.09134252    0.00000000
                                                     2        0.1400000        0.04125459    0.00000000
                                                     2        0.3000000        0.37914837    0.00000000
                                                     2        0.5000000       -0.86881279    0.00000000
   15          8            8
                                      G and up 
                                                     0        0.0000010        0.00001165    0.00000000
                                                     2        0.1200000       -0.01744018    0.00000000
                                                     2        0.1400000        0.05401326    0.00000000
                                                     2        0.1800000       -0.08231208    0.00000000
                                                     2        0.2600000        0.11570222    0.00000000
                                                     2        0.4000000       -0.20630360    0.00000000
                                                     2        0.7000000        0.38074319    0.00000000
                                                     2        1.2000000       -0.17045091    0.00000000
                                                     2        2.0000000       -1.45433187    0.00000000
                                      S - G
                                                     0        0.0000010       -0.00117944    0.00000000
                                                     2        0.1400000        0.04368312    0.00000000
                                                     2        0.3000000       -0.33477926    0.00000000
                                                     2        0.6000000        1.52630657    0.00000000
                                                     2        1.5000000       -2.50804716    0.00000000
                                                     2        3.0000000        2.89751681    0.00000000
                                      P - G
                                                     0        0.0000010        0.06576007    0.00000000
                                                     2        0.1200000       -0.10329304    0.00000000
                                                     2        0.2000000        0.24891756    0.00000000
                                                     2        0.4000000       -0.50800022    0.00000000
                                                     2        0.9000000        0.81480796    0.00000000
                                      D - G
                                                     0        0.0000010       -0.14101855    0.00000000
                                                     2        0.1200000        0.22105937    0.00000000
                                                     2        0.1800000       -0.45814988    0.00000000
                                                     2        0.3000000        0.46029282    0.00000000
                                      F - G
                                                     0        0.0000010        0.07483044    0.00000000
                                                     2        0.1200000       -0.09134252    0.00000000
                                                     2        0.1400000        0.04125459    0.00000000
                                                     2        0.3000000        0.37914837    0.00000000
                                                     2        0.5000000       -0.86881279    0.00000000
   16          8            8
                                      G and up 
                                                     0        0.0000010        0.00001165    0.00000000
                                                     2        0.1200000       -0.01744018    0.00000000
                                                     2        0.1400000        0.05401326    0.00000000
                                                     2        0.1800000       -0.08231208    0.00000000
                                                     2        0.2600000        0.11570222    0.00000000
                                                     2        0.4000000       -0.20630360    0.00000000
                                                     2        0.7000000        0.38074319    0.00000000
                                                     2        1.2000000       -0.17045091    0.00000000
                                                     2        2.0000000       -1.45433187    0.00000000
                                      S - G
                                                     0        0.0000010       -0.00117944    0.00000000
                                                     2        0.1400000        0.04368312    0.00000000
                                                     2        0.3000000       -0.33477926    0.00000000
                                                     2        0.6000000        1.52630657    0.00000000
                                                     2        1.5000000       -2.50804716    0.00000000
                                                     2        3.0000000        2.89751681    0.00000000
                                      P - G
                                                     0        0.0000010        0.06576007    0.00000000
                                                     2        0.1200000       -0.10329304    0.00000000
                                                     2        0.2000000        0.24891756    0.00000000
                                                     2        0.4000000       -0.50800022    0.00000000
                                                     2        0.9000000        0.81480796    0.00000000
                                      D - G
                                                     0        0.0000010       -0.14101855    0.00000000
                                                     2        0.1200000        0.22105937    0.00000000
                                                     2        0.1800000       -0.45814988    0.00000000
                                                     2        0.3000000        0.46029282    0.00000000
                                      F - G
                                                     0        0.0000010        0.07483044    0.00000000
                                                     2        0.1200000       -0.09134252    0.00000000
                                                     2        0.1400000        0.04125459    0.00000000
                                                     2        0.3000000        0.37914837    0.00000000
                                                     2        0.5000000       -0.86881279    0.00000000
   17          8            8
                                      G and up 
                                                     0        0.0000010        0.00001165    0.00000000
                                                     2        0.1200000       -0.01744018    0.00000000
                                                     2        0.1400000        0.05401326    0.00000000
                                                     2        0.1800000       -0.08231208    0.00000000
                                                     2        0.2600000        0.11570222    0.00000000
                                                     2        0.4000000       -0.20630360    0.00000000
                                                     2        0.7000000        0.38074319    0.00000000
                                                     2        1.2000000       -0.17045091    0.00000000
                                                     2        2.0000000       -1.45433187    0.00000000
                                      S - G
                                                     0        0.0000010       -0.00117944    0.00000000
                                                     2        0.1400000        0.04368312    0.00000000
                                                     2        0.3000000       -0.33477926    0.00000000
                                                     2        0.6000000        1.52630657    0.00000000
                                                     2        1.5000000       -2.50804716    0.00000000
                                                     2        3.0000000        2.89751681    0.00000000
                                      P - G
                                                     0        0.0000010        0.06576007    0.00000000
                                                     2        0.1200000       -0.10329304    0.00000000
                                                     2        0.2000000        0.24891756    0.00000000
                                                     2        0.4000000       -0.50800022    0.00000000
                                                     2        0.9000000        0.81480796    0.00000000
                                      D - G
                                                     0        0.0000010       -0.14101855    0.00000000
                                                     2        0.1200000        0.22105937    0.00000000
                                                     2        0.1800000       -0.45814988    0.00000000
                                                     2        0.3000000        0.46029282    0.00000000
                                      F - G
                                                     0        0.0000010        0.07483044    0.00000000
                                                     2        0.1200000       -0.09134252    0.00000000
                                                     2        0.1400000        0.04125459    0.00000000
                                                     2        0.3000000        0.37914837    0.00000000
                                                     2        0.5000000       -0.86881279    0.00000000
   18          8            8
                                      G and up 
                                                     0        0.0000010        0.00001165    0.00000000
                                                     2        0.1200000       -0.01744018    0.00000000
                                                     2        0.1400000        0.05401326    0.00000000
                                                     2        0.1800000       -0.08231208    0.00000000
                                                     2        0.2600000        0.11570222    0.00000000
                                                     2        0.4000000       -0.20630360    0.00000000
                                                     2        0.7000000        0.38074319    0.00000000
                                                     2        1.2000000       -0.17045091    0.00000000
                                                     2        2.0000000       -1.45433187    0.00000000
                                      S - G
                                                     0        0.0000010       -0.00117944    0.00000000
                                                     2        0.1400000        0.04368312    0.00000000
                                                     2        0.3000000       -0.33477926    0.00000000
                                                     2        0.6000000        1.52630657    0.00000000
                                                     2        1.5000000       -2.50804716    0.00000000
                                                     2        3.0000000        2.89751681    0.00000000
                                      P - G
                                                     0        0.0000010        0.06576007    0.00000000
                                                     2        0.1200000       -0.10329304    0.00000000
                                                     2        0.2000000        0.24891756    0.00000000
                                                     2        0.4000000       -0.50800022    0.00000000
                                                     2        0.9000000        0.81480796    0.00000000
                                      D - G
                                                     0        0.0000010       -0.14101855    0.00000000
                                                     2        0.1200000        0.22105937    0.00000000
                                                     2        0.1800000       -0.45814988    0.00000000
                                                     2        0.3000000        0.46029282    0.00000000
                                      F - G
                                                     0        0.0000010        0.07483044    0.00000000
                                                     2        0.1200000       -0.09134252    0.00000000
                                                     2        0.1400000        0.04125459    0.00000000
                                                     2        0.3000000        0.37914837    0.00000000
                                                     2        0.5000000       -0.86881279    0.00000000
 ======================================================================================================
   246 basis functions,   390 primitive gaussians,   258 cartesian basis functions
    30 alpha electrons       30 beta electrons
       nuclear repulsion energy       272.8537467699 Hartrees.
 NAtoms=   18 NActive=   18 NUniq=   18 SFac= 1.00D+00 NAtFMM=   60 NAOKFM=F Big=F
   1 Symmetry operations used in ECPInt.
 ECPInt:  NShTT=    6555 NPrTT=   25059 LenC2=    6471 LenP2D=   18527.
 LDataN:  DoStor=T MaxTD1= 6 Len=  172
 Initial guess from the checkpoint file:  "ANI1ccx_1844_conf344_mol1.chk"
 B after Tr=    -0.000003    0.000000   -0.000000
         Rot=    1.000000    0.000000    0.000000    0.000001 Ang=   0.00 deg.
 >>>>>>>>>> Convergence criterion not met.
 SCF Done:  E(RHF) =  -456.394038095     A.U. after    2 cycles
            NFock=  1  Conv=0.14D-02     -V/T= 1.9962

 **********************************************************************

            Population analysis using the SCF Density.

 **********************************************************************

 Orbital symmetries:
       Occupied  (A) (A) (A) (A) (A) (A) (A) (A) (A) (A) (A) (A)
                 (A) (A) (A) (A) (A) (A) (A) (A) (A) (A) (A) (A)
                 (A) (A) (A) (A) (A) (A)
       Virtual   (A) (A) (A) (A) (A) (A) (A) (A) (A) (A) (A) (A)
                 (A) (A) (A) (A) (A) (A) (A) (A) (A) (A) (A) (A)
                 (A) (A) (A) (A) (A) (A) (A) (A) (A) (A) (A) (A)
                 (A) (A) (A) (A) (A) (A) (A) (A) (A) (A) (A) (A)
                 (A) (A) (A) (A) (A) (A) (A) (A) (A) (A) (A) (A)
                 (A) (A) (A) (A) (A) (A) (A) (A) (A) (A) (A) (A)
                 (A) (A) (A) (A) (A) (A) (A) (A) (A) (A) (A) (A)
                 (A) (A) (A) (A) (A) (A) (A) (A) (A) (A) (A) (A)
                 (A) (A) (A) (A) (A) (A) (A) (A) (A) (A) (A) (A)
                 (A) (A) (A) (A) (A) (A) (A) (A) (A) (A) (A) (A)
                 (A) (A) (A) (A) (A) (A) (A) (A) (A) (A) (A) (A)
                 (A) (A) (A) (A) (A) (A) (A) (A) (A) (A) (A) (A)
                 (A) (A) (A) (A) (A) (A) (A) (A) (A) (A) (A) (A)
                 (A) (A) (A) (A) (A) (A) (A) (A) (A) (A) (A) (A)
                 (A) (A) (A) (A) (A) (A) (A) (A) (A) (A) (A) (A)
                 (A) (A) (A) (A) (A) (A) (A) (A) (A) (A) (A) (A)
                 (A) (A) (A) (A) (A) (A) (A) (A) (A) (A) (A) (A)
                 (A) (A) (A) (A) (A) (A) (A) (A) (A) (A) (A) (A)
 The electronic state is 1-A.
 Alpha  occ. eigenvalues --  -20.58593 -20.58317 -20.58007 -20.57975 -20.57896
 Alpha  occ. eigenvalues --  -20.55320  -1.32545  -1.30300  -1.30076  -1.29236
 Alpha  occ. eigenvalues --   -1.27998  -1.26748  -0.74306  -0.72979  -0.72040
 Alpha  occ. eigenvalues --   -0.71414  -0.70544  -0.70116  -0.63655  -0.61700
 Alpha  occ. eigenvalues --   -0.60694  -0.58732  -0.57394  -0.56344  -0.52911
 Alpha  occ. eigenvalues --   -0.52659  -0.52351  -0.51927  -0.51509  -0.49918
 Alpha virt. eigenvalues --    0.02770   0.04307   0.04746   0.05194   0.06182
 Alpha virt. eigenvalues --    0.06845   0.08171   0.08852   0.09868   0.10464
 Alpha virt. eigenvalues --    0.10871   0.11922   0.17263   0.17801   0.18102
 Alpha virt. eigenvalues --    0.19258   0.19613   0.20745   0.21493   0.22369
 Alpha virt. eigenvalues --    0.22589   0.23181   0.24110   0.24790   0.24990
 Alpha virt. eigenvalues --    0.26485   0.27132   0.27287   0.28344   0.29352
 Alpha virt. eigenvalues --    0.29447   0.29919   0.30799   0.31460   0.31822
 Alpha virt. eigenvalues --    0.33052   0.33949   0.34948   0.37152   0.37458
 Alpha virt. eigenvalues --    0.38045   0.39673   0.40276   0.41916   0.42987
 Alpha virt. eigenvalues --    0.43268   0.45112   0.45763   0.46305   0.47550
 Alpha virt. eigenvalues --    0.48305   0.49373   0.50070   0.50411   0.51152
 Alpha virt. eigenvalues --    0.51375   0.53076   0.53692   0.54712   0.55806
 Alpha virt. eigenvalues --    0.56496   0.57992   0.58650   0.59692   0.60749
 Alpha virt. eigenvalues --    0.61626   0.62464   0.63748   0.64899   0.66012
 Alpha virt. eigenvalues --    0.66518   0.67279   0.67866   0.68856   0.70003
 Alpha virt. eigenvalues --    0.70512   0.71476   0.71847   0.78972   0.80523
 Alpha virt. eigenvalues --    0.83662   0.84898   0.86862   0.89233   0.91418
 Alpha virt. eigenvalues --    0.93902   0.95382   0.98304   1.00783   1.02372
 Alpha virt. eigenvalues --    1.02489   1.04302   1.05305   1.07250   1.10444
 Alpha virt. eigenvalues --    1.11266   1.16644   1.18100   1.18717   1.19668
 Alpha virt. eigenvalues --    1.21066   1.21933   1.23307   1.23909   1.25386
 Alpha virt. eigenvalues --    1.26634   1.27443   1.28312   1.29576   1.30615
 Alpha virt. eigenvalues --    1.33041   1.34246   1.35524   1.35825   1.39374
 Alpha virt. eigenvalues --    1.39660   1.43116   1.45476   1.46131   1.48192
 Alpha virt. eigenvalues --    1.50724   1.51488   1.55044   1.57209   1.57302
 Alpha virt. eigenvalues --    1.61007   1.62945   1.65924   1.67469   1.68725
 Alpha virt. eigenvalues --    1.71513   1.76904   1.82826   1.88494   1.90277
 Alpha virt. eigenvalues --    1.93775   1.95311   1.97387   1.97613   1.98787
 Alpha virt. eigenvalues --    2.03123   2.03303   2.04389   2.05989   2.06244
 Alpha virt. eigenvalues --    2.10855   2.11110   2.13647   2.16705   2.18128
 Alpha virt. eigenvalues --    2.19678   2.23036   2.24699   2.25354   2.33378
 Alpha virt. eigenvalues --    2.34881   2.38516   2.40088   2.42054   2.42568
 Alpha virt. eigenvalues --    2.47158   2.47369   2.48347   2.51969   2.53115
 Alpha virt. eigenvalues --    2.55728   2.60781   2.61996   2.71372   2.72688
 Alpha virt. eigenvalues --    2.74264   2.75850   2.78213   2.78756   2.83766
 Alpha virt. eigenvalues --    2.86532   2.89107   2.93382   2.94302   3.01411
 Alpha virt. eigenvalues --    3.06771   3.08243   3.12362   3.14746   3.16994
 Alpha virt. eigenvalues --    3.21876   3.57376   3.57811   3.58287   3.58614
 Alpha virt. eigenvalues --    3.59853   3.60293   3.61486   3.61988   3.62409
 Alpha virt. eigenvalues --    3.64236   3.65108   3.65814   3.68630   3.70293
 Alpha virt. eigenvalues --    3.72326   3.74177   3.75911   3.77416   3.91957
 Alpha virt. eigenvalues --    3.94499   3.97232   3.99031   4.01637   4.06021
 Alpha virt. eigenvalues --    4.17554   4.19548   4.23652   4.25967   4.27012
 Alpha virt. eigenvalues --    4.31526
          Condensed to atoms (all electrons):
 Mulliken charges:
               1
     1  H    0.214201
     2  H    0.260110
     3  H    0.165283
     4  H    0.295629
     5  H    0.210102
     6  H    0.189670
     7  H    0.299424
     8  H    0.269489
     9  H    0.194665
    10  H    0.299728
    11  H    0.222706
    12  H    0.286575
    13  O   -0.508903
    14  O   -0.468727
    15  O   -0.426173
    16  O   -0.444813
    17  O   -0.530632
    18  O   -0.528336
 Sum of Mulliken charges =  -0.00000
 Mulliken charges with hydrogens summed into heavy atoms:
               1
    13  O   -0.003171
    14  O    0.025666
    15  O   -0.000779
    16  O    0.014347
    17  O   -0.017008
    18  O   -0.019055
 Electronic spatial extent (au):  <R**2>=           1555.3695
 Charge=             -0.0000 electrons
 Dipole moment (field-independent basis, Debye):
    X=             -0.9838    Y=              1.4657    Z=              0.9153  Tot=              1.9884

 Test job not archived.
 1\1\GINC-SE364\SP\RHF\Aug-CC-pVDZ\H12O6\OHZDE\08-Apr-2025\0\\#t hf aug
 -cc-pvdz iop(5/13=1,5/36=2,99/5=2) pseudo=read geom=check guess=(read,
 tcheck) scf=(maxcycle=1)\\title\\0,1\H,0,-1.24164,-1.87576,1.61917\H,0
 ,-2.36937,0.794463,-0.111414\H,0,-3.444,-0.110899,-0.60648\H,0,1.87327
 ,1.00674,0.56228\H,0,1.30024,2.08891,1.61614\H,0,-0.295527,1.97063,-0.
 229921\H,0,-1.88768,-1.2638,0.364767\H,0,-1.52311,2.84055,-0.946943\H,
 0,1.14822,-2.70374,-0.716808\H,0,0.173545,-1.52809,-0.19313\H,0,2.5177
 3,-0.955583,-0.253565\H,0,3.403,0.34873,-0.691268\O,0,1.34615,1.8914,0
 .640396\O,0,0.856076,-1.77588,-0.888221\O,0,-3.00235,0.0993626,0.20454
 1\O,0,-1.06614,1.92001,-0.768657\O,0,-1.19119,-1.95406,0.634582\O,0,3.
 10063,-0.257353,0.125756\\Version=ES64L-G16RevC.01\State=1-A\HF=-456.3
 940381\RMSD=1.434e-03\Dipole=-0.3870439,0.5766468,0.3600942\Quadrupole
 =-2.290832,2.1317589,0.1590731,-2.8689332,1.1688124,-1.2048132\PG=C01 
 [X(H12O6)]\\@


 The chemist is a guest at the physicist's table and
 frequently dines well.
                   -- Richard Bersohn
 Job cpu time:       0 days  0 hours  0 minutes 59.0 seconds.
 Elapsed time:       0 days  0 hours  0 minutes  4.5 seconds.
 File lengths (MBytes):  RWF=     14 Int=      0 D2E=      0 Chk=      9 Scr=      1
 Normal termination of Gaussian 16 at Tue Apr  8 21:06:49 2025.
