 Entering Gaussian System, Link 0=g16
 Input=ANI1ccx_1900_conf27_mol1.gjf
 Output=ANI1ccx_1900_conf27_mol1.log
 Initial command:
 /arc/software/Gaussian/g16.c01/l1.exe "/tmp/slurm/4837790/Gau-4188404.inp" -scrdir="/tmp/slurm/4837790/"
 Entering Link 1 = /arc/software/Gaussian/g16.c01/l1.exe PID=   4188405.
  
 Copyright (c) 1988-2019, Gaussian, Inc.  All Rights Reserved.
  
 This is part of the Gaussian(R) 16 program.  It is based on
 the Gaussian(R) 09 system (copyright 2009, Gaussian, Inc.),
 the Gaussian(R) 03 system (copyright 2003, Gaussian, Inc.),
 the Gaussian(R) 98 system (copyright 1998, Gaussian, Inc.),
 the Gaussian(R) 94 system (copyright 1995, Gaussian, Inc.),
 the Gaussian 92(TM) system (copyright 1992, Gaussian, Inc.),
 the Gaussian 90(TM) system (copyright 1990, Gaussian, Inc.),
 the Gaussian 88(TM) system (copyright 1988, Gaussian, Inc.),
 the Gaussian 86(TM) system (copyright 1986, Carnegie Mellon
 University), and the Gaussian 82(TM) system (copyright 1983,
 Carnegie Mellon University). Gaussian is a federally registered
 trademark of Gaussian, Inc.
  
 This software contains proprietary and confidential information,
 including trade secrets, belonging to Gaussian, Inc.
  
 This software is provided under written license and may be
 used, copied, transmitted, or stored only in accord with that
 written license.
  
 The following legend is applicable only to US Government
 contracts under FAR:
  
                    RESTRICTED RIGHTS LEGEND
  
 Use, reproduction and disclosure by the US Government is
 subject to restrictions as set forth in subparagraphs (a)
 and (c) of the Commercial Computer Software - Restricted
 Rights clause in FAR 52.227-19.
  
 Gaussian, Inc.
 340 Quinnipiac St., Bldg. 40, Wallingford CT 06492
  
  
 ---------------------------------------------------------------
 Warning -- This program may not be used in any manner that
 competes with the business of Gaussian, Inc. or will provide
 assistance to any competitor of Gaussian, Inc.  The licensee
 of this program is prohibited from giving any competitor of
 Gaussian, Inc. access to this program.  By using this program,
 the user acknowledges that Gaussian, Inc. is engaged in the
 business of creating and licensing software in the field of
 computational chemistry and represents and warrants to the
 licensee that it is not a competitor of Gaussian, Inc. and that
 it will not use this program in any manner prohibited above.
 ---------------------------------------------------------------
  

 Cite this work as:
 Gaussian 16, Revision C.01,
 M. J. Frisch, G. W. Trucks, H. B. Schlegel, G. E. Scuseria, 
 M. A. Robb, J. R. Cheeseman, G. Scalmani, V. Barone, 
 G. A. Petersson, H. Nakatsuji, X. Li, M. Caricato, A. V. Marenich, 
 J. Bloino, B. G. Janesko, R. Gomperts, B. Mennucci, H. P. Hratchian, 
 J. V. Ortiz, A. F. Izmaylov, J. L. Sonnenberg, D. Williams-Young, 
 F. Ding, F. Lipparini, F. Egidi, J. Goings, B. Peng, A. Petrone, 
 T. Henderson, D. Ranasinghe, V. G. Zakrzewski, J. Gao, N. Rega, 
 G. Zheng, W. Liang, M. Hada, M. Ehara, K. Toyota, R. Fukuda, 
 J. Hasegawa, M. Ishida, T. Nakajima, Y. Honda, O. Kitao, H. Nakai, 
 T. Vreven, K. Throssell, J. A. Montgomery, Jr., J. E. Peralta, 
 F. Ogliaro, M. J. Bearpark, J. J. Heyd, E. N. Brothers, K. N. Kudin, 
 V. N. Staroverov, T. A. Keith, R. Kobayashi, J. Normand, 
 K. Raghavachari, A. P. Rendell, J. C. Burant, S. S. Iyengar, 
 J. Tomasi, M. Cossi, J. M. Millam, M. Klene, C. Adamo, R. Cammi, 
 J. W. Ochterski, R. L. Martin, K. Morokuma, O. Farkas, 
 J. B. Foresman, and D. J. Fox, Gaussian, Inc., Wallingford CT, 2019.
 
 ******************************************
 Gaussian 16:  ES64L-G16RevC.01  3-Jul-2019
                 8-Apr-2025 
 ******************************************
 %nprocs=16
 Will use up to   16 processors via shared memory.
 %mem=30GB
 %chk=ANI1ccx_1900_conf27_mol1.chk
 ----------------------------------------------------------------------
 #t hf aug-cc-pvdz symm=none int=(grid=ultrafine) guess=(read,tcheck) s
 table=(opt,rrhf)
 ----------------------------------------------------------------------
 -----
 title
 -----
 Symbolic Z-matrix:
 Charge =  0 Multiplicity = 1
 H                    -2.07835  -0.18515   0.76921 
 H                    -0.90658   0.56454   0.03161 
 H                    -0.01862  -1.07122  -0.15908 
 H                     1.15154  -1.7907    0.70729 
 H                     0.92587   1.96797   0.63984 
 H                     1.13915   0.53467  -0.05065 
 O                    -1.6039   -0.17553  -0.09395 
 O                     0.96479  -1.19285  -0.07218 
 O                     0.61248   1.36587  -0.07615 
 
                    Distance matrix (angstroms):
                    1          2          3          4          5
     1  H    0.000000
     2  H    1.574522   0.000000
     3  H    2.426789   1.870975   0.000000
     4  H    3.607468   3.199934   1.624046   0.000000
     5  H    3.698374   2.386928   3.281310   3.766043   0.000000
     6  H    3.397440   2.047604   1.982691   2.445803   1.605187
     7  O    0.985002   1.024558   1.821978   3.292903   3.395990
     8  O    3.314230   2.569289   0.994714   0.999938   3.240257
     9  O    3.218831   1.720844   2.518845   3.296710   0.986596
                    6          7          8          9
     6  H    0.000000
     7  O    2.833827   0.000000
     8  O    1.736425   2.762898   0.000000
     9  O    0.984342   2.699738   2.582864   0.000000
 Symmetry turned off by external request.
 Rotational constants (GHZ):           7.9201216           6.9684556           3.8069059
   123 basis functions,   195 primitive gaussians,   129 cartesian basis functions
    15 alpha electrons       15 beta electrons
       nuclear repulsion energy        86.5538889760 Hartrees.
 NAtoms=    9 NActive=    9 NUniq=    9 SFac= 1.00D+00 NAtFMM=   60 NAOKFM=F Big=F
 ExpMin= 2.97D-02 ExpMax= 1.17D+04 ExpMxC= 4.01D+02 IAcc=3 IRadAn=         5 AccDes= 0.00D+00
 Harris functional with IExCor=  205 and IRadAn=       5 diagonalized for initial guess.
 HarFok:  IExCor=  205 AccDes= 0.00D+00 IRadAn=         5 IDoV= 1 UseB2=F ITyADJ=14
 ICtDFT=  3500011 ScaDFX=  1.000000  1.000000  1.000000  1.000000
 FoFCou: FMM=F IPFlag=           0 FMFlag=      100000 FMFlg1=           0
         NFxFlg=           0 DoJE=T BraDBF=F KetDBF=T FulRan=T
         wScrn=  0.000000 ICntrl=       500 IOpCl=  0 I1Cent=   200000004 NGrid=           0
         NMat0=    1 NMatS0=      1 NMatT0=    0 NMatD0=    1 NMtDS0=    0 NMtDT0=    0
 Symmetry not used in FoFCou.
 SCF Done:  E(RHF) =  -228.120821689     A.U. after   11 cycles
            NFock= 11  Conv=0.82D-08     -V/T= 2.0025

 **********************************************************************

            Population analysis using the SCF Density.

 **********************************************************************

 Alpha  occ. eigenvalues --  -20.57787 -20.57744 -20.57077  -1.36300  -1.33434
 Alpha  occ. eigenvalues --   -1.32687  -0.74618  -0.70733  -0.68962  -0.59575
 Alpha  occ. eigenvalues --   -0.58642  -0.56941  -0.51336  -0.49722  -0.49411
 Alpha virt. eigenvalues --    0.02622   0.04890   0.05314   0.08288   0.08647
 Alpha virt. eigenvalues --    0.09096   0.16817   0.18731   0.18886   0.20991
 Alpha virt. eigenvalues --    0.21324   0.22380   0.24216   0.26009   0.26793
 Alpha virt. eigenvalues --    0.27762   0.29833   0.30918   0.31537   0.35146
 Alpha virt. eigenvalues --    0.35999   0.38919   0.39735   0.41339   0.46515
 Alpha virt. eigenvalues --    0.46967   0.47926   0.49155   0.51232   0.53216
 Alpha virt. eigenvalues --    0.53895   0.58129   0.61707   0.62459   0.63940
 Alpha virt. eigenvalues --    0.65054   0.66307   0.67032   0.68315   0.74834
 Alpha virt. eigenvalues --    0.78265   0.79405   0.87820   0.91157   0.92043
 Alpha virt. eigenvalues --    0.97375   0.98977   1.06228   1.12630   1.17508
 Alpha virt. eigenvalues --    1.20074   1.22448   1.22983   1.23907   1.26388
 Alpha virt. eigenvalues --    1.31978   1.36279   1.36962   1.42598   1.47349
 Alpha virt. eigenvalues --    1.52018   1.53477   1.57729   1.62167   1.65988
 Alpha virt. eigenvalues --    1.66600   1.81567   1.86328   1.95529   1.98570
 Alpha virt. eigenvalues --    2.01619   2.05029   2.11968   2.17681   2.19303
 Alpha virt. eigenvalues --    2.20957   2.25006   2.31808   2.43514   2.46006
 Alpha virt. eigenvalues --    2.47745   2.52106   2.54158   2.55697   2.67869
 Alpha virt. eigenvalues --    2.70113   2.77579   2.91013   2.91263   2.98596
 Alpha virt. eigenvalues --    3.09968   3.15292   3.21327   3.68305   3.73625
 Alpha virt. eigenvalues --    3.74061   3.74627   3.76823   3.80616   3.82874
 Alpha virt. eigenvalues --    3.89012   3.90006   4.10787   4.13352   4.15201
 Alpha virt. eigenvalues --    4.30652   4.34975   4.41564
          Condensed to atoms (all electrons):
 Mulliken charges:
               1
     1  H    0.189759
     2  H    0.398715
     3  H    0.304176
     4  H    0.233716
     5  H    0.206486
     6  H    0.312237
     7  O   -0.551773
     8  O   -0.564402
     9  O   -0.528913
 Sum of Mulliken charges =  -0.00000
 Mulliken charges with hydrogens summed into heavy atoms:
               1
     7  O    0.036701
     8  O   -0.026511
     9  O   -0.010190
 Electronic spatial extent (au):  <R**2>=            315.4502
 Charge=             -0.0000 electrons
 Dipole moment (field-independent basis, Debye):
    X=              0.6251    Y=              0.0717    Z=              3.9913  Tot=              4.0406
 NROrb=    123 NOA=    15 NOB=    15 NVA=   108 NVB=   108
    12 initial guesses have been made.
 Iteration     1 Dimension    12 NMult     0 NNew     12
 Iteration     2 Dimension    24 NMult    12 NNew     12
 Iteration     3 Dimension    27 NMult    24 NNew      3
 Iteration     4 Dimension    30 NMult    27 NNew      3
 Iteration     5 Dimension    33 NMult    30 NNew      3
 Iteration     6 Dimension    36 NMult    33 NNew      3
 Iteration     7 Dimension    39 NMult    36 NNew      3
 ***********************************************************************
 Stability analysis using <AA,BB:AA,BB> singles matrix:
 ***********************************************************************
 Ground to excited state transition densities written to RWF  633

 Eigenvectors of the stability matrix:
 
 Excited state symmetry could not be determined.
 Eigenvector   1:      Singlet-?Sym  Eigenvalue= 0.3285876  <S**2>=0.000
      13 -> 17        -0.10002
      13 -> 18        -0.10192
      14 -> 18        -0.16779
      15 -> 16         0.45825
      15 -> 17        -0.11425
      15 -> 18         0.22982
      15 -> 22         0.18788
      15 -> 24         0.10132
      15 -> 27        -0.15784
 The wavefunction is stable under the perturbations considered.
 The wavefunction is already stable.

 **********************************************************************

            Population analysis using the SCF Density.

 **********************************************************************

 Alpha  occ. eigenvalues --  -20.57787 -20.57744 -20.57077  -1.36300  -1.33434
 Alpha  occ. eigenvalues --   -1.32687  -0.74618  -0.70733  -0.68962  -0.59575
 Alpha  occ. eigenvalues --   -0.58642  -0.56941  -0.51336  -0.49722  -0.49411
 Alpha virt. eigenvalues --    0.02622   0.04890   0.05314   0.08288   0.08647
 Alpha virt. eigenvalues --    0.09096   0.16817   0.18731   0.18886   0.20991
 Alpha virt. eigenvalues --    0.21324   0.22380   0.24216   0.26009   0.26793
 Alpha virt. eigenvalues --    0.27762   0.29833   0.30918   0.31537   0.35146
 Alpha virt. eigenvalues --    0.35999   0.38919   0.39735   0.41339   0.46515
 Alpha virt. eigenvalues --    0.46967   0.47926   0.49155   0.51232   0.53216
 Alpha virt. eigenvalues --    0.53895   0.58129   0.61707   0.62459   0.63940
 Alpha virt. eigenvalues --    0.65054   0.66307   0.67032   0.68315   0.74834
 Alpha virt. eigenvalues --    0.78265   0.79405   0.87820   0.91157   0.92043
 Alpha virt. eigenvalues --    0.97375   0.98977   1.06228   1.12630   1.17508
 Alpha virt. eigenvalues --    1.20074   1.22448   1.22983   1.23907   1.26388
 Alpha virt. eigenvalues --    1.31978   1.36279   1.36962   1.42598   1.47349
 Alpha virt. eigenvalues --    1.52018   1.53477   1.57729   1.62167   1.65988
 Alpha virt. eigenvalues --    1.66600   1.81567   1.86328   1.95529   1.98570
 Alpha virt. eigenvalues --    2.01619   2.05029   2.11968   2.17681   2.19303
 Alpha virt. eigenvalues --    2.20957   2.25006   2.31808   2.43514   2.46006
 Alpha virt. eigenvalues --    2.47745   2.52106   2.54158   2.55697   2.67869
 Alpha virt. eigenvalues --    2.70113   2.77579   2.91013   2.91263   2.98596
 Alpha virt. eigenvalues --    3.09968   3.15292   3.21327   3.68305   3.73625
 Alpha virt. eigenvalues --    3.74061   3.74627   3.76823   3.80616   3.82874
 Alpha virt. eigenvalues --    3.89012   3.90006   4.10787   4.13352   4.15201
 Alpha virt. eigenvalues --    4.30652   4.34975   4.41564
          Condensed to atoms (all electrons):
 Mulliken charges:
               1
     1  H    0.189759
     2  H    0.398715
     3  H    0.304176
     4  H    0.233716
     5  H    0.206486
     6  H    0.312237
     7  O   -0.551773
     8  O   -0.564402
     9  O   -0.528913
 Sum of Mulliken charges =  -0.00000
 Mulliken charges with hydrogens summed into heavy atoms:
               1
     7  O    0.036701
     8  O   -0.026511
     9  O   -0.010190
 Electronic spatial extent (au):  <R**2>=            315.4502
 Charge=             -0.0000 electrons
 Dipole moment (field-independent basis, Debye):
    X=              0.6251    Y=              0.0717    Z=              3.9913  Tot=              4.0406
 Unable to Open any file for archive entry.
 1\1\GINC-SE049\Stability\RHF\Aug-CC-pVDZ\H6O3\OHZDE\08-Apr-2025\0\\#t 
 hf aug-cc-pvdz symm=none int=(grid=ultrafine) guess=(read,tcheck) stab
 le=(opt,rrhf)\\title\\0,1\H,0,-2.07835,-0.185147,0.769207\H,0,-0.90658
 3,0.564541,0.031609\H,0,-0.0186239,-1.07122,-0.159075\H,0,1.15154,-1.7
 907,0.707292\H,0,0.925867,1.96797,0.639836\H,0,1.13915,0.534665,-0.050
 6502\O,0,-1.6039,-0.175529,-0.0939458\O,0,0.964794,-1.19285,-0.07218\O
 ,0,0.612484,1.36587,-0.0761516\\Version=ES64L-G16RevC.01\HF=-228.12082
 17\RMSD=8.212e-09\Dipole=0.2459433,0.0281954,1.5702948\Quadrupole=-0.9
 439643,0.9357877,0.0081765,0.4577775,-0.332124,0.0314878\PG=Unknown\\@
 The archive entry for this job was punched.


 A ROPE OVER THE TOP OF A FENCE HAS THE SAME LENGTH ON EACH SIDE.
 WEIGHS 1/3 POUND PER FOOT.  ON ONE END HANGS A MONKEY HOLDING A
 BANANA, AND ON THE OTHER END A WEIGHT EQUAL TO THE WEIGHT
 OF THE MONKEY.  THE BANANA WEIGHS TWO OUNCES PER INCH.
 THE ROPE IS AS LONG AS THE AGE OF THE MONKEY, 
 AND THE WEIGHT OF THE MONKEY (IN OUNCES) IS AS MUCH
 AS THE AGE OF THE MONKEY'S MOTHER.  THE COMBINED AGES OF MONKEY
 AND MOTHER ARE THIRTY YEARS.  HALF THE WEIGHT OF THE MONKEY,
  PLUS THE WEIGHT OF THE BANANA, IS ONE FOURTH AS MUCH AS THE WEIGHT
 OF THE WEIGHT AND THE ROPE.
 THE MONKEY'S MOTHER IS HALF AS OLD AS THE MONKEY WILL BE
 WHEN IT IS 3 TIMES AS OLD AS ITS MOTHER WAS WHEN
 SHE WAS HALF AS OLD AS THE MONKEY WILL BE WHEN IT IS
 AS OLD AS ITS MOTHER WILL BE WHEN SHE IS 4 TIMES AS
 OLD AS THE MONKEY WAS WHEN IT WAS TWICE AS OLD AS 
 ITS MOTHER WAS WHEN SHE WAS ONE THIRD AS OLD AS THE
 MONKEY WAS WHEN IT WAS AS OLD AS ITS MOTHER WAS WHEN 
 SHE WAS 3 TIMES AS OLD AS THE MONKEY WAS WHEN IT WAS AS OLD AS ITS
 MOTHER WAS WHEN SHE WAS 3 TIMES AS OLD AS THE MONKEY 
 WAS WHEN IT WAS ONE FOURTH WAS OLD AS IT IS NOW.

 HOW LONG IS THE BANANA?
 Job cpu time:       0 days  0 hours  0 minutes 34.9 seconds.
 Elapsed time:       0 days  0 hours  0 minutes  4.3 seconds.
 File lengths (MBytes):  RWF=     95 Int=      0 D2E=      0 Chk=      3 Scr=      1
 Normal termination of Gaussian 16 at Tue Apr  8 21:12:20 2025.
 Initial command:
 /arc/software/Gaussian/g16.c01/l1.exe "/tmp/slurm/4837790/Gau-4188404.inp" -scrdir="/tmp/slurm/4837790/"
 Entering Link 1 = /arc/software/Gaussian/g16.c01/l1.exe PID=   4188616.
  
 Copyright (c) 1988-2019, Gaussian, Inc.  All Rights Reserved.
  
 This is part of the Gaussian(R) 16 program.  It is based on
 the Gaussian(R) 09 system (copyright 2009, Gaussian, Inc.),
 the Gaussian(R) 03 system (copyright 2003, Gaussian, Inc.),
 the Gaussian(R) 98 system (copyright 1998, Gaussian, Inc.),
 the Gaussian(R) 94 system (copyright 1995, Gaussian, Inc.),
 the Gaussian 92(TM) system (copyright 1992, Gaussian, Inc.),
 the Gaussian 90(TM) system (copyright 1990, Gaussian, Inc.),
 the Gaussian 88(TM) system (copyright 1988, Gaussian, Inc.),
 the Gaussian 86(TM) system (copyright 1986, Carnegie Mellon
 University), and the Gaussian 82(TM) system (copyright 1983,
 Carnegie Mellon University). Gaussian is a federally registered
 trademark of Gaussian, Inc.
  
 This software contains proprietary and confidential information,
 including trade secrets, belonging to Gaussian, Inc.
  
 This software is provided under written license and may be
 used, copied, transmitted, or stored only in accord with that
 written license.
  
 The following legend is applicable only to US Government
 contracts under FAR:
  
                    RESTRICTED RIGHTS LEGEND
  
 Use, reproduction and disclosure by the US Government is
 subject to restrictions as set forth in subparagraphs (a)
 and (c) of the Commercial Computer Software - Restricted
 Rights clause in FAR 52.227-19.
  
 Gaussian, Inc.
 340 Quinnipiac St., Bldg. 40, Wallingford CT 06492
  
  
 ---------------------------------------------------------------
 Warning -- This program may not be used in any manner that
 competes with the business of Gaussian, Inc. or will provide
 assistance to any competitor of Gaussian, Inc.  The licensee
 of this program is prohibited from giving any competitor of
 Gaussian, Inc. access to this program.  By using this program,
 the user acknowledges that Gaussian, Inc. is engaged in the
 business of creating and licensing software in the field of
 computational chemistry and represents and warrants to the
 licensee that it is not a competitor of Gaussian, Inc. and that
 it will not use this program in any manner prohibited above.
 ---------------------------------------------------------------
  

 Cite this work as:
 Gaussian 16, Revision C.01,
 M. J. Frisch, G. W. Trucks, H. B. Schlegel, G. E. Scuseria, 
 M. A. Robb, J. R. Cheeseman, G. Scalmani, V. Barone, 
 G. A. Petersson, H. Nakatsuji, X. Li, M. Caricato, A. V. Marenich, 
 J. Bloino, B. G. Janesko, R. Gomperts, B. Mennucci, H. P. Hratchian, 
 J. V. Ortiz, A. F. Izmaylov, J. L. Sonnenberg, D. Williams-Young, 
 F. Ding, F. Lipparini, F. Egidi, J. Goings, B. Peng, A. Petrone, 
 T. Henderson, D. Ranasinghe, V. G. Zakrzewski, J. Gao, N. Rega, 
 G. Zheng, W. Liang, M. Hada, M. Ehara, K. Toyota, R. Fukuda, 
 J. Hasegawa, M. Ishida, T. Nakajima, Y. Honda, O. Kitao, H. Nakai, 
 T. Vreven, K. Throssell, J. A. Montgomery, Jr., J. E. Peralta, 
 F. Ogliaro, M. J. Bearpark, J. J. Heyd, E. N. Brothers, K. N. Kudin, 
 V. N. Staroverov, T. A. Keith, R. Kobayashi, J. Normand, 
 K. Raghavachari, A. P. Rendell, J. C. Burant, S. S. Iyengar, 
 J. Tomasi, M. Cossi, J. M. Millam, M. Klene, C. Adamo, R. Cammi, 
 J. W. Ochterski, R. L. Martin, K. Morokuma, O. Farkas, 
 J. B. Foresman, and D. J. Fox, Gaussian, Inc., Wallingford CT, 2019.
 
 ******************************************
 Gaussian 16:  ES64L-G16RevC.01  3-Jul-2019
                 8-Apr-2025 
 ******************************************
 %nprocs=16
 Will use up to   16 processors via shared memory.
 %mem=30GB
 %chk=ANI1ccx_1900_conf27_mol1.chk
 ----------------------------------------------------------------------
 #t hf aug-cc-pvdz iop(5/13=1,5/36=2,99/5=2) pseudo=read geom=check gue
 ss=(read,tcheck) scf=(maxcycle=1)
 ----------------------------------------------------------------------
 -----
 title
 -----
 Structure from the checkpoint file:  "ANI1ccx_1900_conf27_mol1.chk"
 Charge =  0 Multiplicity = 1
 Z-Matrix found in chk file.
 H,0,-2.07835,-0.185147,0.769207
 H,0,-0.906583,0.564541,0.031609
 H,0,-0.0186239,-1.07122,-0.159075
 H,0,1.15154,-1.7907,0.707292
 H,0,0.925867,1.96797,0.639836
 H,0,1.13915,0.534665,-0.0506502
 O,0,-1.6039,-0.175529,-0.0939458
 O,0,0.964794,-1.19285,-0.07218
 O,0,0.612484,1.36587,-0.0761516
 Recover connectivity data from disk.
                    Distance matrix (angstroms):
                    1          2          3          4          5
     1  H    0.000000
     2  H    1.574522   0.000000
     3  H    2.426789   1.870975   0.000000
     4  H    3.607468   3.199934   1.624046   0.000000
     5  H    3.698374   2.386928   3.281310   3.766043   0.000000
     6  H    3.397440   2.047604   1.982691   2.445803   1.605187
     7  O    0.985002   1.024558   1.821978   3.292903   3.395990
     8  O    3.314230   2.569289   0.994714   0.999938   3.240257
     9  O    3.218831   1.720844   2.518845   3.296710   0.986596
                    6          7          8          9
     6  H    0.000000
     7  O    2.833827   0.000000
     8  O    1.736425   2.762898   0.000000
     9  O    0.984342   2.699738   2.582864   0.000000
 Framework group  C1[X(H6O3)]
 Deg. of freedom    21
                         Standard orientation:                         
 ---------------------------------------------------------------------
 Center     Atomic      Atomic             Coordinates (Angstroms)
 Number     Number       Type             X           Y           Z
 ---------------------------------------------------------------------
      1          1           0       -2.078352   -0.185135    0.769207
      2          1           0       -0.906580    0.564545    0.031609
      3          1           0       -0.018631   -1.071221   -0.159075
      4          1           0        1.151528   -1.790708    0.707292
      5          1           0        0.925878    1.967963    0.639836
      6          1           0        1.139153    0.534657   -0.050650
      7          8           0       -1.603902   -0.175520   -0.093946
      8          8           0        0.964786   -1.192857   -0.072180
      9          8           0        0.612492    1.365865   -0.076152
 ---------------------------------------------------------------------
 Rotational constants (GHZ):           7.9201216           6.9684556           3.8069059
 ======================================================================================================
                                       Pseudopotential Parameters
 ======================================================================================================
  Center     Atomic      Valence      Angular      Power
  Number     Number     Electrons     Momentum     of R      Exponent        Coefficient   SO-Coeffient
 ======================================================================================================
    1          1            1
                                      F and up 
                                                     0        0.0000010       -0.00000699    0.00000000
                                                     2        0.1200000        0.00123686    0.00000000
                                                     2        0.1800000       -0.00752022    0.00000000
                                                     2        0.2600000        0.02503380    0.00000000
                                                     2        0.4000000       -0.08702670    0.00000000
                                                     2        0.6000000        0.30134159    0.00000000
                                                     2        0.8000000       -0.50204959    0.00000000
                                                     2        1.2000000        0.52208372    0.00000000
                                      S - F
                                                     0        0.0000010       -0.01618346    0.00000000
                                                     2        0.1200000       -0.07880581    0.00000000
                                                     2        0.1600000        0.32040539    0.00000000
                                                     2        0.2400000       -0.47500956    0.00000000
                                                     2        0.5000000        0.54013668    0.00000000
                                                     2        1.5000000       -1.40434292    0.00000000
                                                     2        3.0000000        1.46283806    0.00000000
                                      P - F
                                                     0        0.0000010        0.00612970    0.00000000
                                                     2        0.1200000        0.02254406    0.00000000
                                                     2        0.1800000       -0.13874529    0.00000000
                                                     2        0.3000000        0.38299049    0.00000000
                                                     2        0.5000000       -0.57923512    0.00000000
                                                     2        1.0000000        0.63021625    0.00000000
                                                     2        2.0000000       -0.79201034    0.00000000
                                      D - F
                                                     0        0.0000010       -0.00296226    0.00000000
                                                     2        0.1200000       -0.00547344    0.00000000
                                                     2        0.1400000        0.01837884    0.00000000
                                                     2        0.2400000       -0.05565704    0.00000000
                                                     2        0.4000000        0.15376597    0.00000000
                                                     2        0.8000000       -0.32464795    0.00000000
    2          1            1
                                      F and up 
                                                     0        0.0000010       -0.00000699    0.00000000
                                                     2        0.1200000        0.00123686    0.00000000
                                                     2        0.1800000       -0.00752022    0.00000000
                                                     2        0.2600000        0.02503380    0.00000000
                                                     2        0.4000000       -0.08702670    0.00000000
                                                     2        0.6000000        0.30134159    0.00000000
                                                     2        0.8000000       -0.50204959    0.00000000
                                                     2        1.2000000        0.52208372    0.00000000
                                      S - F
                                                     0        0.0000010       -0.01618346    0.00000000
                                                     2        0.1200000       -0.07880581    0.00000000
                                                     2        0.1600000        0.32040539    0.00000000
                                                     2        0.2400000       -0.47500956    0.00000000
                                                     2        0.5000000        0.54013668    0.00000000
                                                     2        1.5000000       -1.40434292    0.00000000
                                                     2        3.0000000        1.46283806    0.00000000
                                      P - F
                                                     0        0.0000010        0.00612970    0.00000000
                                                     2        0.1200000        0.02254406    0.00000000
                                                     2        0.1800000       -0.13874529    0.00000000
                                                     2        0.3000000        0.38299049    0.00000000
                                                     2        0.5000000       -0.57923512    0.00000000
                                                     2        1.0000000        0.63021625    0.00000000
                                                     2        2.0000000       -0.79201034    0.00000000
                                      D - F
                                                     0        0.0000010       -0.00296226    0.00000000
                                                     2        0.1200000       -0.00547344    0.00000000
                                                     2        0.1400000        0.01837884    0.00000000
                                                     2        0.2400000       -0.05565704    0.00000000
                                                     2        0.4000000        0.15376597    0.00000000
                                                     2        0.8000000       -0.32464795    0.00000000
    3          1            1
                                      F and up 
                                                     0        0.0000010       -0.00000699    0.00000000
                                                     2        0.1200000        0.00123686    0.00000000
                                                     2        0.1800000       -0.00752022    0.00000000
                                                     2        0.2600000        0.02503380    0.00000000
                                                     2        0.4000000       -0.08702670    0.00000000
                                                     2        0.6000000        0.30134159    0.00000000
                                                     2        0.8000000       -0.50204959    0.00000000
                                                     2        1.2000000        0.52208372    0.00000000
                                      S - F
                                                     0        0.0000010       -0.01618346    0.00000000
                                                     2        0.1200000       -0.07880581    0.00000000
                                                     2        0.1600000        0.32040539    0.00000000
                                                     2        0.2400000       -0.47500956    0.00000000
                                                     2        0.5000000        0.54013668    0.00000000
                                                     2        1.5000000       -1.40434292    0.00000000
                                                     2        3.0000000        1.46283806    0.00000000
                                      P - F
                                                     0        0.0000010        0.00612970    0.00000000
                                                     2        0.1200000        0.02254406    0.00000000
                                                     2        0.1800000       -0.13874529    0.00000000
                                                     2        0.3000000        0.38299049    0.00000000
                                                     2        0.5000000       -0.57923512    0.00000000
                                                     2        1.0000000        0.63021625    0.00000000
                                                     2        2.0000000       -0.79201034    0.00000000
                                      D - F
                                                     0        0.0000010       -0.00296226    0.00000000
                                                     2        0.1200000       -0.00547344    0.00000000
                                                     2        0.1400000        0.01837884    0.00000000
                                                     2        0.2400000       -0.05565704    0.00000000
                                                     2        0.4000000        0.15376597    0.00000000
                                                     2        0.8000000       -0.32464795    0.00000000
    4          1            1
                                      F and up 
                                                     0        0.0000010       -0.00000699    0.00000000
                                                     2        0.1200000        0.00123686    0.00000000
                                                     2        0.1800000       -0.00752022    0.00000000
                                                     2        0.2600000        0.02503380    0.00000000
                                                     2        0.4000000       -0.08702670    0.00000000
                                                     2        0.6000000        0.30134159    0.00000000
                                                     2        0.8000000       -0.50204959    0.00000000
                                                     2        1.2000000        0.52208372    0.00000000
                                      S - F
                                                     0        0.0000010       -0.01618346    0.00000000
                                                     2        0.1200000       -0.07880581    0.00000000
                                                     2        0.1600000        0.32040539    0.00000000
                                                     2        0.2400000       -0.47500956    0.00000000
                                                     2        0.5000000        0.54013668    0.00000000
                                                     2        1.5000000       -1.40434292    0.00000000
                                                     2        3.0000000        1.46283806    0.00000000
                                      P - F
                                                     0        0.0000010        0.00612970    0.00000000
                                                     2        0.1200000        0.02254406    0.00000000
                                                     2        0.1800000       -0.13874529    0.00000000
                                                     2        0.3000000        0.38299049    0.00000000
                                                     2        0.5000000       -0.57923512    0.00000000
                                                     2        1.0000000        0.63021625    0.00000000
                                                     2        2.0000000       -0.79201034    0.00000000
                                      D - F
                                                     0        0.0000010       -0.00296226    0.00000000
                                                     2        0.1200000       -0.00547344    0.00000000
                                                     2        0.1400000        0.01837884    0.00000000
                                                     2        0.2400000       -0.05565704    0.00000000
                                                     2        0.4000000        0.15376597    0.00000000
                                                     2        0.8000000       -0.32464795    0.00000000
    5          1            1
                                      F and up 
                                                     0        0.0000010       -0.00000699    0.00000000
                                                     2        0.1200000        0.00123686    0.00000000
                                                     2        0.1800000       -0.00752022    0.00000000
                                                     2        0.2600000        0.02503380    0.00000000
                                                     2        0.4000000       -0.08702670    0.00000000
                                                     2        0.6000000        0.30134159    0.00000000
                                                     2        0.8000000       -0.50204959    0.00000000
                                                     2        1.2000000        0.52208372    0.00000000
                                      S - F
                                                     0        0.0000010       -0.01618346    0.00000000
                                                     2        0.1200000       -0.07880581    0.00000000
                                                     2        0.1600000        0.32040539    0.00000000
                                                     2        0.2400000       -0.47500956    0.00000000
                                                     2        0.5000000        0.54013668    0.00000000
                                                     2        1.5000000       -1.40434292    0.00000000
                                                     2        3.0000000        1.46283806    0.00000000
                                      P - F
                                                     0        0.0000010        0.00612970    0.00000000
                                                     2        0.1200000        0.02254406    0.00000000
                                                     2        0.1800000       -0.13874529    0.00000000
                                                     2        0.3000000        0.38299049    0.00000000
                                                     2        0.5000000       -0.57923512    0.00000000
                                                     2        1.0000000        0.63021625    0.00000000
                                                     2        2.0000000       -0.79201034    0.00000000
                                      D - F
                                                     0        0.0000010       -0.00296226    0.00000000
                                                     2        0.1200000       -0.00547344    0.00000000
                                                     2        0.1400000        0.01837884    0.00000000
                                                     2        0.2400000       -0.05565704    0.00000000
                                                     2        0.4000000        0.15376597    0.00000000
                                                     2        0.8000000       -0.32464795    0.00000000
    6          1            1
                                      F and up 
                                                     0        0.0000010       -0.00000699    0.00000000
                                                     2        0.1200000        0.00123686    0.00000000
                                                     2        0.1800000       -0.00752022    0.00000000
                                                     2        0.2600000        0.02503380    0.00000000
                                                     2        0.4000000       -0.08702670    0.00000000
                                                     2        0.6000000        0.30134159    0.00000000
                                                     2        0.8000000       -0.50204959    0.00000000
                                                     2        1.2000000        0.52208372    0.00000000
                                      S - F
                                                     0        0.0000010       -0.01618346    0.00000000
                                                     2        0.1200000       -0.07880581    0.00000000
                                                     2        0.1600000        0.32040539    0.00000000
                                                     2        0.2400000       -0.47500956    0.00000000
                                                     2        0.5000000        0.54013668    0.00000000
                                                     2        1.5000000       -1.40434292    0.00000000
                                                     2        3.0000000        1.46283806    0.00000000
                                      P - F
                                                     0        0.0000010        0.00612970    0.00000000
                                                     2        0.1200000        0.02254406    0.00000000
                                                     2        0.1800000       -0.13874529    0.00000000
                                                     2        0.3000000        0.38299049    0.00000000
                                                     2        0.5000000       -0.57923512    0.00000000
                                                     2        1.0000000        0.63021625    0.00000000
                                                     2        2.0000000       -0.79201034    0.00000000
                                      D - F
                                                     0        0.0000010       -0.00296226    0.00000000
                                                     2        0.1200000       -0.00547344    0.00000000
                                                     2        0.1400000        0.01837884    0.00000000
                                                     2        0.2400000       -0.05565704    0.00000000
                                                     2        0.4000000        0.15376597    0.00000000
                                                     2        0.8000000       -0.32464795    0.00000000
    7          8            8
                                      G and up 
                                                     0        0.0000010        0.00001165    0.00000000
                                                     2        0.1200000       -0.01744018    0.00000000
                                                     2        0.1400000        0.05401326    0.00000000
                                                     2        0.1800000       -0.08231208    0.00000000
                                                     2        0.2600000        0.11570222    0.00000000
                                                     2        0.4000000       -0.20630360    0.00000000
                                                     2        0.7000000        0.38074319    0.00000000
                                                     2        1.2000000       -0.17045091    0.00000000
                                                     2        2.0000000       -1.45433187    0.00000000
                                      S - G
                                                     0        0.0000010       -0.00117944    0.00000000
                                                     2        0.1400000        0.04368312    0.00000000
                                                     2        0.3000000       -0.33477926    0.00000000
                                                     2        0.6000000        1.52630657    0.00000000
                                                     2        1.5000000       -2.50804716    0.00000000
                                                     2        3.0000000        2.89751681    0.00000000
                                      P - G
                                                     0        0.0000010        0.06576007    0.00000000
                                                     2        0.1200000       -0.10329304    0.00000000
                                                     2        0.2000000        0.24891756    0.00000000
                                                     2        0.4000000       -0.50800022    0.00000000
                                                     2        0.9000000        0.81480796    0.00000000
                                      D - G
                                                     0        0.0000010       -0.14101855    0.00000000
                                                     2        0.1200000        0.22105937    0.00000000
                                                     2        0.1800000       -0.45814988    0.00000000
                                                     2        0.3000000        0.46029282    0.00000000
                                      F - G
                                                     0        0.0000010        0.07483044    0.00000000
                                                     2        0.1200000       -0.09134252    0.00000000
                                                     2        0.1400000        0.04125459    0.00000000
                                                     2        0.3000000        0.37914837    0.00000000
                                                     2        0.5000000       -0.86881279    0.00000000
    8          8            8
                                      G and up 
                                                     0        0.0000010        0.00001165    0.00000000
                                                     2        0.1200000       -0.01744018    0.00000000
                                                     2        0.1400000        0.05401326    0.00000000
                                                     2        0.1800000       -0.08231208    0.00000000
                                                     2        0.2600000        0.11570222    0.00000000
                                                     2        0.4000000       -0.20630360    0.00000000
                                                     2        0.7000000        0.38074319    0.00000000
                                                     2        1.2000000       -0.17045091    0.00000000
                                                     2        2.0000000       -1.45433187    0.00000000
                                      S - G
                                                     0        0.0000010       -0.00117944    0.00000000
                                                     2        0.1400000        0.04368312    0.00000000
                                                     2        0.3000000       -0.33477926    0.00000000
                                                     2        0.6000000        1.52630657    0.00000000
                                                     2        1.5000000       -2.50804716    0.00000000
                                                     2        3.0000000        2.89751681    0.00000000
                                      P - G
                                                     0        0.0000010        0.06576007    0.00000000
                                                     2        0.1200000       -0.10329304    0.00000000
                                                     2        0.2000000        0.24891756    0.00000000
                                                     2        0.4000000       -0.50800022    0.00000000
                                                     2        0.9000000        0.81480796    0.00000000
                                      D - G
                                                     0        0.0000010       -0.14101855    0.00000000
                                                     2        0.1200000        0.22105937    0.00000000
                                                     2        0.1800000       -0.45814988    0.00000000
                                                     2        0.3000000        0.46029282    0.00000000
                                      F - G
                                                     0        0.0000010        0.07483044    0.00000000
                                                     2        0.1200000       -0.09134252    0.00000000
                                                     2        0.1400000        0.04125459    0.00000000
                                                     2        0.3000000        0.37914837    0.00000000
                                                     2        0.5000000       -0.86881279    0.00000000
    9          8            8
                                      G and up 
                                                     0        0.0000010        0.00001165    0.00000000
                                                     2        0.1200000       -0.01744018    0.00000000
                                                     2        0.1400000        0.05401326    0.00000000
                                                     2        0.1800000       -0.08231208    0.00000000
                                                     2        0.2600000        0.11570222    0.00000000
                                                     2        0.4000000       -0.20630360    0.00000000
                                                     2        0.7000000        0.38074319    0.00000000
                                                     2        1.2000000       -0.17045091    0.00000000
                                                     2        2.0000000       -1.45433187    0.00000000
                                      S - G
                                                     0        0.0000010       -0.00117944    0.00000000
                                                     2        0.1400000        0.04368312    0.00000000
                                                     2        0.3000000       -0.33477926    0.00000000
                                                     2        0.6000000        1.52630657    0.00000000
                                                     2        1.5000000       -2.50804716    0.00000000
                                                     2        3.0000000        2.89751681    0.00000000
                                      P - G
                                                     0        0.0000010        0.06576007    0.00000000
                                                     2        0.1200000       -0.10329304    0.00000000
                                                     2        0.2000000        0.24891756    0.00000000
                                                     2        0.4000000       -0.50800022    0.00000000
                                                     2        0.9000000        0.81480796    0.00000000
                                      D - G
                                                     0        0.0000010       -0.14101855    0.00000000
                                                     2        0.1200000        0.22105937    0.00000000
                                                     2        0.1800000       -0.45814988    0.00000000
                                                     2        0.3000000        0.46029282    0.00000000
                                      F - G
                                                     0        0.0000010        0.07483044    0.00000000
                                                     2        0.1200000       -0.09134252    0.00000000
                                                     2        0.1400000        0.04125459    0.00000000
                                                     2        0.3000000        0.37914837    0.00000000
                                                     2        0.5000000       -0.86881279    0.00000000
 ======================================================================================================
   123 basis functions,   195 primitive gaussians,   129 cartesian basis functions
    15 alpha electrons       15 beta electrons
       nuclear repulsion energy        86.5538889760 Hartrees.
 NAtoms=    9 NActive=    9 NUniq=    9 SFac= 1.00D+00 NAtFMM=   60 NAOKFM=F Big=F
   1 Symmetry operations used in ECPInt.
 ECPInt:  NShTT=    1653 NPrTT=    6369 LenC2=    1651 LenP2D=    5409.
 LDataN:  DoStor=T MaxTD1= 6 Len=  172
 Initial guess from the checkpoint file:  "ANI1ccx_1900_conf27_mol1.chk"
 B after Tr=    -0.000002   -0.000002    0.000000
         Rot=    1.000000    0.000000   -0.000000    0.000003 Ang=   0.00 deg.
 >>>>>>>>>> Convergence criterion not met.
 SCF Done:  E(RHF) =  -228.196707275     A.U. after    2 cycles
            NFock=  1  Conv=0.20D-02     -V/T= 1.9959

 **********************************************************************

            Population analysis using the SCF Density.

 **********************************************************************

 Orbital symmetries:
       Occupied  (A) (A) (A) (A) (A) (A) (A) (A) (A) (A) (A) (A)
                 (A) (A) (A)
       Virtual   (A) (A) (A) (A) (A) (A) (A) (A) (A) (A) (A) (A)
                 (A) (A) (A) (A) (A) (A) (A) (A) (A) (A) (A) (A)
                 (A) (A) (A) (A) (A) (A) (A) (A) (A) (A) (A) (A)
                 (A) (A) (A) (A) (A) (A) (A) (A) (A) (A) (A) (A)
                 (A) (A) (A) (A) (A) (A) (A) (A) (A) (A) (A) (A)
                 (A) (A) (A) (A) (A) (A) (A) (A) (A) (A) (A) (A)
                 (A) (A) (A) (A) (A) (A) (A) (A) (A) (A) (A) (A)
                 (A) (A) (A) (A) (A) (A) (A) (A) (A) (A) (A) (A)
                 (A) (A) (A) (A) (A) (A) (A) (A) (A) (A) (A) (A)
 The electronic state is 1-A.
 Alpha  occ. eigenvalues --  -20.58198 -20.58147 -20.57488  -1.32144  -1.29376
 Alpha  occ. eigenvalues --   -1.28632  -0.76116  -0.72265  -0.70488  -0.61158
 Alpha  occ. eigenvalues --   -0.60282  -0.58654  -0.53356  -0.51790  -0.51468
 Alpha virt. eigenvalues --    0.02612   0.04886   0.05317   0.08192   0.08619
 Alpha virt. eigenvalues --    0.09090   0.16566   0.18457   0.18631   0.20771
 Alpha virt. eigenvalues --    0.21141   0.22200   0.24123   0.25986   0.26625
 Alpha virt. eigenvalues --    0.27589   0.29771   0.30731   0.31434   0.35096
 Alpha virt. eigenvalues --    0.35993   0.38906   0.39709   0.41344   0.46337
 Alpha virt. eigenvalues --    0.46763   0.47538   0.48942   0.50908   0.52747
 Alpha virt. eigenvalues --    0.53457   0.57864   0.61558   0.62173   0.63868
 Alpha virt. eigenvalues --    0.64676   0.66177   0.66698   0.67781   0.74572
 Alpha virt. eigenvalues --    0.78395   0.79498   0.88101   0.91471   0.92105
 Alpha virt. eigenvalues --    0.97698   0.99293   1.06422   1.13221   1.18087
 Alpha virt. eigenvalues --    1.20514   1.22948   1.23578   1.24487   1.26897
 Alpha virt. eigenvalues --    1.32153   1.36365   1.37291   1.41681   1.46634
 Alpha virt. eigenvalues --    1.51137   1.52764   1.56935   1.59922   1.63947
 Alpha virt. eigenvalues --    1.64728   1.79628   1.85206   1.94255   1.97202
 Alpha virt. eigenvalues --    2.00232   2.03490   2.10884   2.16537   2.18151
 Alpha virt. eigenvalues --    2.19797   2.23686   2.30709   2.42352   2.45170
 Alpha virt. eigenvalues --    2.47202   2.51125   2.52859   2.54501   2.65725
 Alpha virt. eigenvalues --    2.68460   2.76810   2.88367   2.88937   2.96754
 Alpha virt. eigenvalues --    3.06398   3.12531   3.18312   3.53180   3.58406
 Alpha virt. eigenvalues --    3.58951   3.59384   3.61605   3.65344   3.68062
 Alpha virt. eigenvalues --    3.74301   3.75216   3.96351   3.99051   4.00675
 Alpha virt. eigenvalues --    4.15480   4.20630   4.27346
          Condensed to atoms (all electrons):
 Mulliken charges:
               1
     1  H    0.181381
     2  H    0.307125
     3  H    0.245155
     4  H    0.214810
     5  H    0.189884
     6  H    0.249719
     7  O   -0.478494
     8  O   -0.470590
     9  O   -0.438990
 Sum of Mulliken charges =  -0.00000
 Mulliken charges with hydrogens summed into heavy atoms:
               1
     7  O    0.010013
     8  O   -0.010625
     9  O    0.000612
 Electronic spatial extent (au):  <R**2>=            314.1349
 Charge=              0.0000 electrons
 Dipole moment (field-independent basis, Debye):
    X=              0.6420    Y=              0.0733    Z=              4.1568  Tot=              4.2067

 Test job not archived.
 1\1\GINC-SE049\SP\RHF\Aug-CC-pVDZ\H6O3\OHZDE\08-Apr-2025\0\\#t hf aug-
 cc-pvdz iop(5/13=1,5/36=2,99/5=2) pseudo=read geom=check guess=(read,t
 check) scf=(maxcycle=1)\\title\\0,1\H,0,-2.07835,-0.185147,0.769207\H,
 0,-0.906583,0.564541,0.031609\H,0,-0.0186239,-1.07122,-0.159075\H,0,1.
 15154,-1.7907,0.707292\H,0,0.925867,1.96797,0.639836\H,0,1.13915,0.534
 665,-0.0506502\O,0,-1.6039,-0.175529,-0.0939458\O,0,0.964794,-1.19285,
 -0.07218\O,0,0.612484,1.36587,-0.0761516\\Version=ES64L-G16RevC.01\Sta
 te=1-A\HF=-228.1967073\RMSD=1.952e-03\Dipole=0.2525862,0.0288588,1.635
 4182\Quadrupole=-0.9673683,0.9833448,-0.0159765,0.4694422,-0.3521681,0
 .0305937\PG=C01 [X(H6O3)]\\@


 Boundary, n.  In political geography, an imaginary
 line between two nations, separating the imaginary
 rights of one from the imaginary rights of another.
                               -- Ambrose Bierce
 Job cpu time:       0 days  0 hours  0 minutes 17.4 seconds.
 Elapsed time:       0 days  0 hours  0 minutes  2.2 seconds.
 File lengths (MBytes):  RWF=      6 Int=      0 D2E=      0 Chk=      3 Scr=      1
 Normal termination of Gaussian 16 at Tue Apr  8 21:12:22 2025.
