 Entering Gaussian System, Link 0=g16
 Input=ANI1ccx_555_conf4_mol1.gjf
 Output=ANI1ccx_555_conf4_mol1.log
 Initial command:
 /arc/software/Gaussian/g16.c01/l1.exe "/tmp/slurm/4838974/Gau-3765717.inp" -scrdir="/tmp/slurm/4838974/"
 Entering Link 1 = /arc/software/Gaussian/g16.c01/l1.exe PID=   3765718.
  
 Copyright (c) 1988-2019, Gaussian, Inc.  All Rights Reserved.
  
 This is part of the Gaussian(R) 16 program.  It is based on
 the Gaussian(R) 09 system (copyright 2009, Gaussian, Inc.),
 the Gaussian(R) 03 system (copyright 2003, Gaussian, Inc.),
 the Gaussian(R) 98 system (copyright 1998, Gaussian, Inc.),
 the Gaussian(R) 94 system (copyright 1995, Gaussian, Inc.),
 the Gaussian 92(TM) system (copyright 1992, Gaussian, Inc.),
 the Gaussian 90(TM) system (copyright 1990, Gaussian, Inc.),
 the Gaussian 88(TM) system (copyright 1988, Gaussian, Inc.),
 the Gaussian 86(TM) system (copyright 1986, Carnegie Mellon
 University), and the Gaussian 82(TM) system (copyright 1983,
 Carnegie Mellon University). Gaussian is a federally registered
 trademark of Gaussian, Inc.
  
 This software contains proprietary and confidential information,
 including trade secrets, belonging to Gaussian, Inc.
  
 This software is provided under written license and may be
 used, copied, transmitted, or stored only in accord with that
 written license.
  
 The following legend is applicable only to US Government
 contracts under FAR:
  
                    RESTRICTED RIGHTS LEGEND
  
 Use, reproduction and disclosure by the US Government is
 subject to restrictions as set forth in subparagraphs (a)
 and (c) of the Commercial Computer Software - Restricted
 Rights clause in FAR 52.227-19.
  
 Gaussian, Inc.
 340 Quinnipiac St., Bldg. 40, Wallingford CT 06492
  
  
 ---------------------------------------------------------------
 Warning -- This program may not be used in any manner that
 competes with the business of Gaussian, Inc. or will provide
 assistance to any competitor of Gaussian, Inc.  The licensee
 of this program is prohibited from giving any competitor of
 Gaussian, Inc. access to this program.  By using this program,
 the user acknowledges that Gaussian, Inc. is engaged in the
 business of creating and licensing software in the field of
 computational chemistry and represents and warrants to the
 licensee that it is not a competitor of Gaussian, Inc. and that
 it will not use this program in any manner prohibited above.
 ---------------------------------------------------------------
  

 Cite this work as:
 Gaussian 16, Revision C.01,
 M. J. Frisch, G. W. Trucks, H. B. Schlegel, G. E. Scuseria, 
 M. A. Robb, J. R. Cheeseman, G. Scalmani, V. Barone, 
 G. A. Petersson, H. Nakatsuji, X. Li, M. Caricato, A. V. Marenich, 
 J. Bloino, B. G. Janesko, R. Gomperts, B. Mennucci, H. P. Hratchian, 
 J. V. Ortiz, A. F. Izmaylov, J. L. Sonnenberg, D. Williams-Young, 
 F. Ding, F. Lipparini, F. Egidi, J. Goings, B. Peng, A. Petrone, 
 T. Henderson, D. Ranasinghe, V. G. Zakrzewski, J. Gao, N. Rega, 
 G. Zheng, W. Liang, M. Hada, M. Ehara, K. Toyota, R. Fukuda, 
 J. Hasegawa, M. Ishida, T. Nakajima, Y. Honda, O. Kitao, H. Nakai, 
 T. Vreven, K. Throssell, J. A. Montgomery, Jr., J. E. Peralta, 
 F. Ogliaro, M. J. Bearpark, J. J. Heyd, E. N. Brothers, K. N. Kudin, 
 V. N. Staroverov, T. A. Keith, R. Kobayashi, J. Normand, 
 K. Raghavachari, A. P. Rendell, J. C. Burant, S. S. Iyengar, 
 J. Tomasi, M. Cossi, J. M. Millam, M. Klene, C. Adamo, R. Cammi, 
 J. W. Ochterski, R. L. Martin, K. Morokuma, O. Farkas, 
 J. B. Foresman, and D. J. Fox, Gaussian, Inc., Wallingford CT, 2019.
 
 ******************************************
 Gaussian 16:  ES64L-G16RevC.01  3-Jul-2019
                 8-Apr-2025 
 ******************************************
 %nprocs=16
 Will use up to   16 processors via shared memory.
 %mem=30GB
 %chk=ANI1ccx_555_conf4_mol1.chk
 ----------------------------------------------------------------------
 #t hf aug-cc-pvdz symm=none int=(grid=ultrafine) guess=(read,tcheck) s
 table=(opt,rrhf)
 ----------------------------------------------------------------------
 -----
 title
 -----
 Symbolic Z-matrix:
 Charge =  0 Multiplicity = 1
 C                     1.41621   0.23923  -0.14593 
 C                    -1.51114  -0.04647  -0.00454 
 H                     3.37466   0.66553   0.32903 
 H                     3.13733  -0.88894   0.05342 
 H                     1.08754  -1.73402  -0.48528 
 H                    -0.80782  -0.46841  -1.78761 
 H                    -0.52446  -0.8424    1.50065 
 H                    -1.99232   0.03259   1.98588 
 N                     2.68211  -0.05642   0.42451 
 N                     0.61217  -0.87268  -0.38331 
 N                    -0.66439  -0.71515  -0.81148 
 N                    -1.34362  -0.31392   1.30215 
 O                     0.8905    1.36796  -0.18752 
 O                    -2.47915   0.60533  -0.36453 
 
                    Distance matrix (angstroms):
                    1          2          3          4          5
     1  C    0.000000
     2  C    2.944655   0.000000
     3  H    2.059816   4.948662   0.000000
     4  H    2.067552   4.724552   1.596455   0.000000
     5  H    2.029019   3.135616   3.413485   2.281667   0.000000
     6  H    2.853449   1.962660   4.822769   4.373835   2.624920
     7  H    2.765383   1.967907   4.341620   3.937678   2.708772
     8  H    4.025592   2.049282   5.652454   5.558499   4.325865
     9  N    1.419617   4.215154   1.004969   1.018828   2.486906
    10  N    1.392543   2.309663   3.241120   2.562698   0.989082
    11  N    2.383841   1.347325   4.418253   3.902731   2.052740
    12  N    3.165371   1.344260   4.916143   4.687097   3.334987
    13  O    1.245841   2.793202   2.632729   3.193724   3.122462
    14  O    3.918627   1.221257   5.895061   5.826865   4.267130
                    6          7          8          9         10
     6  H    0.000000
     7  H    3.321569   0.000000
     8  H    3.986637   1.776425   0.000000
     9  N    4.152443   3.472451   4.929108   0.000000
    10  N    2.037615   2.200483   3.635372   2.367166   0.000000
    11  N    1.016998   2.319853   3.185553   3.627758   1.355637
    12  N    3.139676   0.994848   1.004176   4.128325   2.641608
    13  O    2.969314   3.120534   3.849358   2.369240   2.266333
    14  O    2.443649   3.065230   2.467681   5.262993   3.426532
                   11         12         13         14
    11  N    0.000000
    12  N    2.256053   0.000000
    13  O    2.673270   3.168463   0.000000
    14  O    2.288404   2.216363   3.459409   0.000000
 Symmetry turned off by external request.
 Rotational constants (GHZ):           4.5477214           1.3386244           1.3018011
   238 basis functions,   410 primitive gaussians,   254 cartesian basis functions
    31 alpha electrons       31 beta electrons
       nuclear repulsion energy       396.7025813958 Hartrees.
 NAtoms=   14 NActive=   14 NUniq=   14 SFac= 1.00D+00 NAtFMM=   60 NAOKFM=F Big=F
 ExpMin= 2.97D-02 ExpMax= 1.17D+04 ExpMxC= 4.01D+02 IAcc=3 IRadAn=         5 AccDes= 0.00D+00
 Harris functional with IExCor=  205 and IRadAn=       5 diagonalized for initial guess.
 HarFok:  IExCor=  205 AccDes= 0.00D+00 IRadAn=         5 IDoV= 1 UseB2=F ITyADJ=14
 ICtDFT=  3500011 ScaDFX=  1.000000  1.000000  1.000000  1.000000
 FoFCou: FMM=F IPFlag=           0 FMFlag=      100000 FMFlg1=           0
         NFxFlg=           0 DoJE=T BraDBF=F KetDBF=T FulRan=T
         wScrn=  0.000000 ICntrl=       500 IOpCl=  0 I1Cent=   200000004 NGrid=           0
         NMat0=    1 NMatS0=      1 NMatT0=    0 NMatD0=    1 NMtDS0=    0 NMtDT0=    0
 Symmetry not used in FoFCou.
 SCF Done:  E(RHF) =  -446.825834691     A.U. after   14 cycles
            NFock= 14  Conv=0.67D-08     -V/T= 2.0013

 **********************************************************************

            Population analysis using the SCF Density.

 **********************************************************************

 Alpha  occ. eigenvalues --  -20.55263 -20.50813 -15.65505 -15.63485 -15.62640
 Alpha  occ. eigenvalues --  -15.57216 -11.42071 -11.37406  -1.43657  -1.38812
 Alpha  occ. eigenvalues --   -1.33167  -1.24208  -1.20534  -1.12571  -0.88170
 Alpha  occ. eigenvalues --   -0.82630  -0.78999  -0.75911  -0.74451  -0.69287
 Alpha  occ. eigenvalues --   -0.67095  -0.63591  -0.60661  -0.60474  -0.58173
 Alpha  occ. eigenvalues --   -0.48453  -0.47051  -0.44861  -0.42436  -0.42095
 Alpha  occ. eigenvalues --   -0.40123
 Alpha virt. eigenvalues --    0.01265   0.03588   0.04360   0.05008   0.06579
 Alpha virt. eigenvalues --    0.07462   0.09716   0.10889   0.11604   0.12305
 Alpha virt. eigenvalues --    0.13625   0.14634   0.15079   0.15932   0.16171
 Alpha virt. eigenvalues --    0.16796   0.17691   0.18547   0.19008   0.19553
 Alpha virt. eigenvalues --    0.20241   0.20763   0.21882   0.22289   0.23173
 Alpha virt. eigenvalues --    0.25112   0.26446   0.27657   0.28591   0.29265
 Alpha virt. eigenvalues --    0.31407   0.31652   0.33076   0.33683   0.34820
 Alpha virt. eigenvalues --    0.35229   0.35543   0.36210   0.37191   0.37975
 Alpha virt. eigenvalues --    0.38731   0.39389   0.39949   0.41141   0.42862
 Alpha virt. eigenvalues --    0.43466   0.45036   0.45411   0.46867   0.47379
 Alpha virt. eigenvalues --    0.48086   0.49369   0.49766   0.51470   0.52370
 Alpha virt. eigenvalues --    0.53783   0.54079   0.55554   0.56941   0.59066
 Alpha virt. eigenvalues --    0.59253   0.60482   0.62508   0.62571   0.63796
 Alpha virt. eigenvalues --    0.64689   0.65441   0.68793   0.69069   0.69498
 Alpha virt. eigenvalues --    0.70215   0.70943   0.73019   0.73762   0.75157
 Alpha virt. eigenvalues --    0.77515   0.78772   0.80343   0.81708   0.83978
 Alpha virt. eigenvalues --    0.84522   0.84625   0.86991   0.87515   0.89267
 Alpha virt. eigenvalues --    0.90709   0.92794   0.93497   0.94151   0.97593
 Alpha virt. eigenvalues --    0.98217   0.99383   1.00355   1.03941   1.05147
 Alpha virt. eigenvalues --    1.05502   1.06249   1.08263   1.08921   1.09361
 Alpha virt. eigenvalues --    1.12308   1.13235   1.18722   1.20202   1.22540
 Alpha virt. eigenvalues --    1.24232   1.25700   1.28307   1.30609   1.32679
 Alpha virt. eigenvalues --    1.34444   1.37426   1.39034   1.40744   1.42565
 Alpha virt. eigenvalues --    1.44477   1.47571   1.49032   1.49489   1.55421
 Alpha virt. eigenvalues --    1.56474   1.60471   1.61888   1.63291   1.63928
 Alpha virt. eigenvalues --    1.67664   1.68900   1.71101   1.76210   1.78647
 Alpha virt. eigenvalues --    1.86028   1.87339   1.88822   1.89575   1.91862
 Alpha virt. eigenvalues --    1.93111   1.97371   1.99235   2.02581   2.03207
 Alpha virt. eigenvalues --    2.06401   2.10390   2.13855   2.14388   2.15923
 Alpha virt. eigenvalues --    2.19858   2.21909   2.24833   2.26189   2.27176
 Alpha virt. eigenvalues --    2.27596   2.32590   2.34804   2.35668   2.37032
 Alpha virt. eigenvalues --    2.39179   2.40969   2.42828   2.43411   2.45150
 Alpha virt. eigenvalues --    2.49822   2.50541   2.53142   2.53486   2.57824
 Alpha virt. eigenvalues --    2.59101   2.63262   2.66307   2.68270   2.70799
 Alpha virt. eigenvalues --    2.72261   2.73255   2.77084   2.80706   2.84993
 Alpha virt. eigenvalues --    2.85968   2.86888   2.89450   2.93803   2.98266
 Alpha virt. eigenvalues --    2.99975   3.05449   3.09186   3.10761   3.17765
 Alpha virt. eigenvalues --    3.20257   3.24298   3.30516   3.32557   3.46572
 Alpha virt. eigenvalues --    3.52825   3.54041   3.61455   3.63567   3.70780
 Alpha virt. eigenvalues --    3.75241   3.80373   3.82957   3.84745   3.87179
 Alpha virt. eigenvalues --    3.93663   3.96419   4.00175   4.05993   4.14789
 Alpha virt. eigenvalues --    4.21010   4.26253
          Condensed to atoms (all electrons):
 Mulliken charges:
               1
     1  C    1.346602
     2  C    1.235635
     3  H    0.030597
     4  H    0.003350
     5  H   -0.094946
     6  H   -0.014638
     7  H    0.046718
     8  H   -0.044743
     9  N   -0.340233
    10  N   -0.228017
    11  N   -0.244002
    12  N   -0.230093
    13  O   -0.703346
    14  O   -0.762886
 Sum of Mulliken charges =  -0.00000
 Mulliken charges with hydrogens summed into heavy atoms:
               1
     1  C    1.346602
     2  C    1.235635
     9  N   -0.306287
    10  N   -0.322963
    11  N   -0.258639
    12  N   -0.228117
    13  O   -0.703346
    14  O   -0.762886
 Electronic spatial extent (au):  <R**2>=            959.0955
 Charge=             -0.0000 electrons
 Dipole moment (field-independent basis, Debye):
    X=              6.3050    Y=             -5.1202    Z=              0.2328  Tot=              8.1255
 NROrb=    238 NOA=    31 NOB=    31 NVA=   207 NVB=   207

 **** Warning!!: The largest alpha MO coefficient is  0.30850258D+02

    12 initial guesses have been made.
 Iteration     1 Dimension    12 NMult     0 NNew     12
 New state      1 was old state      3
 Iteration     2 Dimension    24 NMult    12 NNew     12
 Iteration     3 Dimension    27 NMult    24 NNew      3
 Iteration     4 Dimension    30 NMult    27 NNew      3
 Iteration     5 Dimension    33 NMult    30 NNew      3
 Iteration     6 Dimension    36 NMult    33 NNew      3
 Iteration     7 Dimension    39 NMult    36 NNew      3
 Iteration     8 Dimension    42 NMult    39 NNew      3
 Iteration     9 Dimension    45 NMult    42 NNew      3
 Iteration    10 Dimension    48 NMult    45 NNew      3
 Iteration    11 Dimension    51 NMult    48 NNew      3
 Iteration    12 Dimension    54 NMult    51 NNew      3
 Iteration    13 Dimension    57 NMult    54 NNew      3
 ***********************************************************************
 Stability analysis using <AA,BB:AA,BB> singles matrix:
 ***********************************************************************
 Ground to excited state transition densities written to RWF  633

 Eigenvectors of the stability matrix:
 
 Excited state symmetry could not be determined.
 Eigenvector   1:      Singlet-?Sym  Eigenvalue= 0.2564285  <S**2>=0.000
      27 -> 43         0.28460
      27 -> 45         0.22786
      27 -> 48         0.20251
      27 -> 50        -0.21069
      28 -> 43         0.13010
      28 -> 45         0.12529
      28 -> 50        -0.10528
      30 -> 43        -0.13306
 The wavefunction is stable under the perturbations considered.
 The wavefunction is already stable.

 **********************************************************************

            Population analysis using the SCF Density.

 **********************************************************************

 Alpha  occ. eigenvalues --  -20.55263 -20.50813 -15.65505 -15.63485 -15.62640
 Alpha  occ. eigenvalues --  -15.57216 -11.42071 -11.37406  -1.43657  -1.38812
 Alpha  occ. eigenvalues --   -1.33167  -1.24208  -1.20534  -1.12571  -0.88170
 Alpha  occ. eigenvalues --   -0.82630  -0.78999  -0.75911  -0.74451  -0.69287
 Alpha  occ. eigenvalues --   -0.67095  -0.63591  -0.60661  -0.60474  -0.58173
 Alpha  occ. eigenvalues --   -0.48453  -0.47051  -0.44861  -0.42436  -0.42095
 Alpha  occ. eigenvalues --   -0.40123
 Alpha virt. eigenvalues --    0.01265   0.03588   0.04360   0.05008   0.06579
 Alpha virt. eigenvalues --    0.07462   0.09716   0.10889   0.11604   0.12305
 Alpha virt. eigenvalues --    0.13625   0.14634   0.15079   0.15932   0.16171
 Alpha virt. eigenvalues --    0.16796   0.17691   0.18547   0.19008   0.19553
 Alpha virt. eigenvalues --    0.20241   0.20763   0.21882   0.22289   0.23173
 Alpha virt. eigenvalues --    0.25112   0.26446   0.27657   0.28591   0.29265
 Alpha virt. eigenvalues --    0.31407   0.31652   0.33076   0.33683   0.34820
 Alpha virt. eigenvalues --    0.35229   0.35543   0.36210   0.37191   0.37975
 Alpha virt. eigenvalues --    0.38731   0.39389   0.39949   0.41141   0.42862
 Alpha virt. eigenvalues --    0.43466   0.45036   0.45411   0.46867   0.47379
 Alpha virt. eigenvalues --    0.48086   0.49369   0.49766   0.51470   0.52370
 Alpha virt. eigenvalues --    0.53783   0.54079   0.55554   0.56941   0.59066
 Alpha virt. eigenvalues --    0.59253   0.60482   0.62508   0.62571   0.63796
 Alpha virt. eigenvalues --    0.64689   0.65441   0.68793   0.69069   0.69498
 Alpha virt. eigenvalues --    0.70215   0.70943   0.73019   0.73762   0.75157
 Alpha virt. eigenvalues --    0.77515   0.78772   0.80343   0.81708   0.83978
 Alpha virt. eigenvalues --    0.84522   0.84625   0.86991   0.87515   0.89267
 Alpha virt. eigenvalues --    0.90709   0.92794   0.93497   0.94151   0.97593
 Alpha virt. eigenvalues --    0.98217   0.99383   1.00355   1.03941   1.05147
 Alpha virt. eigenvalues --    1.05502   1.06249   1.08263   1.08921   1.09361
 Alpha virt. eigenvalues --    1.12308   1.13235   1.18722   1.20202   1.22540
 Alpha virt. eigenvalues --    1.24232   1.25700   1.28307   1.30609   1.32679
 Alpha virt. eigenvalues --    1.34444   1.37426   1.39034   1.40744   1.42565
 Alpha virt. eigenvalues --    1.44477   1.47571   1.49032   1.49489   1.55421
 Alpha virt. eigenvalues --    1.56474   1.60471   1.61888   1.63291   1.63928
 Alpha virt. eigenvalues --    1.67664   1.68900   1.71101   1.76210   1.78647
 Alpha virt. eigenvalues --    1.86028   1.87339   1.88822   1.89575   1.91862
 Alpha virt. eigenvalues --    1.93111   1.97371   1.99235   2.02581   2.03207
 Alpha virt. eigenvalues --    2.06401   2.10390   2.13855   2.14388   2.15923
 Alpha virt. eigenvalues --    2.19858   2.21909   2.24833   2.26189   2.27176
 Alpha virt. eigenvalues --    2.27596   2.32590   2.34804   2.35668   2.37032
 Alpha virt. eigenvalues --    2.39179   2.40969   2.42828   2.43411   2.45150
 Alpha virt. eigenvalues --    2.49822   2.50541   2.53142   2.53486   2.57824
 Alpha virt. eigenvalues --    2.59101   2.63262   2.66307   2.68270   2.70799
 Alpha virt. eigenvalues --    2.72261   2.73255   2.77084   2.80706   2.84993
 Alpha virt. eigenvalues --    2.85968   2.86888   2.89450   2.93803   2.98266
 Alpha virt. eigenvalues --    2.99975   3.05449   3.09186   3.10761   3.17765
 Alpha virt. eigenvalues --    3.20257   3.24298   3.30516   3.32557   3.46572
 Alpha virt. eigenvalues --    3.52825   3.54041   3.61455   3.63567   3.70780
 Alpha virt. eigenvalues --    3.75241   3.80373   3.82957   3.84745   3.87179
 Alpha virt. eigenvalues --    3.93663   3.96419   4.00175   4.05993   4.14789
 Alpha virt. eigenvalues --    4.21010   4.26253
          Condensed to atoms (all electrons):
 Mulliken charges:
               1
     1  C    1.346602
     2  C    1.235635
     3  H    0.030597
     4  H    0.003350
     5  H   -0.094946
     6  H   -0.014638
     7  H    0.046718
     8  H   -0.044743
     9  N   -0.340233
    10  N   -0.228017
    11  N   -0.244002
    12  N   -0.230093
    13  O   -0.703346
    14  O   -0.762886
 Sum of Mulliken charges =  -0.00000
 Mulliken charges with hydrogens summed into heavy atoms:
               1
     1  C    1.346602
     2  C    1.235635
     9  N   -0.306287
    10  N   -0.322963
    11  N   -0.258639
    12  N   -0.228117
    13  O   -0.703346
    14  O   -0.762886
 Electronic spatial extent (au):  <R**2>=            959.0955
 Charge=             -0.0000 electrons
 Dipole moment (field-independent basis, Debye):
    X=              6.3050    Y=             -5.1202    Z=              0.2328  Tot=              8.1255
 Unable to Open any file for archive entry.
 1\1\GINC-SE221\Stability\RHF\Aug-CC-pVDZ\C2H6N4O2\OHZDE\08-Apr-2025\0\
 \#t hf aug-cc-pvdz symm=none int=(grid=ultrafine) guess=(read,tcheck) 
 stable=(opt,rrhf)\\title\\0,1\C,0,1.41621,0.239234,-0.145929\C,0,-1.51
 114,-0.046466,-0.00454057\H,0,3.37466,0.665533,0.32903\H,0,3.13733,-0.
 888939,0.0534232\H,0,1.08754,-1.73402,-0.485284\H,0,-0.807817,-0.46840
 8,-1.78761\H,0,-0.524456,-0.842402,1.50065\H,0,-1.99232,0.0325911,1.98
 588\N,0,2.68211,-0.0564235,0.424506\N,0,0.612172,-0.872679,-0.383305\N
 ,0,-0.664387,-0.715153,-0.81148\N,0,-1.34362,-0.313922,1.30215\O,0,0.8
 90504,1.36796,-0.187521\O,0,-2.47915,0.605326,-0.364529\\Version=ES64L
 -G16RevC.01\HF=-446.8258347\RMSD=6.748e-09\Dipole=2.4805735,-2.0144541
 ,0.0915916\Quadrupole=0.6815223,-3.34638,2.6648577,-0.7522442,-4.78778
 53,1.9004417\PG=Unknown\\@
 The archive entry for this job was punched.


 ... IT IS NO ONE DREAME THAT
     CAN PLEASE THESE ALL ...

                -- BEN JONSON
 Job cpu time:       0 days  0 hours  9 minutes 27.5 seconds.
 Elapsed time:       0 days  0 hours  0 minutes 41.0 seconds.
 File lengths (MBytes):  RWF=    287 Int=      0 D2E=      0 Chk=      8 Scr=      1
 Normal termination of Gaussian 16 at Tue Apr  8 21:46:22 2025.
 Initial command:
 /arc/software/Gaussian/g16.c01/l1.exe "/tmp/slurm/4838974/Gau-3765717.inp" -scrdir="/tmp/slurm/4838974/"
 Entering Link 1 = /arc/software/Gaussian/g16.c01/l1.exe PID=   3766314.
  
 Copyright (c) 1988-2019, Gaussian, Inc.  All Rights Reserved.
  
 This is part of the Gaussian(R) 16 program.  It is based on
 the Gaussian(R) 09 system (copyright 2009, Gaussian, Inc.),
 the Gaussian(R) 03 system (copyright 2003, Gaussian, Inc.),
 the Gaussian(R) 98 system (copyright 1998, Gaussian, Inc.),
 the Gaussian(R) 94 system (copyright 1995, Gaussian, Inc.),
 the Gaussian 92(TM) system (copyright 1992, Gaussian, Inc.),
 the Gaussian 90(TM) system (copyright 1990, Gaussian, Inc.),
 the Gaussian 88(TM) system (copyright 1988, Gaussian, Inc.),
 the Gaussian 86(TM) system (copyright 1986, Carnegie Mellon
 University), and the Gaussian 82(TM) system (copyright 1983,
 Carnegie Mellon University). Gaussian is a federally registered
 trademark of Gaussian, Inc.
  
 This software contains proprietary and confidential information,
 including trade secrets, belonging to Gaussian, Inc.
  
 This software is provided under written license and may be
 used, copied, transmitted, or stored only in accord with that
 written license.
  
 The following legend is applicable only to US Government
 contracts under FAR:
  
                    RESTRICTED RIGHTS LEGEND
  
 Use, reproduction and disclosure by the US Government is
 subject to restrictions as set forth in subparagraphs (a)
 and (c) of the Commercial Computer Software - Restricted
 Rights clause in FAR 52.227-19.
  
 Gaussian, Inc.
 340 Quinnipiac St., Bldg. 40, Wallingford CT 06492
  
  
 ---------------------------------------------------------------
 Warning -- This program may not be used in any manner that
 competes with the business of Gaussian, Inc. or will provide
 assistance to any competitor of Gaussian, Inc.  The licensee
 of this program is prohibited from giving any competitor of
 Gaussian, Inc. access to this program.  By using this program,
 the user acknowledges that Gaussian, Inc. is engaged in the
 business of creating and licensing software in the field of
 computational chemistry and represents and warrants to the
 licensee that it is not a competitor of Gaussian, Inc. and that
 it will not use this program in any manner prohibited above.
 ---------------------------------------------------------------
  

 Cite this work as:
 Gaussian 16, Revision C.01,
 M. J. Frisch, G. W. Trucks, H. B. Schlegel, G. E. Scuseria, 
 M. A. Robb, J. R. Cheeseman, G. Scalmani, V. Barone, 
 G. A. Petersson, H. Nakatsuji, X. Li, M. Caricato, A. V. Marenich, 
 J. Bloino, B. G. Janesko, R. Gomperts, B. Mennucci, H. P. Hratchian, 
 J. V. Ortiz, A. F. Izmaylov, J. L. Sonnenberg, D. Williams-Young, 
 F. Ding, F. Lipparini, F. Egidi, J. Goings, B. Peng, A. Petrone, 
 T. Henderson, D. Ranasinghe, V. G. Zakrzewski, J. Gao, N. Rega, 
 G. Zheng, W. Liang, M. Hada, M. Ehara, K. Toyota, R. Fukuda, 
 J. Hasegawa, M. Ishida, T. Nakajima, Y. Honda, O. Kitao, H. Nakai, 
 T. Vreven, K. Throssell, J. A. Montgomery, Jr., J. E. Peralta, 
 F. Ogliaro, M. J. Bearpark, J. J. Heyd, E. N. Brothers, K. N. Kudin, 
 V. N. Staroverov, T. A. Keith, R. Kobayashi, J. Normand, 
 K. Raghavachari, A. P. Rendell, J. C. Burant, S. S. Iyengar, 
 J. Tomasi, M. Cossi, J. M. Millam, M. Klene, C. Adamo, R. Cammi, 
 J. W. Ochterski, R. L. Martin, K. Morokuma, O. Farkas, 
 J. B. Foresman, and D. J. Fox, Gaussian, Inc., Wallingford CT, 2019.
 
 ******************************************
 Gaussian 16:  ES64L-G16RevC.01  3-Jul-2019
                 8-Apr-2025 
 ******************************************
 %nprocs=16
 Will use up to   16 processors via shared memory.
 %mem=30GB
 %chk=ANI1ccx_555_conf4_mol1.chk
 ----------------------------------------------------------------------
 #t hf aug-cc-pvdz iop(5/13=1,5/36=2,99/5=2) pseudo=read geom=check gue
 ss=(read,tcheck) scf=(maxcycle=1)
 ----------------------------------------------------------------------
 -----
 title
 -----
 Structure from the checkpoint file:  "ANI1ccx_555_conf4_mol1.chk"
 Charge =  0 Multiplicity = 1
 Z-Matrix found in chk file.
 C,0,1.41621,0.239234,-0.145929
 C,0,-1.51114,-0.046466,-0.00454057
 H,0,3.37466,0.665533,0.32903
 H,0,3.13733,-0.888939,0.0534232
 H,0,1.08754,-1.73402,-0.485284
 H,0,-0.807817,-0.468408,-1.78761
 H,0,-0.524456,-0.842402,1.50065
 H,0,-1.99232,0.0325911,1.98588
 N,0,2.68211,-0.0564235,0.424506
 N,0,0.612172,-0.872679,-0.383305
 N,0,-0.664387,-0.715153,-0.81148
 N,0,-1.34362,-0.313922,1.30215
 O,0,0.890504,1.36796,-0.187521
 O,0,-2.47915,0.605326,-0.364529
 Recover connectivity data from disk.
                    Distance matrix (angstroms):
                    1          2          3          4          5
     1  C    0.000000
     2  C    2.944655   0.000000
     3  H    2.059816   4.948662   0.000000
     4  H    2.067552   4.724552   1.596455   0.000000
     5  H    2.029019   3.135616   3.413485   2.281667   0.000000
     6  H    2.853449   1.962660   4.822769   4.373835   2.624920
     7  H    2.765383   1.967907   4.341620   3.937678   2.708772
     8  H    4.025592   2.049282   5.652454   5.558499   4.325865
     9  N    1.419617   4.215154   1.004969   1.018828   2.486906
    10  N    1.392543   2.309663   3.241120   2.562698   0.989082
    11  N    2.383841   1.347325   4.418253   3.902731   2.052740
    12  N    3.165371   1.344260   4.916143   4.687097   3.334987
    13  O    1.245841   2.793202   2.632729   3.193724   3.122462
    14  O    3.918627   1.221257   5.895061   5.826865   4.267130
                    6          7          8          9         10
     6  H    0.000000
     7  H    3.321569   0.000000
     8  H    3.986637   1.776425   0.000000
     9  N    4.152443   3.472451   4.929108   0.000000
    10  N    2.037615   2.200483   3.635372   2.367166   0.000000
    11  N    1.016998   2.319853   3.185553   3.627758   1.355637
    12  N    3.139676   0.994848   1.004176   4.128325   2.641608
    13  O    2.969314   3.120534   3.849358   2.369240   2.266333
    14  O    2.443649   3.065230   2.467681   5.262993   3.426532
                   11         12         13         14
    11  N    0.000000
    12  N    2.256053   0.000000
    13  O    2.673270   3.168463   0.000000
    14  O    2.288404   2.216363   3.459409   0.000000
 Framework group  C1[X(C2H6N4O2)]
 Deg. of freedom    36
                         Standard orientation:                         
 ---------------------------------------------------------------------
 Center     Atomic      Atomic             Coordinates (Angstroms)
 Number     Number       Type             X           Y           Z
 ---------------------------------------------------------------------
      1          6           0        1.416208    0.239234   -0.145928
      2          6           0       -1.511142   -0.046466   -0.004540
      3          1           0        3.374658    0.665532    0.329031
      4          1           0        3.137328   -0.888940    0.053424
      5          1           0        1.087538   -1.734020   -0.485283
      6          1           0       -0.807819   -0.468408   -1.787609
      7          1           0       -0.524458   -0.842402    1.500651
      8          1           0       -1.992322    0.032591    1.985881
      9          7           0        2.682108   -0.056424    0.424507
     10          7           0        0.612170   -0.872679   -0.383304
     11          7           0       -0.664389   -0.715153   -0.811479
     12          7           0       -1.343622   -0.313922    1.302151
     13          8           0        0.890502    1.367960   -0.187520
     14          8           0       -2.479152    0.605326   -0.364528
 ---------------------------------------------------------------------
 Rotational constants (GHZ):           4.5477214           1.3386244           1.3018011
 ======================================================================================================
                                       Pseudopotential Parameters
 ======================================================================================================
  Center     Atomic      Valence      Angular      Power
  Number     Number     Electrons     Momentum     of R      Exponent        Coefficient   SO-Coeffient
 ======================================================================================================
    1          6            6
                                      G and up 
                                                     0        0.0000010       -0.00011185    0.00000000
                                                     2        0.1200000       -0.02301220    0.00000000
                                                     2        0.1400000        0.13317600    0.00000000
                                                     2        0.1600000       -0.19690668    0.00000000
                                                     2        0.2200000        0.23163694    0.00000000
                                                     2        0.3000000       -0.36920489    0.00000000
                                                     2        0.4000000        0.36389709    0.00000000
                                                     2        0.7000000       -0.38862160    0.00000000
                                                     2        1.3000000        0.80803421    0.00000000
                                      S - G
                                                     0        0.0000010        0.00312304    0.00000000
                                                     2        0.1200000       -0.00632892    0.00000000
                                                     2        0.2200000       -0.03780897    0.00000000
                                                     2        0.4000000        0.26269560    0.00000000
                                                     2        0.9000000       -0.28209514    0.00000000
                                                     2        1.5000000       -0.72686737    0.00000000
                                      P - G
                                                     0        0.0000010       -0.01465594    0.00000000
                                                     2        0.1200000        0.07908409    0.00000000
                                                     2        0.1800000       -0.30615861    0.00000000
                                                     2        0.2600000        0.41506950    0.00000000
                                                     2        0.5000000       -0.36252345    0.00000000
                                                     2        0.9000000        0.15124193    0.00000000
                                                     2        3.0000000       -0.80425677    0.00000000
                                      D - G
                                                     0        0.0000010        0.01149631    0.00000000
                                                     2        0.1200000       -0.04713561    0.00000000
                                                     2        0.1600000        0.10865096    0.00000000
                                                     2        0.2800000       -0.15816701    0.00000000
                                                     2        0.7000000        0.65478804    0.00000000
                                                     2        1.3000000       -1.73816624    0.00000000
                                      F - G
                                                     0        0.0000010        0.00481868    0.00000000
                                                     2        0.1200000       -0.04746842    0.00000000
                                                     2        0.1600000        0.09327889    0.00000000
                                                     2        0.4000000       -0.19693326    0.00000000
                                                     2        0.9000000        0.34938253    0.00000000
    2          6            6
                                      G and up 
                                                     0        0.0000010       -0.00011185    0.00000000
                                                     2        0.1200000       -0.02301220    0.00000000
                                                     2        0.1400000        0.13317600    0.00000000
                                                     2        0.1600000       -0.19690668    0.00000000
                                                     2        0.2200000        0.23163694    0.00000000
                                                     2        0.3000000       -0.36920489    0.00000000
                                                     2        0.4000000        0.36389709    0.00000000
                                                     2        0.7000000       -0.38862160    0.00000000
                                                     2        1.3000000        0.80803421    0.00000000
                                      S - G
                                                     0        0.0000010        0.00312304    0.00000000
                                                     2        0.1200000       -0.00632892    0.00000000
                                                     2        0.2200000       -0.03780897    0.00000000
                                                     2        0.4000000        0.26269560    0.00000000
                                                     2        0.9000000       -0.28209514    0.00000000
                                                     2        1.5000000       -0.72686737    0.00000000
                                      P - G
                                                     0        0.0000010       -0.01465594    0.00000000
                                                     2        0.1200000        0.07908409    0.00000000
                                                     2        0.1800000       -0.30615861    0.00000000
                                                     2        0.2600000        0.41506950    0.00000000
                                                     2        0.5000000       -0.36252345    0.00000000
                                                     2        0.9000000        0.15124193    0.00000000
                                                     2        3.0000000       -0.80425677    0.00000000
                                      D - G
                                                     0        0.0000010        0.01149631    0.00000000
                                                     2        0.1200000       -0.04713561    0.00000000
                                                     2        0.1600000        0.10865096    0.00000000
                                                     2        0.2800000       -0.15816701    0.00000000
                                                     2        0.7000000        0.65478804    0.00000000
                                                     2        1.3000000       -1.73816624    0.00000000
                                      F - G
                                                     0        0.0000010        0.00481868    0.00000000
                                                     2        0.1200000       -0.04746842    0.00000000
                                                     2        0.1600000        0.09327889    0.00000000
                                                     2        0.4000000       -0.19693326    0.00000000
                                                     2        0.9000000        0.34938253    0.00000000
    3          1            1
                                      F and up 
                                                     0        0.0000010       -0.00000699    0.00000000
                                                     2        0.1200000        0.00123686    0.00000000
                                                     2        0.1800000       -0.00752022    0.00000000
                                                     2        0.2600000        0.02503380    0.00000000
                                                     2        0.4000000       -0.08702670    0.00000000
                                                     2        0.6000000        0.30134159    0.00000000
                                                     2        0.8000000       -0.50204959    0.00000000
                                                     2        1.2000000        0.52208372    0.00000000
                                      S - F
                                                     0        0.0000010       -0.01618346    0.00000000
                                                     2        0.1200000       -0.07880581    0.00000000
                                                     2        0.1600000        0.32040539    0.00000000
                                                     2        0.2400000       -0.47500956    0.00000000
                                                     2        0.5000000        0.54013668    0.00000000
                                                     2        1.5000000       -1.40434292    0.00000000
                                                     2        3.0000000        1.46283806    0.00000000
                                      P - F
                                                     0        0.0000010        0.00612970    0.00000000
                                                     2        0.1200000        0.02254406    0.00000000
                                                     2        0.1800000       -0.13874529    0.00000000
                                                     2        0.3000000        0.38299049    0.00000000
                                                     2        0.5000000       -0.57923512    0.00000000
                                                     2        1.0000000        0.63021625    0.00000000
                                                     2        2.0000000       -0.79201034    0.00000000
                                      D - F
                                                     0        0.0000010       -0.00296226    0.00000000
                                                     2        0.1200000       -0.00547344    0.00000000
                                                     2        0.1400000        0.01837884    0.00000000
                                                     2        0.2400000       -0.05565704    0.00000000
                                                     2        0.4000000        0.15376597    0.00000000
                                                     2        0.8000000       -0.32464795    0.00000000
    4          1            1
                                      F and up 
                                                     0        0.0000010       -0.00000699    0.00000000
                                                     2        0.1200000        0.00123686    0.00000000
                                                     2        0.1800000       -0.00752022    0.00000000
                                                     2        0.2600000        0.02503380    0.00000000
                                                     2        0.4000000       -0.08702670    0.00000000
                                                     2        0.6000000        0.30134159    0.00000000
                                                     2        0.8000000       -0.50204959    0.00000000
                                                     2        1.2000000        0.52208372    0.00000000
                                      S - F
                                                     0        0.0000010       -0.01618346    0.00000000
                                                     2        0.1200000       -0.07880581    0.00000000
                                                     2        0.1600000        0.32040539    0.00000000
                                                     2        0.2400000       -0.47500956    0.00000000
                                                     2        0.5000000        0.54013668    0.00000000
                                                     2        1.5000000       -1.40434292    0.00000000
                                                     2        3.0000000        1.46283806    0.00000000
                                      P - F
                                                     0        0.0000010        0.00612970    0.00000000
                                                     2        0.1200000        0.02254406    0.00000000
                                                     2        0.1800000       -0.13874529    0.00000000
                                                     2        0.3000000        0.38299049    0.00000000
                                                     2        0.5000000       -0.57923512    0.00000000
                                                     2        1.0000000        0.63021625    0.00000000
                                                     2        2.0000000       -0.79201034    0.00000000
                                      D - F
                                                     0        0.0000010       -0.00296226    0.00000000
                                                     2        0.1200000       -0.00547344    0.00000000
                                                     2        0.1400000        0.01837884    0.00000000
                                                     2        0.2400000       -0.05565704    0.00000000
                                                     2        0.4000000        0.15376597    0.00000000
                                                     2        0.8000000       -0.32464795    0.00000000
    5          1            1
                                      F and up 
                                                     0        0.0000010       -0.00000699    0.00000000
                                                     2        0.1200000        0.00123686    0.00000000
                                                     2        0.1800000       -0.00752022    0.00000000
                                                     2        0.2600000        0.02503380    0.00000000
                                                     2        0.4000000       -0.08702670    0.00000000
                                                     2        0.6000000        0.30134159    0.00000000
                                                     2        0.8000000       -0.50204959    0.00000000
                                                     2        1.2000000        0.52208372    0.00000000
                                      S - F
                                                     0        0.0000010       -0.01618346    0.00000000
                                                     2        0.1200000       -0.07880581    0.00000000
                                                     2        0.1600000        0.32040539    0.00000000
                                                     2        0.2400000       -0.47500956    0.00000000
                                                     2        0.5000000        0.54013668    0.00000000
                                                     2        1.5000000       -1.40434292    0.00000000
                                                     2        3.0000000        1.46283806    0.00000000
                                      P - F
                                                     0        0.0000010        0.00612970    0.00000000
                                                     2        0.1200000        0.02254406    0.00000000
                                                     2        0.1800000       -0.13874529    0.00000000
                                                     2        0.3000000        0.38299049    0.00000000
                                                     2        0.5000000       -0.57923512    0.00000000
                                                     2        1.0000000        0.63021625    0.00000000
                                                     2        2.0000000       -0.79201034    0.00000000
                                      D - F
                                                     0        0.0000010       -0.00296226    0.00000000
                                                     2        0.1200000       -0.00547344    0.00000000
                                                     2        0.1400000        0.01837884    0.00000000
                                                     2        0.2400000       -0.05565704    0.00000000
                                                     2        0.4000000        0.15376597    0.00000000
                                                     2        0.8000000       -0.32464795    0.00000000
    6          1            1
                                      F and up 
                                                     0        0.0000010       -0.00000699    0.00000000
                                                     2        0.1200000        0.00123686    0.00000000
                                                     2        0.1800000       -0.00752022    0.00000000
                                                     2        0.2600000        0.02503380    0.00000000
                                                     2        0.4000000       -0.08702670    0.00000000
                                                     2        0.6000000        0.30134159    0.00000000
                                                     2        0.8000000       -0.50204959    0.00000000
                                                     2        1.2000000        0.52208372    0.00000000
                                      S - F
                                                     0        0.0000010       -0.01618346    0.00000000
                                                     2        0.1200000       -0.07880581    0.00000000
                                                     2        0.1600000        0.32040539    0.00000000
                                                     2        0.2400000       -0.47500956    0.00000000
                                                     2        0.5000000        0.54013668    0.00000000
                                                     2        1.5000000       -1.40434292    0.00000000
                                                     2        3.0000000        1.46283806    0.00000000
                                      P - F
                                                     0        0.0000010        0.00612970    0.00000000
                                                     2        0.1200000        0.02254406    0.00000000
                                                     2        0.1800000       -0.13874529    0.00000000
                                                     2        0.3000000        0.38299049    0.00000000
                                                     2        0.5000000       -0.57923512    0.00000000
                                                     2        1.0000000        0.63021625    0.00000000
                                                     2        2.0000000       -0.79201034    0.00000000
                                      D - F
                                                     0        0.0000010       -0.00296226    0.00000000
                                                     2        0.1200000       -0.00547344    0.00000000
                                                     2        0.1400000        0.01837884    0.00000000
                                                     2        0.2400000       -0.05565704    0.00000000
                                                     2        0.4000000        0.15376597    0.00000000
                                                     2        0.8000000       -0.32464795    0.00000000
    7          1            1
                                      F and up 
                                                     0        0.0000010       -0.00000699    0.00000000
                                                     2        0.1200000        0.00123686    0.00000000
                                                     2        0.1800000       -0.00752022    0.00000000
                                                     2        0.2600000        0.02503380    0.00000000
                                                     2        0.4000000       -0.08702670    0.00000000
                                                     2        0.6000000        0.30134159    0.00000000
                                                     2        0.8000000       -0.50204959    0.00000000
                                                     2        1.2000000        0.52208372    0.00000000
                                      S - F
                                                     0        0.0000010       -0.01618346    0.00000000
                                                     2        0.1200000       -0.07880581    0.00000000
                                                     2        0.1600000        0.32040539    0.00000000
                                                     2        0.2400000       -0.47500956    0.00000000
                                                     2        0.5000000        0.54013668    0.00000000
                                                     2        1.5000000       -1.40434292    0.00000000
                                                     2        3.0000000        1.46283806    0.00000000
                                      P - F
                                                     0        0.0000010        0.00612970    0.00000000
                                                     2        0.1200000        0.02254406    0.00000000
                                                     2        0.1800000       -0.13874529    0.00000000
                                                     2        0.3000000        0.38299049    0.00000000
                                                     2        0.5000000       -0.57923512    0.00000000
                                                     2        1.0000000        0.63021625    0.00000000
                                                     2        2.0000000       -0.79201034    0.00000000
                                      D - F
                                                     0        0.0000010       -0.00296226    0.00000000
                                                     2        0.1200000       -0.00547344    0.00000000
                                                     2        0.1400000        0.01837884    0.00000000
                                                     2        0.2400000       -0.05565704    0.00000000
                                                     2        0.4000000        0.15376597    0.00000000
                                                     2        0.8000000       -0.32464795    0.00000000
    8          1            1
                                      F and up 
                                                     0        0.0000010       -0.00000699    0.00000000
                                                     2        0.1200000        0.00123686    0.00000000
                                                     2        0.1800000       -0.00752022    0.00000000
                                                     2        0.2600000        0.02503380    0.00000000
                                                     2        0.4000000       -0.08702670    0.00000000
                                                     2        0.6000000        0.30134159    0.00000000
                                                     2        0.8000000       -0.50204959    0.00000000
                                                     2        1.2000000        0.52208372    0.00000000
                                      S - F
                                                     0        0.0000010       -0.01618346    0.00000000
                                                     2        0.1200000       -0.07880581    0.00000000
                                                     2        0.1600000        0.32040539    0.00000000
                                                     2        0.2400000       -0.47500956    0.00000000
                                                     2        0.5000000        0.54013668    0.00000000
                                                     2        1.5000000       -1.40434292    0.00000000
                                                     2        3.0000000        1.46283806    0.00000000
                                      P - F
                                                     0        0.0000010        0.00612970    0.00000000
                                                     2        0.1200000        0.02254406    0.00000000
                                                     2        0.1800000       -0.13874529    0.00000000
                                                     2        0.3000000        0.38299049    0.00000000
                                                     2        0.5000000       -0.57923512    0.00000000
                                                     2        1.0000000        0.63021625    0.00000000
                                                     2        2.0000000       -0.79201034    0.00000000
                                      D - F
                                                     0        0.0000010       -0.00296226    0.00000000
                                                     2        0.1200000       -0.00547344    0.00000000
                                                     2        0.1400000        0.01837884    0.00000000
                                                     2        0.2400000       -0.05565704    0.00000000
                                                     2        0.4000000        0.15376597    0.00000000
                                                     2        0.8000000       -0.32464795    0.00000000
    9          7            7
                                      G and up 
                                                     0        0.0000010       -0.00000022    0.00000000
                                                     2        0.1200000       -0.00992020    0.00000000
                                                     2        0.1400000        0.02578711    0.00000000
                                                     2        0.2200000       -0.10543517    0.00000000
                                                     2        0.3000000        0.23013665    0.00000000
                                                     2        0.5000000       -0.60834094    0.00000000
                                                     2        0.8000000        1.81436815    0.00000000
                                                     2        1.2000000       -3.87539738    0.00000000
                                                     2        2.0000000        2.94656640    0.00000000
                                      S - G
                                                     0        0.0000010       -0.00223566    0.00000000
                                                     2        0.1200000        0.45247937    0.00000000
                                                     2        0.1600000       -0.78978304    0.00000000
                                                     2        0.4000000        0.84956595    0.00000000
                                                     2        3.0000000       -0.75910174    0.00000000
                                      P - G
                                                     0        0.0000010       -0.25576737    0.00000000
                                                     2        0.1200000       -0.19992277    0.00000000
                                                     2        0.1600000        0.88518512    0.00000000
                                                     2        0.2400000       -1.33293917    0.00000000
                                                     2        0.4000000        1.33451776    0.00000000
                                                     2        0.9000000       -0.55709210    0.00000000
                                                     2        2.5000000        2.48506502    0.00000000
                                      D - G
                                                     0        0.0000010        0.26143746    0.00000000
                                                     2        0.1200000       -0.04492212    0.00000000
                                                     2        0.1400000       -0.18274021    0.00000000
                                                     2        0.2400000        0.53490004    0.00000000
                                                     2        0.4000000       -0.74136473    0.00000000
                                                     2        1.3000000        1.71401021    0.00000000
                                      F - G
                                                     0        0.0000010       -0.07169988    0.00000000
                                                     2        0.1200000        0.04480029    0.00000000
                                                     2        0.2600000       -0.08050831    0.00000000
                                                     2        0.5000000        0.31290809    0.00000000
                                                     2        1.0000000       -0.45253098    0.00000000
   10          7            7
                                      G and up 
                                                     0        0.0000010       -0.00000022    0.00000000
                                                     2        0.1200000       -0.00992020    0.00000000
                                                     2        0.1400000        0.02578711    0.00000000
                                                     2        0.2200000       -0.10543517    0.00000000
                                                     2        0.3000000        0.23013665    0.00000000
                                                     2        0.5000000       -0.60834094    0.00000000
                                                     2        0.8000000        1.81436815    0.00000000
                                                     2        1.2000000       -3.87539738    0.00000000
                                                     2        2.0000000        2.94656640    0.00000000
                                      S - G
                                                     0        0.0000010       -0.00223566    0.00000000
                                                     2        0.1200000        0.45247937    0.00000000
                                                     2        0.1600000       -0.78978304    0.00000000
                                                     2        0.4000000        0.84956595    0.00000000
                                                     2        3.0000000       -0.75910174    0.00000000
                                      P - G
                                                     0        0.0000010       -0.25576737    0.00000000
                                                     2        0.1200000       -0.19992277    0.00000000
                                                     2        0.1600000        0.88518512    0.00000000
                                                     2        0.2400000       -1.33293917    0.00000000
                                                     2        0.4000000        1.33451776    0.00000000
                                                     2        0.9000000       -0.55709210    0.00000000
                                                     2        2.5000000        2.48506502    0.00000000
                                      D - G
                                                     0        0.0000010        0.26143746    0.00000000
                                                     2        0.1200000       -0.04492212    0.00000000
                                                     2        0.1400000       -0.18274021    0.00000000
                                                     2        0.2400000        0.53490004    0.00000000
                                                     2        0.4000000       -0.74136473    0.00000000
                                                     2        1.3000000        1.71401021    0.00000000
                                      F - G
                                                     0        0.0000010       -0.07169988    0.00000000
                                                     2        0.1200000        0.04480029    0.00000000
                                                     2        0.2600000       -0.08050831    0.00000000
                                                     2        0.5000000        0.31290809    0.00000000
                                                     2        1.0000000       -0.45253098    0.00000000
   11          7            7
                                      G and up 
                                                     0        0.0000010       -0.00000022    0.00000000
                                                     2        0.1200000       -0.00992020    0.00000000
                                                     2        0.1400000        0.02578711    0.00000000
                                                     2        0.2200000       -0.10543517    0.00000000
                                                     2        0.3000000        0.23013665    0.00000000
                                                     2        0.5000000       -0.60834094    0.00000000
                                                     2        0.8000000        1.81436815    0.00000000
                                                     2        1.2000000       -3.87539738    0.00000000
                                                     2        2.0000000        2.94656640    0.00000000
                                      S - G
                                                     0        0.0000010       -0.00223566    0.00000000
                                                     2        0.1200000        0.45247937    0.00000000
                                                     2        0.1600000       -0.78978304    0.00000000
                                                     2        0.4000000        0.84956595    0.00000000
                                                     2        3.0000000       -0.75910174    0.00000000
                                      P - G
                                                     0        0.0000010       -0.25576737    0.00000000
                                                     2        0.1200000       -0.19992277    0.00000000
                                                     2        0.1600000        0.88518512    0.00000000
                                                     2        0.2400000       -1.33293917    0.00000000
                                                     2        0.4000000        1.33451776    0.00000000
                                                     2        0.9000000       -0.55709210    0.00000000
                                                     2        2.5000000        2.48506502    0.00000000
                                      D - G
                                                     0        0.0000010        0.26143746    0.00000000
                                                     2        0.1200000       -0.04492212    0.00000000
                                                     2        0.1400000       -0.18274021    0.00000000
                                                     2        0.2400000        0.53490004    0.00000000
                                                     2        0.4000000       -0.74136473    0.00000000
                                                     2        1.3000000        1.71401021    0.00000000
                                      F - G
                                                     0        0.0000010       -0.07169988    0.00000000
                                                     2        0.1200000        0.04480029    0.00000000
                                                     2        0.2600000       -0.08050831    0.00000000
                                                     2        0.5000000        0.31290809    0.00000000
                                                     2        1.0000000       -0.45253098    0.00000000
   12          7            7
                                      G and up 
                                                     0        0.0000010       -0.00000022    0.00000000
                                                     2        0.1200000       -0.00992020    0.00000000
                                                     2        0.1400000        0.02578711    0.00000000
                                                     2        0.2200000       -0.10543517    0.00000000
                                                     2        0.3000000        0.23013665    0.00000000
                                                     2        0.5000000       -0.60834094    0.00000000
                                                     2        0.8000000        1.81436815    0.00000000
                                                     2        1.2000000       -3.87539738    0.00000000
                                                     2        2.0000000        2.94656640    0.00000000
                                      S - G
                                                     0        0.0000010       -0.00223566    0.00000000
                                                     2        0.1200000        0.45247937    0.00000000
                                                     2        0.1600000       -0.78978304    0.00000000
                                                     2        0.4000000        0.84956595    0.00000000
                                                     2        3.0000000       -0.75910174    0.00000000
                                      P - G
                                                     0        0.0000010       -0.25576737    0.00000000
                                                     2        0.1200000       -0.19992277    0.00000000
                                                     2        0.1600000        0.88518512    0.00000000
                                                     2        0.2400000       -1.33293917    0.00000000
                                                     2        0.4000000        1.33451776    0.00000000
                                                     2        0.9000000       -0.55709210    0.00000000
                                                     2        2.5000000        2.48506502    0.00000000
                                      D - G
                                                     0        0.0000010        0.26143746    0.00000000
                                                     2        0.1200000       -0.04492212    0.00000000
                                                     2        0.1400000       -0.18274021    0.00000000
                                                     2        0.2400000        0.53490004    0.00000000
                                                     2        0.4000000       -0.74136473    0.00000000
                                                     2        1.3000000        1.71401021    0.00000000
                                      F - G
                                                     0        0.0000010       -0.07169988    0.00000000
                                                     2        0.1200000        0.04480029    0.00000000
                                                     2        0.2600000       -0.08050831    0.00000000
                                                     2        0.5000000        0.31290809    0.00000000
                                                     2        1.0000000       -0.45253098    0.00000000
   13          8            8
                                      G and up 
                                                     0        0.0000010        0.00001165    0.00000000
                                                     2        0.1200000       -0.01744018    0.00000000
                                                     2        0.1400000        0.05401326    0.00000000
                                                     2        0.1800000       -0.08231208    0.00000000
                                                     2        0.2600000        0.11570222    0.00000000
                                                     2        0.4000000       -0.20630360    0.00000000
                                                     2        0.7000000        0.38074319    0.00000000
                                                     2        1.2000000       -0.17045091    0.00000000
                                                     2        2.0000000       -1.45433187    0.00000000
                                      S - G
                                                     0        0.0000010       -0.00117944    0.00000000
                                                     2        0.1400000        0.04368312    0.00000000
                                                     2        0.3000000       -0.33477926    0.00000000
                                                     2        0.6000000        1.52630657    0.00000000
                                                     2        1.5000000       -2.50804716    0.00000000
                                                     2        3.0000000        2.89751681    0.00000000
                                      P - G
                                                     0        0.0000010        0.06576007    0.00000000
                                                     2        0.1200000       -0.10329304    0.00000000
                                                     2        0.2000000        0.24891756    0.00000000
                                                     2        0.4000000       -0.50800022    0.00000000
                                                     2        0.9000000        0.81480796    0.00000000
                                      D - G
                                                     0        0.0000010       -0.14101855    0.00000000
                                                     2        0.1200000        0.22105937    0.00000000
                                                     2        0.1800000       -0.45814988    0.00000000
                                                     2        0.3000000        0.46029282    0.00000000
                                      F - G
                                                     0        0.0000010        0.07483044    0.00000000
                                                     2        0.1200000       -0.09134252    0.00000000
                                                     2        0.1400000        0.04125459    0.00000000
                                                     2        0.3000000        0.37914837    0.00000000
                                                     2        0.5000000       -0.86881279    0.00000000
   14          8            8
                                      G and up 
                                                     0        0.0000010        0.00001165    0.00000000
                                                     2        0.1200000       -0.01744018    0.00000000
                                                     2        0.1400000        0.05401326    0.00000000
                                                     2        0.1800000       -0.08231208    0.00000000
                                                     2        0.2600000        0.11570222    0.00000000
                                                     2        0.4000000       -0.20630360    0.00000000
                                                     2        0.7000000        0.38074319    0.00000000
                                                     2        1.2000000       -0.17045091    0.00000000
                                                     2        2.0000000       -1.45433187    0.00000000
                                      S - G
                                                     0        0.0000010       -0.00117944    0.00000000
                                                     2        0.1400000        0.04368312    0.00000000
                                                     2        0.3000000       -0.33477926    0.00000000
                                                     2        0.6000000        1.52630657    0.00000000
                                                     2        1.5000000       -2.50804716    0.00000000
                                                     2        3.0000000        2.89751681    0.00000000
                                      P - G
                                                     0        0.0000010        0.06576007    0.00000000
                                                     2        0.1200000       -0.10329304    0.00000000
                                                     2        0.2000000        0.24891756    0.00000000
                                                     2        0.4000000       -0.50800022    0.00000000
                                                     2        0.9000000        0.81480796    0.00000000
                                      D - G
                                                     0        0.0000010       -0.14101855    0.00000000
                                                     2        0.1200000        0.22105937    0.00000000
                                                     2        0.1800000       -0.45814988    0.00000000
                                                     2        0.3000000        0.46029282    0.00000000
                                      F - G
                                                     0        0.0000010        0.07483044    0.00000000
                                                     2        0.1200000       -0.09134252    0.00000000
                                                     2        0.1400000        0.04125459    0.00000000
                                                     2        0.3000000        0.37914837    0.00000000
                                                     2        0.5000000       -0.86881279    0.00000000
 ======================================================================================================
   238 basis functions,   410 primitive gaussians,   254 cartesian basis functions
    31 alpha electrons       31 beta electrons
       nuclear repulsion energy       396.7025813958 Hartrees.
 NAtoms=   14 NActive=   14 NUniq=   14 SFac= 1.00D+00 NAtFMM=   60 NAOKFM=F Big=F
   1 Symmetry operations used in ECPInt.
 ECPInt:  NShTT=    5253 NPrTT=   26029 LenC2=    5236 LenP2D=   19473.
 LDataN:  DoStor=T MaxTD1= 6 Len=  172
 Initial guess from the checkpoint file:  "ANI1ccx_555_conf4_mol1.chk"
 B after Tr=    -0.000003   -0.000000    0.000001
         Rot=    1.000000   -0.000000    0.000000    0.000000 Ang=   0.00 deg.
 >>>>>>>>>> Convergence criterion not met.
 SCF Done:  E(RHF) =  -446.964009209     A.U. after    2 cycles
            NFock=  1  Conv=0.23D-02     -V/T= 1.9997

 **********************************************************************

            Population analysis using the SCF Density.

 **********************************************************************

 Orbital symmetries:
       Occupied  (A) (A) (A) (A) (A) (A) (A) (A) (A) (A) (A) (A)
                 (A) (A) (A) (A) (A) (A) (A) (A) (A) (A) (A) (A)
                 (A) (A) (A) (A) (A) (A) (A)
       Virtual   (A) (A) (A) (A) (A) (A) (A) (A) (A) (A) (A) (A)
                 (A) (A) (A) (A) (A) (A) (A) (A) (A) (A) (A) (A)
                 (A) (A) (A) (A) (A) (A) (A) (A) (A) (A) (A) (A)
                 (A) (A) (A) (A) (A) (A) (A) (A) (A) (A) (A) (A)
                 (A) (A) (A) (A) (A) (A) (A) (A) (A) (A) (A) (A)
                 (A) (A) (A) (A) (A) (A) (A) (A) (A) (A) (A) (A)
                 (A) (A) (A) (A) (A) (A) (A) (A) (A) (A) (A) (A)
                 (A) (A) (A) (A) (A) (A) (A) (A) (A) (A) (A) (A)
                 (A) (A) (A) (A) (A) (A) (A) (A) (A) (A) (A) (A)
                 (A) (A) (A) (A) (A) (A) (A) (A) (A) (A) (A) (A)
                 (A) (A) (A) (A) (A) (A) (A) (A) (A) (A) (A) (A)
                 (A) (A) (A) (A) (A) (A) (A) (A) (A) (A) (A) (A)
                 (A) (A) (A) (A) (A) (A) (A) (A) (A) (A) (A) (A)
                 (A) (A) (A) (A) (A) (A) (A) (A) (A) (A) (A) (A)
                 (A) (A) (A) (A) (A) (A) (A) (A) (A) (A) (A) (A)
                 (A) (A) (A) (A) (A) (A) (A) (A) (A) (A) (A) (A)
                 (A) (A) (A) (A) (A) (A) (A) (A) (A) (A) (A) (A)
                 (A) (A) (A)
 The electronic state is 1-A.
 Alpha  occ. eigenvalues --  -20.55749 -20.51319 -15.71287 -15.69287 -15.68318
 Alpha  occ. eigenvalues --  -15.62910 -11.42667 -11.38019  -1.39307  -1.34872
 Alpha  occ. eigenvalues --   -1.28979  -1.20751  -1.16901  -1.09671  -0.87609
 Alpha  occ. eigenvalues --   -0.82117  -0.78774  -0.75848  -0.74407  -0.69108
 Alpha  occ. eigenvalues --   -0.66901  -0.64404  -0.61639  -0.60913  -0.58824
 Alpha  occ. eigenvalues --   -0.48786  -0.48049  -0.45782  -0.43786  -0.42037
 Alpha  occ. eigenvalues --   -0.40488
 Alpha virt. eigenvalues --    0.01083   0.03205   0.03721   0.04809   0.06618
 Alpha virt. eigenvalues --    0.07846   0.09485   0.10892   0.11877   0.12648
 Alpha virt. eigenvalues --    0.13915   0.14651   0.15236   0.15928   0.16191
 Alpha virt. eigenvalues --    0.16828   0.17623   0.18425   0.19139   0.19414
 Alpha virt. eigenvalues --    0.20184   0.20689   0.21826   0.22160   0.23141
 Alpha virt. eigenvalues --    0.25030   0.26369   0.27677   0.28627   0.29406
 Alpha virt. eigenvalues --    0.31501   0.31599   0.33142   0.33790   0.34817
 Alpha virt. eigenvalues --    0.35184   0.35604   0.36154   0.37168   0.37982
 Alpha virt. eigenvalues --    0.38915   0.39446   0.40081   0.41388   0.43023
 Alpha virt. eigenvalues --    0.43642   0.45206   0.45549   0.46982   0.47578
 Alpha virt. eigenvalues --    0.48137   0.49483   0.49863   0.51577   0.52472
 Alpha virt. eigenvalues --    0.53881   0.54241   0.55604   0.57026   0.59149
 Alpha virt. eigenvalues --    0.59330   0.60588   0.62525   0.62642   0.63958
 Alpha virt. eigenvalues --    0.64837   0.65589   0.68544   0.68995   0.69582
 Alpha virt. eigenvalues --    0.70445   0.71079   0.73068   0.73854   0.75447
 Alpha virt. eigenvalues --    0.77595   0.78816   0.80527   0.81801   0.84118
 Alpha virt. eigenvalues --    0.84571   0.84805   0.86973   0.87428   0.89344
 Alpha virt. eigenvalues --    0.90759   0.92831   0.93563   0.94315   0.97880
 Alpha virt. eigenvalues --    0.98410   0.99653   1.00648   1.04020   1.05372
 Alpha virt. eigenvalues --    1.05853   1.06623   1.08514   1.09264   1.09536
 Alpha virt. eigenvalues --    1.12780   1.13631   1.18908   1.20552   1.22935
 Alpha virt. eigenvalues --    1.24544   1.25941   1.28667   1.30783   1.32733
 Alpha virt. eigenvalues --    1.34370   1.37510   1.39059   1.40949   1.42473
 Alpha virt. eigenvalues --    1.44799   1.47525   1.48593   1.49481   1.55864
 Alpha virt. eigenvalues --    1.56868   1.60282   1.61856   1.63380   1.63733
 Alpha virt. eigenvalues --    1.67649   1.68582   1.70345   1.75596   1.77736
 Alpha virt. eigenvalues --    1.85087   1.86115   1.88283   1.88621   1.90733
 Alpha virt. eigenvalues --    1.92531   1.96714   1.98518   2.01869   2.02494
 Alpha virt. eigenvalues --    2.05445   2.09280   2.12625   2.13841   2.15898
 Alpha virt. eigenvalues --    2.19096   2.21174   2.24684   2.27329   2.27915
 Alpha virt. eigenvalues --    2.28782   2.31801   2.35252   2.37506   2.37695
 Alpha virt. eigenvalues --    2.40111   2.42003   2.44709   2.44946   2.47751
 Alpha virt. eigenvalues --    2.50174   2.51945   2.55376   2.56629   2.60429
 Alpha virt. eigenvalues --    2.62075   2.65808   2.69387   2.72862   2.76294
 Alpha virt. eigenvalues --    2.78311   2.79475   2.81523   2.85786   2.88841
 Alpha virt. eigenvalues --    2.91265   2.97463   2.98508   3.00107   3.02524
 Alpha virt. eigenvalues --    3.05845   3.10435   3.13501   3.18775   3.21784
 Alpha virt. eigenvalues --    3.26216   3.32230   3.37026   3.39646   3.52219
 Alpha virt. eigenvalues --    3.56967   3.59581   3.61037   3.64126   3.66860
 Alpha virt. eigenvalues --    3.69408   3.69907   3.71840   3.73725   3.77233
 Alpha virt. eigenvalues --    3.84419   3.88883   3.95056   3.98565   4.05355
 Alpha virt. eigenvalues --    4.17712   4.19314
          Condensed to atoms (all electrons):
 Mulliken charges:
               1
     1  C    1.009081
     2  C    0.764314
     3  H    0.039949
     4  H    0.013534
     5  H   -0.094313
     6  H    0.008668
     7  H    0.049153
     8  H   -0.034380
     9  N   -0.294435
    10  N   -0.164354
    11  N   -0.144635
    12  N   -0.143329
    13  O   -0.495743
    14  O   -0.513510
 Sum of Mulliken charges =  -0.00000
 Mulliken charges with hydrogens summed into heavy atoms:
               1
     1  C    1.009081
     2  C    0.764314
     9  N   -0.240952
    10  N   -0.258667
    11  N   -0.135967
    12  N   -0.128556
    13  O   -0.495743
    14  O   -0.513510
 Electronic spatial extent (au):  <R**2>=            959.4651
 Charge=              0.0000 electrons
 Dipole moment (field-independent basis, Debye):
    X=              6.5450    Y=             -5.4519    Z=              0.3044  Tot=              8.5237

 Test job not archived.
 1\1\GINC-SE221\SP\RHF\Aug-CC-pVDZ\C2H6N4O2\OHZDE\08-Apr-2025\0\\#t hf 
 aug-cc-pvdz iop(5/13=1,5/36=2,99/5=2) pseudo=read geom=check guess=(re
 ad,tcheck) scf=(maxcycle=1)\\title\\0,1\C,0,1.41621,0.239234,-0.145929
 \C,0,-1.51114,-0.046466,-0.00454057\H,0,3.37466,0.665533,0.32903\H,0,3
 .13733,-0.888939,0.0534232\H,0,1.08754,-1.73402,-0.485284\H,0,-0.80781
 7,-0.468408,-1.78761\H,0,-0.524456,-0.842402,1.50065\H,0,-1.99232,0.03
 25911,1.98588\N,0,2.68211,-0.0564235,0.424506\N,0,0.612172,-0.872679,-
 0.383305\N,0,-0.664387,-0.715153,-0.81148\N,0,-1.34362,-0.313922,1.302
 15\O,0,0.890504,1.36796,-0.187521\O,0,-2.47915,0.605326,-0.364529\\Ver
 sion=ES64L-G16RevC.01\State=1-A\HF=-446.9640092\RMSD=2.284e-03\Dipole=
 2.5750011,-2.1449383,0.1197481\Quadrupole=0.5133526,-3.3883142,2.87496
 16,-0.6576342,-4.8883357,1.9450271\PG=C01 [X(C2H6N4O2)]\\@


 DO YOU KNOW THAT THE LETTERS IN "EPISCOPAL", WHEN
 REARRANGED, SPELL "PEPSI COLA"?
 Job cpu time:       0 days  0 hours  1 minutes  3.6 seconds.
 Elapsed time:       0 days  0 hours  0 minutes  4.9 seconds.
 File lengths (MBytes):  RWF=     10 Int=      0 D2E=      0 Chk=      8 Scr=      1
 Normal termination of Gaussian 16 at Tue Apr  8 21:46:28 2025.
