 Entering Gaussian System, Link 0=g16
 Input=BDE49_nonexpt_1704_mol1.gjf
 Output=BDE49_nonexpt_1704_mol1.log
 Initial command:
 /arc/software/Gaussian/g16.c01/l1.exe "/tmp/slurm/4846755/Gau-390313.inp" -scrdir="/tmp/slurm/4846755/"
 Entering Link 1 = /arc/software/Gaussian/g16.c01/l1.exe PID=    390316.
  
 Copyright (c) 1988-2019, Gaussian, Inc.  All Rights Reserved.
  
 This is part of the Gaussian(R) 16 program.  It is based on
 the Gaussian(R) 09 system (copyright 2009, Gaussian, Inc.),
 the Gaussian(R) 03 system (copyright 2003, Gaussian, Inc.),
 the Gaussian(R) 98 system (copyright 1998, Gaussian, Inc.),
 the Gaussian(R) 94 system (copyright 1995, Gaussian, Inc.),
 the Gaussian 92(TM) system (copyright 1992, Gaussian, Inc.),
 the Gaussian 90(TM) system (copyright 1990, Gaussian, Inc.),
 the Gaussian 88(TM) system (copyright 1988, Gaussian, Inc.),
 the Gaussian 86(TM) system (copyright 1986, Carnegie Mellon
 University), and the Gaussian 82(TM) system (copyright 1983,
 Carnegie Mellon University). Gaussian is a federally registered
 trademark of Gaussian, Inc.
  
 This software contains proprietary and confidential information,
 including trade secrets, belonging to Gaussian, Inc.
  
 This software is provided under written license and may be
 used, copied, transmitted, or stored only in accord with that
 written license.
  
 The following legend is applicable only to US Government
 contracts under FAR:
  
                    RESTRICTED RIGHTS LEGEND
  
 Use, reproduction and disclosure by the US Government is
 subject to restrictions as set forth in subparagraphs (a)
 and (c) of the Commercial Computer Software - Restricted
 Rights clause in FAR 52.227-19.
  
 Gaussian, Inc.
 340 Quinnipiac St., Bldg. 40, Wallingford CT 06492
  
  
 ---------------------------------------------------------------
 Warning -- This program may not be used in any manner that
 competes with the business of Gaussian, Inc. or will provide
 assistance to any competitor of Gaussian, Inc.  The licensee
 of this program is prohibited from giving any competitor of
 Gaussian, Inc. access to this program.  By using this program,
 the user acknowledges that Gaussian, Inc. is engaged in the
 business of creating and licensing software in the field of
 computational chemistry and represents and warrants to the
 licensee that it is not a competitor of Gaussian, Inc. and that
 it will not use this program in any manner prohibited above.
 ---------------------------------------------------------------
  

 Cite this work as:
 Gaussian 16, Revision C.01,
 M. J. Frisch, G. W. Trucks, H. B. Schlegel, G. E. Scuseria, 
 M. A. Robb, J. R. Cheeseman, G. Scalmani, V. Barone, 
 G. A. Petersson, H. Nakatsuji, X. Li, M. Caricato, A. V. Marenich, 
 J. Bloino, B. G. Janesko, R. Gomperts, B. Mennucci, H. P. Hratchian, 
 J. V. Ortiz, A. F. Izmaylov, J. L. Sonnenberg, D. Williams-Young, 
 F. Ding, F. Lipparini, F. Egidi, J. Goings, B. Peng, A. Petrone, 
 T. Henderson, D. Ranasinghe, V. G. Zakrzewski, J. Gao, N. Rega, 
 G. Zheng, W. Liang, M. Hada, M. Ehara, K. Toyota, R. Fukuda, 
 J. Hasegawa, M. Ishida, T. Nakajima, Y. Honda, O. Kitao, H. Nakai, 
 T. Vreven, K. Throssell, J. A. Montgomery, Jr., J. E. Peralta, 
 F. Ogliaro, M. J. Bearpark, J. J. Heyd, E. N. Brothers, K. N. Kudin, 
 V. N. Staroverov, T. A. Keith, R. Kobayashi, J. Normand, 
 K. Raghavachari, A. P. Rendell, J. C. Burant, S. S. Iyengar, 
 J. Tomasi, M. Cossi, J. M. Millam, M. Klene, C. Adamo, R. Cammi, 
 J. W. Ochterski, R. L. Martin, K. Morokuma, O. Farkas, 
 J. B. Foresman, and D. J. Fox, Gaussian, Inc., Wallingford CT, 2019.
 
 ******************************************
 Gaussian 16:  ES64L-G16RevC.01  3-Jul-2019
                 8-Apr-2025 
 ******************************************
 %nprocs=16
 Will use up to   16 processors via shared memory.
 %mem=30GB
 %chk=BDE49_nonexpt_1704_mol1.chk
 ----------------------------------------------------------------------
 #t hf aug-cc-pvdz symm=none int=(grid=ultrafine) guess=(read,tcheck) s
 table=(opt,rrhf)
 ----------------------------------------------------------------------
 -----
 title
 -----
 Symbolic Z-matrix:
 Charge =  0 Multiplicity = 1
 S                     0.00166   1.40268  -0.10964 
 P                    -1.39562  -0.19111   0.03586 
 O                    -2.76954   0.29965  -0.04609 
 O                    -0.99683  -1.28507  -1.07741 
 O                     1.35471   0.5303    0.46266 
 C                     2.23143  -0.00549  -0.56641 
 C                     3.3858   -0.68206   0.1454 
 H                     2.578     0.81939  -1.19565 
 H                     1.66813  -0.70888  -1.1856 
 H                     3.91963   0.02805   0.77997 
 H                     4.08683  -1.08377  -0.59115 
 H                     3.0339   -1.50914   0.76618 
 O                    -0.91885  -0.93804   1.35226 
 H                     0.01118  -0.73623   1.55095 
 H                    -1.44923  -1.11506  -1.91357 
 
                    Distance matrix (angstroms):
                    1          2          3          4          5
     1  S    0.000000
     2  P    2.124557   0.000000
     3  O    2.983328   1.461237   0.000000
     4  O    3.026147   1.610943   2.591804   0.000000
     5  O    1.708602   2.875227   4.161906   3.346213   0.000000
     6  C    2.676457   3.681390   5.037207   3.509998   1.454191
     7  C    3.982910   4.807802   6.236067   4.589800   2.386584
     8  H    2.856074   4.281045   5.494335   4.149951   2.080862
     9  H    2.897153   3.338653   4.691321   2.728682   2.085802
    10  H    4.246351   5.371554   6.745448   5.417166   2.632820
    11  H    4.806549   5.589921   7.015746   5.110825   3.343684
    12  H    4.294212   4.678806   6.132814   4.437995   2.659161
    13  O    2.909206   1.586860   2.629124   2.455565   2.848954
    14  H    2.707874   2.138161   3.369859   2.868026   2.143261
    15  H    3.420272   2.157963   2.689253   0.965778   4.026881
                    6          7          8          9         10
     6  C    0.000000
     7  C    1.515581   0.000000
     8  H    1.093836   2.169170   0.000000
     9  H    1.093375   2.173167   1.778637   0.000000
    10  H    2.159602   1.091750   2.515805   3.078276   0.000000
    11  H    2.146122   1.093309   2.502802   2.518734   1.773156
    12  H    2.163499   1.092366   3.078746   2.513007   1.774164
    13  O    3.804630   4.477953   4.669944   3.631220   4.967068
    14  H    3.153837   3.656032   4.068455   3.199214   4.056418
    15  H    4.073478   5.272976   4.525046   3.226894   6.114448
                   11         12         13         14         15
    11  H    0.000000
    12  H    1.769729   0.000000
    13  O    5.371681   4.036574   0.000000
    14  H    4.617395   3.217162   0.972196   0.000000
    15  H    5.691897   5.237822   3.313345   3.778779   0.000000
 Symmetry turned off by external request.
 Rotational constants (GHZ):           2.6799452           0.9068468           0.8240866
   255 basis functions,   497 primitive gaussians,   271 cartesian basis functions
    41 alpha electrons       41 beta electrons
       nuclear repulsion energy       613.8637347310 Hartrees.
 NAtoms=   15 NActive=   15 NUniq=   15 SFac= 1.00D+00 NAtFMM=   60 NAOKFM=F Big=F
 ExpMin= 2.97D-02 ExpMax= 1.11D+05 ExpMxC= 3.24D+03 IAcc=3 IRadAn=         5 AccDes= 0.00D+00
 Harris functional with IExCor=  205 and IRadAn=       5 diagonalized for initial guess.
 HarFok:  IExCor=  205 AccDes= 0.00D+00 IRadAn=         5 IDoV= 1 UseB2=F ITyADJ=14
 ICtDFT=  3500011 ScaDFX=  1.000000  1.000000  1.000000  1.000000
 FoFCou: FMM=F IPFlag=           0 FMFlag=      100000 FMFlg1=           0
         NFxFlg=           0 DoJE=T BraDBF=F KetDBF=T FulRan=T
         wScrn=  0.000000 ICntrl=       500 IOpCl=  0 I1Cent=   200000004 NGrid=           0
         NMat0=    1 NMatS0=      1 NMatT0=    0 NMatD0=    1 NMtDS0=    0 NMtDT0=    0
 Symmetry not used in FoFCou.
 SCF Done:  E(RHF) =  -1117.63265545     A.U. after   14 cycles
            NFock= 14  Conv=0.74D-08     -V/T= 2.0007

 **********************************************************************

            Population analysis using the SCF Density.

 **********************************************************************

 Alpha  occ. eigenvalues --  -92.03245 -80.13861 -20.63195 -20.62696 -20.62210
 Alpha  occ. eigenvalues --  -20.53903 -11.31388 -11.24755  -9.02910  -7.65796
 Alpha  occ. eigenvalues --   -6.71082  -6.70894  -6.70665  -5.55600  -5.55552
 Alpha  occ. eigenvalues --   -5.55478  -1.45730  -1.40451  -1.39692  -1.32500
 Alpha  occ. eigenvalues --   -1.05807  -0.96930  -0.86933  -0.84538  -0.75931
 Alpha  occ. eigenvalues --   -0.71921  -0.68626  -0.65915  -0.65533  -0.61746
 Alpha  occ. eigenvalues --   -0.59979  -0.59527  -0.57061  -0.56138  -0.55414
 Alpha  occ. eigenvalues --   -0.52494  -0.50844  -0.49384  -0.48459  -0.43383
 Alpha  occ. eigenvalues --   -0.39921
 Alpha virt. eigenvalues --    0.02798   0.03796   0.04419   0.04822   0.06290
 Alpha virt. eigenvalues --    0.07373   0.07614   0.08114   0.09007   0.09806
 Alpha virt. eigenvalues --    0.11569   0.12150   0.12983   0.13975   0.14669
 Alpha virt. eigenvalues --    0.15133   0.15405   0.16020   0.16638   0.16876
 Alpha virt. eigenvalues --    0.17503   0.19821   0.20319   0.20663   0.21461
 Alpha virt. eigenvalues --    0.22119   0.23025   0.23716   0.24752   0.26145
 Alpha virt. eigenvalues --    0.27372   0.27700   0.28250   0.29429   0.29683
 Alpha virt. eigenvalues --    0.30051   0.30404   0.31724   0.32406   0.33041
 Alpha virt. eigenvalues --    0.33589   0.34421   0.35093   0.36906   0.37242
 Alpha virt. eigenvalues --    0.38285   0.38968   0.39238   0.40853   0.41253
 Alpha virt. eigenvalues --    0.42349   0.43554   0.44810   0.45022   0.45457
 Alpha virt. eigenvalues --    0.46358   0.47520   0.48326   0.49121   0.49656
 Alpha virt. eigenvalues --    0.50826   0.51977   0.53213   0.54808   0.55049
 Alpha virt. eigenvalues --    0.56354   0.56893   0.58645   0.58847   0.59176
 Alpha virt. eigenvalues --    0.60075   0.60796   0.61542   0.62877   0.63920
 Alpha virt. eigenvalues --    0.64240   0.65241   0.66198   0.68160   0.68928
 Alpha virt. eigenvalues --    0.69477   0.70226   0.72172   0.72473   0.74315
 Alpha virt. eigenvalues --    0.76513   0.76786   0.78216   0.79302   0.81537
 Alpha virt. eigenvalues --    0.82858   0.85282   0.87510   0.87928   0.88473
 Alpha virt. eigenvalues --    0.90171   0.90281   0.93861   0.94381   0.95237
 Alpha virt. eigenvalues --    0.98498   0.99131   1.01485   1.01624   1.03897
 Alpha virt. eigenvalues --    1.04477   1.06269   1.07648   1.11087   1.12345
 Alpha virt. eigenvalues --    1.13906   1.14239   1.15966   1.17120   1.18428
 Alpha virt. eigenvalues --    1.21235   1.21369   1.22128   1.25758   1.26252
 Alpha virt. eigenvalues --    1.29026   1.29621   1.30340   1.31078   1.33575
 Alpha virt. eigenvalues --    1.35082   1.36456   1.37574   1.40357   1.42454
 Alpha virt. eigenvalues --    1.43336   1.45598   1.46996   1.47712   1.51364
 Alpha virt. eigenvalues --    1.53956   1.54465   1.56431   1.57875   1.62970
 Alpha virt. eigenvalues --    1.64169   1.65221   1.67942   1.69919   1.71926
 Alpha virt. eigenvalues --    1.72573   1.76864   1.81464   1.82487   1.83907
 Alpha virt. eigenvalues --    1.86670   1.89341   1.91552   1.92929   1.95292
 Alpha virt. eigenvalues --    1.98996   2.00081   2.01655   2.06550   2.08850
 Alpha virt. eigenvalues --    2.09021   2.12535   2.13739   2.18352   2.19371
 Alpha virt. eigenvalues --    2.20848   2.24212   2.24915   2.28575   2.29087
 Alpha virt. eigenvalues --    2.31383   2.33606   2.39117   2.46532   2.48250
 Alpha virt. eigenvalues --    2.48728   2.53544   2.57587   2.58982   2.63198
 Alpha virt. eigenvalues --    2.70700   2.71712   2.80075   2.84164   2.87322
 Alpha virt. eigenvalues --    2.89133   2.95575   2.98896   3.03108   3.06679
 Alpha virt. eigenvalues --    3.07702   3.11353   3.19568   3.26688   3.64058
 Alpha virt. eigenvalues --    3.66029   3.67759   3.68812   3.70506   3.71643
 Alpha virt. eigenvalues --    3.73054   3.74124   3.74532   3.77876   3.80631
 Alpha virt. eigenvalues --    3.81301   3.82522   3.88214   3.93182   3.95872
 Alpha virt. eigenvalues --    3.97075   4.05121   4.24430   4.26426
          Condensed to atoms (all electrons):
 Mulliken charges:
               1
     1  S    0.141149
     2  P    2.480595
     3  O   -0.963776
     4  O   -0.824211
     5  O   -1.038866
     6  C    0.876392
     7  C    0.206376
     8  H   -0.197845
     9  H   -0.158440
    10  H   -0.051065
    11  H   -0.030114
    12  H   -0.073156
    13  O   -0.853635
    14  H    0.301601
    15  H    0.184995
 Sum of Mulliken charges =  -0.00000
 Mulliken charges with hydrogens summed into heavy atoms:
               1
     1  S    0.141149
     2  P    2.480595
     3  O   -0.963776
     4  O   -0.639216
     5  O   -1.038866
     6  C    0.520107
     7  C    0.052041
    13  O   -0.552034
 Electronic spatial extent (au):  <R**2>=           1477.4509
 Charge=             -0.0000 electrons
 Dipole moment (field-independent basis, Debye):
    X=              4.8507    Y=             -0.9273    Z=             -2.2586  Tot=              5.4305
 NROrb=    255 NOA=    41 NOB=    41 NVA=   214 NVB=   214

 **** Warning!!: The largest alpha MO coefficient is  0.26518880D+02

    12 initial guesses have been made.
 Iteration     1 Dimension    12 NMult     0 NNew     12
 Iteration     2 Dimension    24 NMult    12 NNew     12
 Iteration     3 Dimension    27 NMult    24 NNew      3
 Iteration     4 Dimension    30 NMult    27 NNew      3
 Iteration     5 Dimension    33 NMult    30 NNew      3
 Iteration     6 Dimension    36 NMult    33 NNew      3
 ***********************************************************************
 Stability analysis using <AA,BB:AA,BB> singles matrix:
 ***********************************************************************
 Ground to excited state transition densities written to RWF  633

 Eigenvectors of the stability matrix:
 
 Excited state symmetry could not be determined.
 Eigenvector   1:      Singlet-?Sym  Eigenvalue= 0.1939456  <S**2>=0.000
      41 -> 46        -0.13745
      41 -> 47         0.39496
      41 -> 49        -0.19968
      41 -> 50         0.34499
      41 -> 52        -0.15978
      41 -> 54         0.13164
      41 -> 58         0.13427
 The wavefunction is stable under the perturbations considered.
 The wavefunction is already stable.

 **********************************************************************

            Population analysis using the SCF Density.

 **********************************************************************

 Alpha  occ. eigenvalues --  -92.03245 -80.13861 -20.63195 -20.62696 -20.62210
 Alpha  occ. eigenvalues --  -20.53903 -11.31388 -11.24755  -9.02910  -7.65796
 Alpha  occ. eigenvalues --   -6.71082  -6.70894  -6.70665  -5.55600  -5.55552
 Alpha  occ. eigenvalues --   -5.55478  -1.45730  -1.40451  -1.39692  -1.32500
 Alpha  occ. eigenvalues --   -1.05807  -0.96930  -0.86933  -0.84538  -0.75931
 Alpha  occ. eigenvalues --   -0.71921  -0.68626  -0.65915  -0.65533  -0.61746
 Alpha  occ. eigenvalues --   -0.59979  -0.59527  -0.57061  -0.56138  -0.55414
 Alpha  occ. eigenvalues --   -0.52494  -0.50844  -0.49384  -0.48459  -0.43383
 Alpha  occ. eigenvalues --   -0.39921
 Alpha virt. eigenvalues --    0.02798   0.03796   0.04419   0.04822   0.06290
 Alpha virt. eigenvalues --    0.07373   0.07614   0.08114   0.09007   0.09806
 Alpha virt. eigenvalues --    0.11569   0.12150   0.12983   0.13975   0.14669
 Alpha virt. eigenvalues --    0.15133   0.15405   0.16020   0.16638   0.16876
 Alpha virt. eigenvalues --    0.17503   0.19821   0.20319   0.20663   0.21461
 Alpha virt. eigenvalues --    0.22119   0.23025   0.23716   0.24752   0.26145
 Alpha virt. eigenvalues --    0.27372   0.27700   0.28250   0.29429   0.29683
 Alpha virt. eigenvalues --    0.30051   0.30404   0.31724   0.32406   0.33041
 Alpha virt. eigenvalues --    0.33589   0.34421   0.35093   0.36906   0.37242
 Alpha virt. eigenvalues --    0.38285   0.38968   0.39238   0.40853   0.41253
 Alpha virt. eigenvalues --    0.42349   0.43554   0.44810   0.45022   0.45457
 Alpha virt. eigenvalues --    0.46358   0.47520   0.48326   0.49121   0.49656
 Alpha virt. eigenvalues --    0.50826   0.51977   0.53213   0.54808   0.55049
 Alpha virt. eigenvalues --    0.56354   0.56893   0.58645   0.58847   0.59176
 Alpha virt. eigenvalues --    0.60075   0.60796   0.61542   0.62877   0.63920
 Alpha virt. eigenvalues --    0.64240   0.65241   0.66198   0.68160   0.68928
 Alpha virt. eigenvalues --    0.69477   0.70226   0.72172   0.72473   0.74315
 Alpha virt. eigenvalues --    0.76513   0.76786   0.78216   0.79302   0.81537
 Alpha virt. eigenvalues --    0.82858   0.85282   0.87510   0.87928   0.88473
 Alpha virt. eigenvalues --    0.90171   0.90281   0.93861   0.94381   0.95237
 Alpha virt. eigenvalues --    0.98498   0.99131   1.01485   1.01624   1.03897
 Alpha virt. eigenvalues --    1.04477   1.06269   1.07648   1.11087   1.12345
 Alpha virt. eigenvalues --    1.13906   1.14239   1.15966   1.17120   1.18428
 Alpha virt. eigenvalues --    1.21235   1.21369   1.22128   1.25758   1.26252
 Alpha virt. eigenvalues --    1.29026   1.29621   1.30340   1.31078   1.33575
 Alpha virt. eigenvalues --    1.35082   1.36456   1.37574   1.40357   1.42454
 Alpha virt. eigenvalues --    1.43336   1.45598   1.46996   1.47712   1.51364
 Alpha virt. eigenvalues --    1.53956   1.54465   1.56431   1.57875   1.62970
 Alpha virt. eigenvalues --    1.64169   1.65221   1.67942   1.69919   1.71926
 Alpha virt. eigenvalues --    1.72573   1.76864   1.81464   1.82487   1.83907
 Alpha virt. eigenvalues --    1.86670   1.89341   1.91552   1.92929   1.95292
 Alpha virt. eigenvalues --    1.98996   2.00081   2.01655   2.06550   2.08850
 Alpha virt. eigenvalues --    2.09021   2.12535   2.13739   2.18352   2.19371
 Alpha virt. eigenvalues --    2.20848   2.24212   2.24915   2.28575   2.29087
 Alpha virt. eigenvalues --    2.31383   2.33606   2.39117   2.46532   2.48250
 Alpha virt. eigenvalues --    2.48728   2.53544   2.57587   2.58982   2.63198
 Alpha virt. eigenvalues --    2.70700   2.71712   2.80075   2.84164   2.87322
 Alpha virt. eigenvalues --    2.89133   2.95575   2.98896   3.03108   3.06679
 Alpha virt. eigenvalues --    3.07702   3.11353   3.19568   3.26688   3.64058
 Alpha virt. eigenvalues --    3.66029   3.67759   3.68812   3.70506   3.71643
 Alpha virt. eigenvalues --    3.73054   3.74124   3.74532   3.77876   3.80631
 Alpha virt. eigenvalues --    3.81301   3.82522   3.88214   3.93182   3.95872
 Alpha virt. eigenvalues --    3.97075   4.05121   4.24430   4.26426
          Condensed to atoms (all electrons):
 Mulliken charges:
               1
     1  S    0.141149
     2  P    2.480595
     3  O   -0.963776
     4  O   -0.824211
     5  O   -1.038866
     6  C    0.876392
     7  C    0.206376
     8  H   -0.197845
     9  H   -0.158440
    10  H   -0.051065
    11  H   -0.030114
    12  H   -0.073156
    13  O   -0.853635
    14  H    0.301601
    15  H    0.184995
 Sum of Mulliken charges =  -0.00000
 Mulliken charges with hydrogens summed into heavy atoms:
               1
     1  S    0.141149
     2  P    2.480595
     3  O   -0.963776
     4  O   -0.639216
     5  O   -1.038866
     6  C    0.520107
     7  C    0.052041
    13  O   -0.552034
 Electronic spatial extent (au):  <R**2>=           1477.4509
 Charge=             -0.0000 electrons
 Dipole moment (field-independent basis, Debye):
    X=              4.8507    Y=             -0.9273    Z=             -2.2586  Tot=              5.4305
 Unable to Open any file for archive entry.
 1\1\GINC-SE424\Stability\RHF\Aug-CC-pVDZ\C2H7O4P1S1\OHZDE\08-Apr-2025\
 0\\#t hf aug-cc-pvdz symm=none int=(grid=ultrafine) guess=(read,tcheck
 ) stable=(opt,rrhf)\\title\\0,1\S,0,0.00166,1.402681,-0.10964\P,0,-1.3
 95619,-0.191114,0.035857\O,0,-2.769536,0.29965,-0.046092\O,0,-0.996828
 ,-1.285071,-1.077409\O,0,1.354713,0.530304,0.462659\C,0,2.231426,-0.00
 5485,-0.566406\C,0,3.385796,-0.682061,0.145395\H,0,2.577996,0.819388,-
 1.195652\H,0,1.66813,-0.708877,-1.185604\H,0,3.919629,0.028049,0.77996
 9\H,0,4.086829,-1.083773,-0.591154\H,0,3.033902,-1.509142,0.766177\O,0
 ,-0.918854,-0.938042,1.35226\H,0,0.011177,-0.736228,1.55095\H,0,-1.449
 229,-1.115063,-1.913566\\Version=ES64L-G16RevC.01\HF=-1117.6326554\RMS
 D=7.432e-09\Dipole=1.9084269,-0.3648456,-0.8885956\Quadrupole=-3.78162
 07,-0.4949039,4.2765246,0.6540446,2.1040181,0.5771288\PG=Unknown\\@
 The archive entry for this job was punched.


 VIRTUE IS LEARNED AT YOUR MOTHER'S KNEE,
 VICES ARE PICKED UP AT SOME OTHER JOINT.
 Job cpu time:       0 days  0 hours  9 minutes 47.7 seconds.
 Elapsed time:       0 days  0 hours  0 minutes 41.7 seconds.
 File lengths (MBytes):  RWF=    366 Int=      0 D2E=      0 Chk=     10 Scr=      1
 Normal termination of Gaussian 16 at Tue Apr  8 23:42:51 2025.
 Initial command:
 /arc/software/Gaussian/g16.c01/l1.exe "/tmp/slurm/4846755/Gau-390313.inp" -scrdir="/tmp/slurm/4846755/"
 Entering Link 1 = /arc/software/Gaussian/g16.c01/l1.exe PID=    390915.
  
 Copyright (c) 1988-2019, Gaussian, Inc.  All Rights Reserved.
  
 This is part of the Gaussian(R) 16 program.  It is based on
 the Gaussian(R) 09 system (copyright 2009, Gaussian, Inc.),
 the Gaussian(R) 03 system (copyright 2003, Gaussian, Inc.),
 the Gaussian(R) 98 system (copyright 1998, Gaussian, Inc.),
 the Gaussian(R) 94 system (copyright 1995, Gaussian, Inc.),
 the Gaussian 92(TM) system (copyright 1992, Gaussian, Inc.),
 the Gaussian 90(TM) system (copyright 1990, Gaussian, Inc.),
 the Gaussian 88(TM) system (copyright 1988, Gaussian, Inc.),
 the Gaussian 86(TM) system (copyright 1986, Carnegie Mellon
 University), and the Gaussian 82(TM) system (copyright 1983,
 Carnegie Mellon University). Gaussian is a federally registered
 trademark of Gaussian, Inc.
  
 This software contains proprietary and confidential information,
 including trade secrets, belonging to Gaussian, Inc.
  
 This software is provided under written license and may be
 used, copied, transmitted, or stored only in accord with that
 written license.
  
 The following legend is applicable only to US Government
 contracts under FAR:
  
                    RESTRICTED RIGHTS LEGEND
  
 Use, reproduction and disclosure by the US Government is
 subject to restrictions as set forth in subparagraphs (a)
 and (c) of the Commercial Computer Software - Restricted
 Rights clause in FAR 52.227-19.
  
 Gaussian, Inc.
 340 Quinnipiac St., Bldg. 40, Wallingford CT 06492
  
  
 ---------------------------------------------------------------
 Warning -- This program may not be used in any manner that
 competes with the business of Gaussian, Inc. or will provide
 assistance to any competitor of Gaussian, Inc.  The licensee
 of this program is prohibited from giving any competitor of
 Gaussian, Inc. access to this program.  By using this program,
 the user acknowledges that Gaussian, Inc. is engaged in the
 business of creating and licensing software in the field of
 computational chemistry and represents and warrants to the
 licensee that it is not a competitor of Gaussian, Inc. and that
 it will not use this program in any manner prohibited above.
 ---------------------------------------------------------------
  

 Cite this work as:
 Gaussian 16, Revision C.01,
 M. J. Frisch, G. W. Trucks, H. B. Schlegel, G. E. Scuseria, 
 M. A. Robb, J. R. Cheeseman, G. Scalmani, V. Barone, 
 G. A. Petersson, H. Nakatsuji, X. Li, M. Caricato, A. V. Marenich, 
 J. Bloino, B. G. Janesko, R. Gomperts, B. Mennucci, H. P. Hratchian, 
 J. V. Ortiz, A. F. Izmaylov, J. L. Sonnenberg, D. Williams-Young, 
 F. Ding, F. Lipparini, F. Egidi, J. Goings, B. Peng, A. Petrone, 
 T. Henderson, D. Ranasinghe, V. G. Zakrzewski, J. Gao, N. Rega, 
 G. Zheng, W. Liang, M. Hada, M. Ehara, K. Toyota, R. Fukuda, 
 J. Hasegawa, M. Ishida, T. Nakajima, Y. Honda, O. Kitao, H. Nakai, 
 T. Vreven, K. Throssell, J. A. Montgomery, Jr., J. E. Peralta, 
 F. Ogliaro, M. J. Bearpark, J. J. Heyd, E. N. Brothers, K. N. Kudin, 
 V. N. Staroverov, T. A. Keith, R. Kobayashi, J. Normand, 
 K. Raghavachari, A. P. Rendell, J. C. Burant, S. S. Iyengar, 
 J. Tomasi, M. Cossi, J. M. Millam, M. Klene, C. Adamo, R. Cammi, 
 J. W. Ochterski, R. L. Martin, K. Morokuma, O. Farkas, 
 J. B. Foresman, and D. J. Fox, Gaussian, Inc., Wallingford CT, 2019.
 
 ******************************************
 Gaussian 16:  ES64L-G16RevC.01  3-Jul-2019
                 8-Apr-2025 
 ******************************************
 %nprocs=16
 Will use up to   16 processors via shared memory.
 %mem=30GB
 %chk=BDE49_nonexpt_1704_mol1.chk
 ----------------------------------------------------------------------
 #t hf aug-cc-pvdz iop(5/13=1,5/36=2,99/5=2) pseudo=read geom=check gue
 ss=(read,tcheck) scf=(maxcycle=1)
 ----------------------------------------------------------------------
 -----
 title
 -----
 Structure from the checkpoint file:  "BDE49_nonexpt_1704_mol1.chk"
 Charge =  0 Multiplicity = 1
 Z-Matrix found in chk file.
 S,0,0.00166,1.402681,-0.10964
 P,0,-1.395619,-0.191114,0.035857
 O,0,-2.769536,0.29965,-0.046092
 O,0,-0.996828,-1.285071,-1.077409
 O,0,1.354713,0.530304,0.462659
 C,0,2.231426,-0.005485,-0.566406
 C,0,3.385796,-0.682061,0.145395
 H,0,2.577996,0.819388,-1.195652
 H,0,1.66813,-0.708877,-1.185604
 H,0,3.919629,0.028049,0.779969
 H,0,4.086829,-1.083773,-0.591154
 H,0,3.033902,-1.509142,0.766177
 O,0,-0.918854,-0.938042,1.35226
 H,0,0.011177,-0.736228,1.55095
 H,0,-1.449229,-1.115063,-1.913566
 Recover connectivity data from disk.
                    Distance matrix (angstroms):
                    1          2          3          4          5
     1  S    0.000000
     2  P    2.124557   0.000000
     3  O    2.983328   1.461237   0.000000
     4  O    3.026147   1.610943   2.591804   0.000000
     5  O    1.708602   2.875227   4.161906   3.346213   0.000000
     6  C    2.676457   3.681390   5.037207   3.509998   1.454191
     7  C    3.982910   4.807802   6.236067   4.589800   2.386584
     8  H    2.856074   4.281045   5.494335   4.149951   2.080862
     9  H    2.897153   3.338653   4.691321   2.728682   2.085802
    10  H    4.246351   5.371554   6.745448   5.417166   2.632820
    11  H    4.806549   5.589921   7.015746   5.110825   3.343684
    12  H    4.294212   4.678806   6.132814   4.437995   2.659161
    13  O    2.909206   1.586860   2.629124   2.455565   2.848954
    14  H    2.707874   2.138161   3.369859   2.868026   2.143261
    15  H    3.420272   2.157963   2.689253   0.965778   4.026881
                    6          7          8          9         10
     6  C    0.000000
     7  C    1.515581   0.000000
     8  H    1.093836   2.169170   0.000000
     9  H    1.093375   2.173167   1.778637   0.000000
    10  H    2.159602   1.091750   2.515805   3.078276   0.000000
    11  H    2.146122   1.093309   2.502802   2.518734   1.773156
    12  H    2.163499   1.092366   3.078746   2.513007   1.774164
    13  O    3.804630   4.477953   4.669944   3.631220   4.967068
    14  H    3.153837   3.656032   4.068455   3.199214   4.056418
    15  H    4.073478   5.272976   4.525046   3.226894   6.114448
                   11         12         13         14         15
    11  H    0.000000
    12  H    1.769729   0.000000
    13  O    5.371681   4.036574   0.000000
    14  H    4.617395   3.217162   0.972196   0.000000
    15  H    5.691897   5.237822   3.313345   3.778779   0.000000
 Framework group  C1[X(C2H7O4PS)]
 Deg. of freedom    39
                         Standard orientation:                         
 ---------------------------------------------------------------------
 Center     Atomic      Atomic             Coordinates (Angstroms)
 Number     Number       Type             X           Y           Z
 ---------------------------------------------------------------------
      1         16           0        0.001660    1.402681   -0.109640
      2         15           0       -1.395619   -0.191114    0.035857
      3          8           0       -2.769536    0.299650   -0.046092
      4          8           0       -0.996828   -1.285071   -1.077409
      5          8           0        1.354713    0.530304    0.462659
      6          6           0        2.231426   -0.005485   -0.566406
      7          6           0        3.385796   -0.682061    0.145395
      8          1           0        2.577996    0.819388   -1.195652
      9          1           0        1.668130   -0.708877   -1.185604
     10          1           0        3.919629    0.028049    0.779969
     11          1           0        4.086829   -1.083773   -0.591154
     12          1           0        3.033902   -1.509142    0.766177
     13          8           0       -0.918854   -0.938042    1.352260
     14          1           0        0.011177   -0.736228    1.550950
     15          1           0       -1.449229   -1.115063   -1.913566
 ---------------------------------------------------------------------
 Rotational constants (GHZ):           2.6799452           0.9068468           0.8240866
 ======================================================================================================
                                       Pseudopotential Parameters
 ======================================================================================================
  Center     Atomic      Valence      Angular      Power
  Number     Number     Electrons     Momentum     of R      Exponent        Coefficient   SO-Coeffient
 ======================================================================================================
    1         16           16
                                      G and up 
                                                     0        0.0000010       -0.00108337    0.00000000
                                                     2        0.1200000        0.02393503    0.00000000
                                                     2        0.1400000       -0.04929246    0.00000000
                                                     2        0.2200000        0.11673929    0.00000000
                                                     2        0.3000000       -0.24406081    0.00000000
                                                     2        0.5000000        0.65938599    0.00000000
                                                     2        0.9000000       -2.67146103    0.00000000
                                                     2        1.6000000        1.72231217    0.00000000
                                      S - G
                                                     0        0.0000010       -0.00315363    0.00000000
                                                     2        0.1600000        0.09915567    0.00000000
                                                     2        0.3000000       -0.42531365    0.00000000
                                                     2        0.6000000        1.27985937    0.00000000
                                      P - G
                                                     0        0.0000010        0.05906535    0.00000000
                                                     2        0.1200000       -0.03516302    0.00000000
                                                     2        0.1600000        0.00585339    0.00000000
                                                     2        0.5000000        0.34013084    0.00000000
                                      D - G
                                                     0        0.0000010        0.03484679    0.00000000
                                                     2        0.1200000        0.00763944    0.00000000
                                                     2        0.2400000       -0.16368217    0.00000000
                                                     2        0.7000000        1.04339930    0.00000000
                                      F - G
                                                     0        0.0000010       -0.02227713    0.00000000
                                                     2        0.1200000       -0.15866626    0.00000000
                                                     2        0.1600000        0.42479417    0.00000000
                                                     2        0.2600000       -0.42884495    0.00000000
    2         15           15
                                      G and up 
                                                     0        0.0000010       -0.00062372    0.00000000
                                                     2        0.1200000        0.00273916    0.00000000
                                                     2        0.2400000       -0.02611253    0.00000000
                                                     2        0.4000000        0.07232031    0.00000000
                                                     2        0.7000000       -0.06738836    0.00000000
                                      S - G
                                                     0        0.0000010       -0.00171363    0.00000000
                                                     2        0.1200000       -0.11685950    0.00000000
                                                     2        0.2800000        0.73039551    0.00000000
                                                     2        0.7000000       -0.90461142    0.00000000
                                      P - G
                                                     0        0.0000010        0.09721278    0.00000000
                                                     2        0.1200000       -0.06687267    0.00000000
                                                     2        0.2400000        0.13955791    0.00000000
                                                     2        0.5000000       -0.14332004    0.00000000
                                                     2        0.8000000       -0.51825462    0.00000000
                                      D - G
                                                     0        0.0000010        0.13706773    0.00000000
                                                     2        0.1200000       -0.21285032    0.00000000
                                                     2        0.1800000        0.42861808    0.00000000
                                                     2        0.4000000       -1.01836828    0.00000000
                                                     2        1.0000000        2.21973069    0.00000000
                                      F - G
                                                     0        0.0000010       -0.11663732    0.00000000
                                                     2        0.1200000        0.14816215    0.00000000
                                                     2        0.1600000       -0.15649736    0.00000000
    3          8            8
                                      G and up 
                                                     0        0.0000010        0.00001165    0.00000000
                                                     2        0.1200000       -0.01744018    0.00000000
                                                     2        0.1400000        0.05401326    0.00000000
                                                     2        0.1800000       -0.08231208    0.00000000
                                                     2        0.2600000        0.11570222    0.00000000
                                                     2        0.4000000       -0.20630360    0.00000000
                                                     2        0.7000000        0.38074319    0.00000000
                                                     2        1.2000000       -0.17045091    0.00000000
                                                     2        2.0000000       -1.45433187    0.00000000
                                      S - G
                                                     0        0.0000010       -0.00117944    0.00000000
                                                     2        0.1400000        0.04368312    0.00000000
                                                     2        0.3000000       -0.33477926    0.00000000
                                                     2        0.6000000        1.52630657    0.00000000
                                                     2        1.5000000       -2.50804716    0.00000000
                                                     2        3.0000000        2.89751681    0.00000000
                                      P - G
                                                     0        0.0000010        0.06576007    0.00000000
                                                     2        0.1200000       -0.10329304    0.00000000
                                                     2        0.2000000        0.24891756    0.00000000
                                                     2        0.4000000       -0.50800022    0.00000000
                                                     2        0.9000000        0.81480796    0.00000000
                                      D - G
                                                     0        0.0000010       -0.14101855    0.00000000
                                                     2        0.1200000        0.22105937    0.00000000
                                                     2        0.1800000       -0.45814988    0.00000000
                                                     2        0.3000000        0.46029282    0.00000000
                                      F - G
                                                     0        0.0000010        0.07483044    0.00000000
                                                     2        0.1200000       -0.09134252    0.00000000
                                                     2        0.1400000        0.04125459    0.00000000
                                                     2        0.3000000        0.37914837    0.00000000
                                                     2        0.5000000       -0.86881279    0.00000000
    4          8            8
                                      G and up 
                                                     0        0.0000010        0.00001165    0.00000000
                                                     2        0.1200000       -0.01744018    0.00000000
                                                     2        0.1400000        0.05401326    0.00000000
                                                     2        0.1800000       -0.08231208    0.00000000
                                                     2        0.2600000        0.11570222    0.00000000
                                                     2        0.4000000       -0.20630360    0.00000000
                                                     2        0.7000000        0.38074319    0.00000000
                                                     2        1.2000000       -0.17045091    0.00000000
                                                     2        2.0000000       -1.45433187    0.00000000
                                      S - G
                                                     0        0.0000010       -0.00117944    0.00000000
                                                     2        0.1400000        0.04368312    0.00000000
                                                     2        0.3000000       -0.33477926    0.00000000
                                                     2        0.6000000        1.52630657    0.00000000
                                                     2        1.5000000       -2.50804716    0.00000000
                                                     2        3.0000000        2.89751681    0.00000000
                                      P - G
                                                     0        0.0000010        0.06576007    0.00000000
                                                     2        0.1200000       -0.10329304    0.00000000
                                                     2        0.2000000        0.24891756    0.00000000
                                                     2        0.4000000       -0.50800022    0.00000000
                                                     2        0.9000000        0.81480796    0.00000000
                                      D - G
                                                     0        0.0000010       -0.14101855    0.00000000
                                                     2        0.1200000        0.22105937    0.00000000
                                                     2        0.1800000       -0.45814988    0.00000000
                                                     2        0.3000000        0.46029282    0.00000000
                                      F - G
                                                     0        0.0000010        0.07483044    0.00000000
                                                     2        0.1200000       -0.09134252    0.00000000
                                                     2        0.1400000        0.04125459    0.00000000
                                                     2        0.3000000        0.37914837    0.00000000
                                                     2        0.5000000       -0.86881279    0.00000000
    5          8            8
                                      G and up 
                                                     0        0.0000010        0.00001165    0.00000000
                                                     2        0.1200000       -0.01744018    0.00000000
                                                     2        0.1400000        0.05401326    0.00000000
                                                     2        0.1800000       -0.08231208    0.00000000
                                                     2        0.2600000        0.11570222    0.00000000
                                                     2        0.4000000       -0.20630360    0.00000000
                                                     2        0.7000000        0.38074319    0.00000000
                                                     2        1.2000000       -0.17045091    0.00000000
                                                     2        2.0000000       -1.45433187    0.00000000
                                      S - G
                                                     0        0.0000010       -0.00117944    0.00000000
                                                     2        0.1400000        0.04368312    0.00000000
                                                     2        0.3000000       -0.33477926    0.00000000
                                                     2        0.6000000        1.52630657    0.00000000
                                                     2        1.5000000       -2.50804716    0.00000000
                                                     2        3.0000000        2.89751681    0.00000000
                                      P - G
                                                     0        0.0000010        0.06576007    0.00000000
                                                     2        0.1200000       -0.10329304    0.00000000
                                                     2        0.2000000        0.24891756    0.00000000
                                                     2        0.4000000       -0.50800022    0.00000000
                                                     2        0.9000000        0.81480796    0.00000000
                                      D - G
                                                     0        0.0000010       -0.14101855    0.00000000
                                                     2        0.1200000        0.22105937    0.00000000
                                                     2        0.1800000       -0.45814988    0.00000000
                                                     2        0.3000000        0.46029282    0.00000000
                                      F - G
                                                     0        0.0000010        0.07483044    0.00000000
                                                     2        0.1200000       -0.09134252    0.00000000
                                                     2        0.1400000        0.04125459    0.00000000
                                                     2        0.3000000        0.37914837    0.00000000
                                                     2        0.5000000       -0.86881279    0.00000000
    6          6            6
                                      G and up 
                                                     0        0.0000010       -0.00011185    0.00000000
                                                     2        0.1200000       -0.02301220    0.00000000
                                                     2        0.1400000        0.13317600    0.00000000
                                                     2        0.1600000       -0.19690668    0.00000000
                                                     2        0.2200000        0.23163694    0.00000000
                                                     2        0.3000000       -0.36920489    0.00000000
                                                     2        0.4000000        0.36389709    0.00000000
                                                     2        0.7000000       -0.38862160    0.00000000
                                                     2        1.3000000        0.80803421    0.00000000
                                      S - G
                                                     0        0.0000010        0.00312304    0.00000000
                                                     2        0.1200000       -0.00632892    0.00000000
                                                     2        0.2200000       -0.03780897    0.00000000
                                                     2        0.4000000        0.26269560    0.00000000
                                                     2        0.9000000       -0.28209514    0.00000000
                                                     2        1.5000000       -0.72686737    0.00000000
                                      P - G
                                                     0        0.0000010       -0.01465594    0.00000000
                                                     2        0.1200000        0.07908409    0.00000000
                                                     2        0.1800000       -0.30615861    0.00000000
                                                     2        0.2600000        0.41506950    0.00000000
                                                     2        0.5000000       -0.36252345    0.00000000
                                                     2        0.9000000        0.15124193    0.00000000
                                                     2        3.0000000       -0.80425677    0.00000000
                                      D - G
                                                     0        0.0000010        0.01149631    0.00000000
                                                     2        0.1200000       -0.04713561    0.00000000
                                                     2        0.1600000        0.10865096    0.00000000
                                                     2        0.2800000       -0.15816701    0.00000000
                                                     2        0.7000000        0.65478804    0.00000000
                                                     2        1.3000000       -1.73816624    0.00000000
                                      F - G
                                                     0        0.0000010        0.00481868    0.00000000
                                                     2        0.1200000       -0.04746842    0.00000000
                                                     2        0.1600000        0.09327889    0.00000000
                                                     2        0.4000000       -0.19693326    0.00000000
                                                     2        0.9000000        0.34938253    0.00000000
    7          6            6
                                      G and up 
                                                     0        0.0000010       -0.00011185    0.00000000
                                                     2        0.1200000       -0.02301220    0.00000000
                                                     2        0.1400000        0.13317600    0.00000000
                                                     2        0.1600000       -0.19690668    0.00000000
                                                     2        0.2200000        0.23163694    0.00000000
                                                     2        0.3000000       -0.36920489    0.00000000
                                                     2        0.4000000        0.36389709    0.00000000
                                                     2        0.7000000       -0.38862160    0.00000000
                                                     2        1.3000000        0.80803421    0.00000000
                                      S - G
                                                     0        0.0000010        0.00312304    0.00000000
                                                     2        0.1200000       -0.00632892    0.00000000
                                                     2        0.2200000       -0.03780897    0.00000000
                                                     2        0.4000000        0.26269560    0.00000000
                                                     2        0.9000000       -0.28209514    0.00000000
                                                     2        1.5000000       -0.72686737    0.00000000
                                      P - G
                                                     0        0.0000010       -0.01465594    0.00000000
                                                     2        0.1200000        0.07908409    0.00000000
                                                     2        0.1800000       -0.30615861    0.00000000
                                                     2        0.2600000        0.41506950    0.00000000
                                                     2        0.5000000       -0.36252345    0.00000000
                                                     2        0.9000000        0.15124193    0.00000000
                                                     2        3.0000000       -0.80425677    0.00000000
                                      D - G
                                                     0        0.0000010        0.01149631    0.00000000
                                                     2        0.1200000       -0.04713561    0.00000000
                                                     2        0.1600000        0.10865096    0.00000000
                                                     2        0.2800000       -0.15816701    0.00000000
                                                     2        0.7000000        0.65478804    0.00000000
                                                     2        1.3000000       -1.73816624    0.00000000
                                      F - G
                                                     0        0.0000010        0.00481868    0.00000000
                                                     2        0.1200000       -0.04746842    0.00000000
                                                     2        0.1600000        0.09327889    0.00000000
                                                     2        0.4000000       -0.19693326    0.00000000
                                                     2        0.9000000        0.34938253    0.00000000
    8          1            1
                                      F and up 
                                                     0        0.0000010       -0.00000699    0.00000000
                                                     2        0.1200000        0.00123686    0.00000000
                                                     2        0.1800000       -0.00752022    0.00000000
                                                     2        0.2600000        0.02503380    0.00000000
                                                     2        0.4000000       -0.08702670    0.00000000
                                                     2        0.6000000        0.30134159    0.00000000
                                                     2        0.8000000       -0.50204959    0.00000000
                                                     2        1.2000000        0.52208372    0.00000000
                                      S - F
                                                     0        0.0000010       -0.01618346    0.00000000
                                                     2        0.1200000       -0.07880581    0.00000000
                                                     2        0.1600000        0.32040539    0.00000000
                                                     2        0.2400000       -0.47500956    0.00000000
                                                     2        0.5000000        0.54013668    0.00000000
                                                     2        1.5000000       -1.40434292    0.00000000
                                                     2        3.0000000        1.46283806    0.00000000
                                      P - F
                                                     0        0.0000010        0.00612970    0.00000000
                                                     2        0.1200000        0.02254406    0.00000000
                                                     2        0.1800000       -0.13874529    0.00000000
                                                     2        0.3000000        0.38299049    0.00000000
                                                     2        0.5000000       -0.57923512    0.00000000
                                                     2        1.0000000        0.63021625    0.00000000
                                                     2        2.0000000       -0.79201034    0.00000000
                                      D - F
                                                     0        0.0000010       -0.00296226    0.00000000
                                                     2        0.1200000       -0.00547344    0.00000000
                                                     2        0.1400000        0.01837884    0.00000000
                                                     2        0.2400000       -0.05565704    0.00000000
                                                     2        0.4000000        0.15376597    0.00000000
                                                     2        0.8000000       -0.32464795    0.00000000
    9          1            1
                                      F and up 
                                                     0        0.0000010       -0.00000699    0.00000000
                                                     2        0.1200000        0.00123686    0.00000000
                                                     2        0.1800000       -0.00752022    0.00000000
                                                     2        0.2600000        0.02503380    0.00000000
                                                     2        0.4000000       -0.08702670    0.00000000
                                                     2        0.6000000        0.30134159    0.00000000
                                                     2        0.8000000       -0.50204959    0.00000000
                                                     2        1.2000000        0.52208372    0.00000000
                                      S - F
                                                     0        0.0000010       -0.01618346    0.00000000
                                                     2        0.1200000       -0.07880581    0.00000000
                                                     2        0.1600000        0.32040539    0.00000000
                                                     2        0.2400000       -0.47500956    0.00000000
                                                     2        0.5000000        0.54013668    0.00000000
                                                     2        1.5000000       -1.40434292    0.00000000
                                                     2        3.0000000        1.46283806    0.00000000
                                      P - F
                                                     0        0.0000010        0.00612970    0.00000000
                                                     2        0.1200000        0.02254406    0.00000000
                                                     2        0.1800000       -0.13874529    0.00000000
                                                     2        0.3000000        0.38299049    0.00000000
                                                     2        0.5000000       -0.57923512    0.00000000
                                                     2        1.0000000        0.63021625    0.00000000
                                                     2        2.0000000       -0.79201034    0.00000000
                                      D - F
                                                     0        0.0000010       -0.00296226    0.00000000
                                                     2        0.1200000       -0.00547344    0.00000000
                                                     2        0.1400000        0.01837884    0.00000000
                                                     2        0.2400000       -0.05565704    0.00000000
                                                     2        0.4000000        0.15376597    0.00000000
                                                     2        0.8000000       -0.32464795    0.00000000
   10          1            1
                                      F and up 
                                                     0        0.0000010       -0.00000699    0.00000000
                                                     2        0.1200000        0.00123686    0.00000000
                                                     2        0.1800000       -0.00752022    0.00000000
                                                     2        0.2600000        0.02503380    0.00000000
                                                     2        0.4000000       -0.08702670    0.00000000
                                                     2        0.6000000        0.30134159    0.00000000
                                                     2        0.8000000       -0.50204959    0.00000000
                                                     2        1.2000000        0.52208372    0.00000000
                                      S - F
                                                     0        0.0000010       -0.01618346    0.00000000
                                                     2        0.1200000       -0.07880581    0.00000000
                                                     2        0.1600000        0.32040539    0.00000000
                                                     2        0.2400000       -0.47500956    0.00000000
                                                     2        0.5000000        0.54013668    0.00000000
                                                     2        1.5000000       -1.40434292    0.00000000
                                                     2        3.0000000        1.46283806    0.00000000
                                      P - F
                                                     0        0.0000010        0.00612970    0.00000000
                                                     2        0.1200000        0.02254406    0.00000000
                                                     2        0.1800000       -0.13874529    0.00000000
                                                     2        0.3000000        0.38299049    0.00000000
                                                     2        0.5000000       -0.57923512    0.00000000
                                                     2        1.0000000        0.63021625    0.00000000
                                                     2        2.0000000       -0.79201034    0.00000000
                                      D - F
                                                     0        0.0000010       -0.00296226    0.00000000
                                                     2        0.1200000       -0.00547344    0.00000000
                                                     2        0.1400000        0.01837884    0.00000000
                                                     2        0.2400000       -0.05565704    0.00000000
                                                     2        0.4000000        0.15376597    0.00000000
                                                     2        0.8000000       -0.32464795    0.00000000
   11          1            1
                                      F and up 
                                                     0        0.0000010       -0.00000699    0.00000000
                                                     2        0.1200000        0.00123686    0.00000000
                                                     2        0.1800000       -0.00752022    0.00000000
                                                     2        0.2600000        0.02503380    0.00000000
                                                     2        0.4000000       -0.08702670    0.00000000
                                                     2        0.6000000        0.30134159    0.00000000
                                                     2        0.8000000       -0.50204959    0.00000000
                                                     2        1.2000000        0.52208372    0.00000000
                                      S - F
                                                     0        0.0000010       -0.01618346    0.00000000
                                                     2        0.1200000       -0.07880581    0.00000000
                                                     2        0.1600000        0.32040539    0.00000000
                                                     2        0.2400000       -0.47500956    0.00000000
                                                     2        0.5000000        0.54013668    0.00000000
                                                     2        1.5000000       -1.40434292    0.00000000
                                                     2        3.0000000        1.46283806    0.00000000
                                      P - F
                                                     0        0.0000010        0.00612970    0.00000000
                                                     2        0.1200000        0.02254406    0.00000000
                                                     2        0.1800000       -0.13874529    0.00000000
                                                     2        0.3000000        0.38299049    0.00000000
                                                     2        0.5000000       -0.57923512    0.00000000
                                                     2        1.0000000        0.63021625    0.00000000
                                                     2        2.0000000       -0.79201034    0.00000000
                                      D - F
                                                     0        0.0000010       -0.00296226    0.00000000
                                                     2        0.1200000       -0.00547344    0.00000000
                                                     2        0.1400000        0.01837884    0.00000000
                                                     2        0.2400000       -0.05565704    0.00000000
                                                     2        0.4000000        0.15376597    0.00000000
                                                     2        0.8000000       -0.32464795    0.00000000
   12          1            1
                                      F and up 
                                                     0        0.0000010       -0.00000699    0.00000000
                                                     2        0.1200000        0.00123686    0.00000000
                                                     2        0.1800000       -0.00752022    0.00000000
                                                     2        0.2600000        0.02503380    0.00000000
                                                     2        0.4000000       -0.08702670    0.00000000
                                                     2        0.6000000        0.30134159    0.00000000
                                                     2        0.8000000       -0.50204959    0.00000000
                                                     2        1.2000000        0.52208372    0.00000000
                                      S - F
                                                     0        0.0000010       -0.01618346    0.00000000
                                                     2        0.1200000       -0.07880581    0.00000000
                                                     2        0.1600000        0.32040539    0.00000000
                                                     2        0.2400000       -0.47500956    0.00000000
                                                     2        0.5000000        0.54013668    0.00000000
                                                     2        1.5000000       -1.40434292    0.00000000
                                                     2        3.0000000        1.46283806    0.00000000
                                      P - F
                                                     0        0.0000010        0.00612970    0.00000000
                                                     2        0.1200000        0.02254406    0.00000000
                                                     2        0.1800000       -0.13874529    0.00000000
                                                     2        0.3000000        0.38299049    0.00000000
                                                     2        0.5000000       -0.57923512    0.00000000
                                                     2        1.0000000        0.63021625    0.00000000
                                                     2        2.0000000       -0.79201034    0.00000000
                                      D - F
                                                     0        0.0000010       -0.00296226    0.00000000
                                                     2        0.1200000       -0.00547344    0.00000000
                                                     2        0.1400000        0.01837884    0.00000000
                                                     2        0.2400000       -0.05565704    0.00000000
                                                     2        0.4000000        0.15376597    0.00000000
                                                     2        0.8000000       -0.32464795    0.00000000
   13          8            8
                                      G and up 
                                                     0        0.0000010        0.00001165    0.00000000
                                                     2        0.1200000       -0.01744018    0.00000000
                                                     2        0.1400000        0.05401326    0.00000000
                                                     2        0.1800000       -0.08231208    0.00000000
                                                     2        0.2600000        0.11570222    0.00000000
                                                     2        0.4000000       -0.20630360    0.00000000
                                                     2        0.7000000        0.38074319    0.00000000
                                                     2        1.2000000       -0.17045091    0.00000000
                                                     2        2.0000000       -1.45433187    0.00000000
                                      S - G
                                                     0        0.0000010       -0.00117944    0.00000000
                                                     2        0.1400000        0.04368312    0.00000000
                                                     2        0.3000000       -0.33477926    0.00000000
                                                     2        0.6000000        1.52630657    0.00000000
                                                     2        1.5000000       -2.50804716    0.00000000
                                                     2        3.0000000        2.89751681    0.00000000
                                      P - G
                                                     0        0.0000010        0.06576007    0.00000000
                                                     2        0.1200000       -0.10329304    0.00000000
                                                     2        0.2000000        0.24891756    0.00000000
                                                     2        0.4000000       -0.50800022    0.00000000
                                                     2        0.9000000        0.81480796    0.00000000
                                      D - G
                                                     0        0.0000010       -0.14101855    0.00000000
                                                     2        0.1200000        0.22105937    0.00000000
                                                     2        0.1800000       -0.45814988    0.00000000
                                                     2        0.3000000        0.46029282    0.00000000
                                      F - G
                                                     0        0.0000010        0.07483044    0.00000000
                                                     2        0.1200000       -0.09134252    0.00000000
                                                     2        0.1400000        0.04125459    0.00000000
                                                     2        0.3000000        0.37914837    0.00000000
                                                     2        0.5000000       -0.86881279    0.00000000
   14          1            1
                                      F and up 
                                                     0        0.0000010       -0.00000699    0.00000000
                                                     2        0.1200000        0.00123686    0.00000000
                                                     2        0.1800000       -0.00752022    0.00000000
                                                     2        0.2600000        0.02503380    0.00000000
                                                     2        0.4000000       -0.08702670    0.00000000
                                                     2        0.6000000        0.30134159    0.00000000
                                                     2        0.8000000       -0.50204959    0.00000000
                                                     2        1.2000000        0.52208372    0.00000000
                                      S - F
                                                     0        0.0000010       -0.01618346    0.00000000
                                                     2        0.1200000       -0.07880581    0.00000000
                                                     2        0.1600000        0.32040539    0.00000000
                                                     2        0.2400000       -0.47500956    0.00000000
                                                     2        0.5000000        0.54013668    0.00000000
                                                     2        1.5000000       -1.40434292    0.00000000
                                                     2        3.0000000        1.46283806    0.00000000
                                      P - F
                                                     0        0.0000010        0.00612970    0.00000000
                                                     2        0.1200000        0.02254406    0.00000000
                                                     2        0.1800000       -0.13874529    0.00000000
                                                     2        0.3000000        0.38299049    0.00000000
                                                     2        0.5000000       -0.57923512    0.00000000
                                                     2        1.0000000        0.63021625    0.00000000
                                                     2        2.0000000       -0.79201034    0.00000000
                                      D - F
                                                     0        0.0000010       -0.00296226    0.00000000
                                                     2        0.1200000       -0.00547344    0.00000000
                                                     2        0.1400000        0.01837884    0.00000000
                                                     2        0.2400000       -0.05565704    0.00000000
                                                     2        0.4000000        0.15376597    0.00000000
                                                     2        0.8000000       -0.32464795    0.00000000
   15          1            1
                                      F and up 
                                                     0        0.0000010       -0.00000699    0.00000000
                                                     2        0.1200000        0.00123686    0.00000000
                                                     2        0.1800000       -0.00752022    0.00000000
                                                     2        0.2600000        0.02503380    0.00000000
                                                     2        0.4000000       -0.08702670    0.00000000
                                                     2        0.6000000        0.30134159    0.00000000
                                                     2        0.8000000       -0.50204959    0.00000000
                                                     2        1.2000000        0.52208372    0.00000000
                                      S - F
                                                     0        0.0000010       -0.01618346    0.00000000
                                                     2        0.1200000       -0.07880581    0.00000000
                                                     2        0.1600000        0.32040539    0.00000000
                                                     2        0.2400000       -0.47500956    0.00000000
                                                     2        0.5000000        0.54013668    0.00000000
                                                     2        1.5000000       -1.40434292    0.00000000
                                                     2        3.0000000        1.46283806    0.00000000
                                      P - F
                                                     0        0.0000010        0.00612970    0.00000000
                                                     2        0.1200000        0.02254406    0.00000000
                                                     2        0.1800000       -0.13874529    0.00000000
                                                     2        0.3000000        0.38299049    0.00000000
                                                     2        0.5000000       -0.57923512    0.00000000
                                                     2        1.0000000        0.63021625    0.00000000
                                                     2        2.0000000       -0.79201034    0.00000000
                                      D - F
                                                     0        0.0000010       -0.00296226    0.00000000
                                                     2        0.1200000       -0.00547344    0.00000000
                                                     2        0.1400000        0.01837884    0.00000000
                                                     2        0.2400000       -0.05565704    0.00000000
                                                     2        0.4000000        0.15376597    0.00000000
                                                     2        0.8000000       -0.32464795    0.00000000
 ======================================================================================================
   255 basis functions,   497 primitive gaussians,   271 cartesian basis functions
    41 alpha electrons       41 beta electrons
       nuclear repulsion energy       613.8637347310 Hartrees.
 NAtoms=   15 NActive=   15 NUniq=   15 SFac= 1.00D+00 NAtFMM=   60 NAOKFM=F Big=F
   1 Symmetry operations used in ECPInt.
 ECPInt:  NShTT=    6216 NPrTT=   37936 LenC2=    6161 LenP2D=   26171.
 LDataN:  DoStor=T MaxTD1= 6 Len=  172
 Initial guess from the checkpoint file:  "BDE49_nonexpt_1704_mol1.chk"
 B after Tr=    -0.000000    0.000000   -0.000000
         Rot=    1.000000   -0.000000   -0.000000    0.000000 Ang=   0.00 deg.
 >>>>>>>>>> Convergence criterion not met.
 SCF Done:  E(RHF) =  -1117.84417253     A.U. after    2 cycles
            NFock=  1  Conv=0.41D-02     -V/T= 2.0040

 **********************************************************************

            Population analysis using the SCF Density.

 **********************************************************************

 Orbital symmetries:
       Occupied  (A) (A) (A) (A) (A) (A) (A) (A) (A) (A) (A) (A)
                 (A) (A) (A) (A) (A) (A) (A) (A) (A) (A) (A) (A)
                 (A) (A) (A) (A) (A) (A) (A) (A) (A) (A) (A) (A)
                 (A) (A) (A) (A) (A)
       Virtual   (A) (A) (A) (A) (A) (A) (A) (A) (A) (A) (A) (A)
                 (A) (A) (A) (A) (A) (A) (A) (A) (A) (A) (A) (A)
                 (A) (A) (A) (A) (A) (A) (A) (A) (A) (A) (A) (A)
                 (A) (A) (A) (A) (A) (A) (A) (A) (A) (A) (A) (A)
                 (A) (A) (A) (A) (A) (A) (A) (A) (A) (A) (A) (A)
                 (A) (A) (A) (A) (A) (A) (A) (A) (A) (A) (A) (A)
                 (A) (A) (A) (A) (A) (A) (A) (A) (A) (A) (A) (A)
                 (A) (A) (A) (A) (A) (A) (A) (A) (A) (A) (A) (A)
                 (A) (A) (A) (A) (A) (A) (A) (A) (A) (A) (A) (A)
                 (A) (A) (A) (A) (A) (A) (A) (A) (A) (A) (A) (A)
                 (A) (A) (A) (A) (A) (A) (A) (A) (A) (A) (A) (A)
                 (A) (A) (A) (A) (A) (A) (A) (A) (A) (A) (A) (A)
                 (A) (A) (A) (A) (A) (A) (A) (A) (A) (A) (A) (A)
                 (A) (A) (A) (A) (A) (A) (A) (A) (A) (A) (A) (A)
                 (A) (A) (A) (A) (A) (A) (A) (A) (A) (A) (A) (A)
                 (A) (A) (A) (A) (A) (A) (A) (A) (A) (A) (A) (A)
                 (A) (A) (A) (A) (A) (A) (A) (A) (A) (A) (A) (A)
                 (A) (A) (A) (A) (A) (A) (A) (A) (A) (A)
 The electronic state is 1-A.
 Alpha  occ. eigenvalues --  -93.61084 -81.44632 -20.63604 -20.63084 -20.62600
 Alpha  occ. eigenvalues --  -20.54266 -11.31810 -11.25107  -8.90335  -7.92818
 Alpha  occ. eigenvalues --   -6.24512  -6.24183  -6.23836  -5.07466  -5.07314
 Alpha  occ. eigenvalues --   -5.07018  -1.39595  -1.36301  -1.35559  -1.27741
 Alpha  occ. eigenvalues --   -1.05106  -0.95412  -0.86771  -0.84405  -0.77347
 Alpha  occ. eigenvalues --   -0.72448  -0.69506  -0.66928  -0.66457  -0.62827
 Alpha  occ. eigenvalues --   -0.61719  -0.60837  -0.58533  -0.57705  -0.56063
 Alpha  occ. eigenvalues --   -0.53574  -0.51426  -0.50935  -0.50506  -0.44525
 Alpha  occ. eigenvalues --   -0.40071
 Alpha virt. eigenvalues --    0.02782   0.03893   0.04479   0.04828   0.06266
 Alpha virt. eigenvalues --    0.07096   0.07667   0.08082   0.08945   0.09815
 Alpha virt. eigenvalues --    0.11548   0.12187   0.12906   0.13949   0.14663
 Alpha virt. eigenvalues --    0.15097   0.15349   0.15958   0.16561   0.16788
 Alpha virt. eigenvalues --    0.17476   0.19765   0.20184   0.20532   0.21536
 Alpha virt. eigenvalues --    0.22053   0.22832   0.23491   0.24604   0.26035
 Alpha virt. eigenvalues --    0.27127   0.27525   0.27940   0.29119   0.29491
 Alpha virt. eigenvalues --    0.29926   0.30317   0.31581   0.32257   0.32938
 Alpha virt. eigenvalues --    0.33338   0.34180   0.34990   0.36738   0.37020
 Alpha virt. eigenvalues --    0.38234   0.38888   0.39094   0.40662   0.40972
 Alpha virt. eigenvalues --    0.42289   0.43334   0.44646   0.44985   0.45185
 Alpha virt. eigenvalues --    0.46164   0.47317   0.48061   0.48866   0.49422
 Alpha virt. eigenvalues --    0.50541   0.51832   0.52893   0.54598   0.54952
 Alpha virt. eigenvalues --    0.56213   0.56752   0.58437   0.58612   0.59013
 Alpha virt. eigenvalues --    0.59780   0.60681   0.61474   0.62868   0.63686
 Alpha virt. eigenvalues --    0.64079   0.64880   0.65977   0.67936   0.68721
 Alpha virt. eigenvalues --    0.69374   0.70074   0.71973   0.72370   0.74263
 Alpha virt. eigenvalues --    0.76421   0.76677   0.78362   0.79271   0.81500
 Alpha virt. eigenvalues --    0.82696   0.85593   0.87535   0.88601   0.88741
 Alpha virt. eigenvalues --    0.90532   0.90744   0.94416   0.94930   0.95440
 Alpha virt. eigenvalues --    0.98828   0.99704   1.01509   1.01732   1.04164
 Alpha virt. eigenvalues --    1.04926   1.06454   1.07733   1.10962   1.12734
 Alpha virt. eigenvalues --    1.14225   1.14432   1.15840   1.17311   1.18072
 Alpha virt. eigenvalues --    1.20800   1.21066   1.21768   1.25573   1.26462
 Alpha virt. eigenvalues --    1.29124   1.29923   1.30361   1.31867   1.33451
 Alpha virt. eigenvalues --    1.34680   1.36935   1.37687   1.40337   1.42483
 Alpha virt. eigenvalues --    1.43241   1.45618   1.46292   1.47354   1.51340
 Alpha virt. eigenvalues --    1.53625   1.54054   1.55819   1.57213   1.63176
 Alpha virt. eigenvalues --    1.63460   1.64772   1.66789   1.69355   1.70335
 Alpha virt. eigenvalues --    1.71884   1.75878   1.80146   1.81555   1.82514
 Alpha virt. eigenvalues --    1.85429   1.89424   1.90396   1.92151   1.94300
 Alpha virt. eigenvalues --    1.97804   1.99020   2.01108   2.05966   2.07833
 Alpha virt. eigenvalues --    2.08162   2.11042   2.13047   2.17510   2.17877
 Alpha virt. eigenvalues --    2.19827   2.23879   2.24232   2.27501   2.28102
 Alpha virt. eigenvalues --    2.30741   2.32776   2.37882   2.45435   2.46659
 Alpha virt. eigenvalues --    2.47825   2.52488   2.56092   2.57838   2.62133
 Alpha virt. eigenvalues --    2.69264   2.70228   2.77728   2.83678   2.86037
 Alpha virt. eigenvalues --    2.87830   2.93455   2.97968   3.03446   3.05500
 Alpha virt. eigenvalues --    3.06812   3.09144   3.19385   3.27754   3.48769
 Alpha virt. eigenvalues --    3.50810   3.52337   3.53672   3.55257   3.56374
 Alpha virt. eigenvalues --    3.57897   3.58738   3.59166   3.62777   3.65499
 Alpha virt. eigenvalues --    3.65947   3.67165   3.72894   3.77864   3.81434
 Alpha virt. eigenvalues --    3.81834   3.89714   4.09187   4.11336
          Condensed to atoms (all electrons):
 Mulliken charges:
               1
     1  S    0.165293
     2  P    2.133440
     3  O   -0.849686
     4  O   -0.729139
     5  O   -0.935207
     6  C    0.803010
     7  C    0.157553
     8  H   -0.189717
     9  H   -0.163664
    10  H   -0.053442
    11  H   -0.021332
    12  H   -0.071905
    13  O   -0.706323
    14  H    0.269412
    15  H    0.191707
 Sum of Mulliken charges =   0.00000
 Mulliken charges with hydrogens summed into heavy atoms:
               1
     1  S    0.165293
     2  P    2.133440
     3  O   -0.849686
     4  O   -0.537431
     5  O   -0.935207
     6  C    0.449629
     7  C    0.010873
    13  O   -0.436911
 Electronic spatial extent (au):  <R**2>=           1476.7875
 Charge=              0.0000 electrons
 Dipole moment (field-independent basis, Debye):
    X=              4.9351    Y=             -0.7927    Z=             -2.4225  Tot=              5.5545

 Test job not archived.
 1\1\GINC-SE424\SP\RHF\Aug-CC-pVDZ\C2H7O4P1S1\OHZDE\08-Apr-2025\0\\#t h
 f aug-cc-pvdz iop(5/13=1,5/36=2,99/5=2) pseudo=read geom=check guess=(
 read,tcheck) scf=(maxcycle=1)\\title\\0,1\S,0,0.00166,1.402681,-0.1096
 4\P,0,-1.395619,-0.191114,0.035857\O,0,-2.769536,0.29965,-0.046092\O,0
 ,-0.996828,-1.285071,-1.077409\O,0,1.354713,0.530304,0.462659\C,0,2.23
 1426,-0.005485,-0.566406\C,0,3.385796,-0.682061,0.145395\H,0,2.577996,
 0.819388,-1.195652\H,0,1.66813,-0.708877,-1.185604\H,0,3.919629,0.0280
 49,0.779969\H,0,4.086829,-1.083773,-0.591154\H,0,3.033902,-1.509142,0.
 766177\O,0,-0.918854,-0.938042,1.35226\H,0,0.011177,-0.736228,1.55095\
 H,0,-1.449229,-1.115063,-1.913566\\Version=ES64L-G16RevC.01\State=1-A\
 HF=-1117.8441725\RMSD=4.098e-03\Dipole=1.9416362,-0.3118775,-0.9530969
 \Quadrupole=-4.0921067,-0.3384444,4.4305511,0.6195982,2.0824071,0.5636
 867\PG=C01 [X(C2H7O4P1S1)]\\@


 A MAN BEGINS CUTTING HIS WISDOM TEETH THE 1ST
 TIME HE BITES OFF MORE THAN HE CAN CHEW.
 Job cpu time:       0 days  0 hours  1 minutes 18.2 seconds.
 Elapsed time:       0 days  0 hours  0 minutes  6.0 seconds.
 File lengths (MBytes):  RWF=     14 Int=      0 D2E=      0 Chk=     10 Scr=      1
 Normal termination of Gaussian 16 at Tue Apr  8 23:42:57 2025.
