 Entering Gaussian System, Link 0=g16
 Input=BDE49_expt_1849_mol1.gjf
 Output=BDE49_expt_1849_mol1.log
 Initial command:
 /arc/software/Gaussian/g16.c01/l1.exe "/tmp/slurm/4842477/Gau-201805.inp" -scrdir="/tmp/slurm/4842477/"
 Entering Link 1 = /arc/software/Gaussian/g16.c01/l1.exe PID=    201806.
  
 Copyright (c) 1988-2019, Gaussian, Inc.  All Rights Reserved.
  
 This is part of the Gaussian(R) 16 program.  It is based on
 the Gaussian(R) 09 system (copyright 2009, Gaussian, Inc.),
 the Gaussian(R) 03 system (copyright 2003, Gaussian, Inc.),
 the Gaussian(R) 98 system (copyright 1998, Gaussian, Inc.),
 the Gaussian(R) 94 system (copyright 1995, Gaussian, Inc.),
 the Gaussian 92(TM) system (copyright 1992, Gaussian, Inc.),
 the Gaussian 90(TM) system (copyright 1990, Gaussian, Inc.),
 the Gaussian 88(TM) system (copyright 1988, Gaussian, Inc.),
 the Gaussian 86(TM) system (copyright 1986, Carnegie Mellon
 University), and the Gaussian 82(TM) system (copyright 1983,
 Carnegie Mellon University). Gaussian is a federally registered
 trademark of Gaussian, Inc.
  
 This software contains proprietary and confidential information,
 including trade secrets, belonging to Gaussian, Inc.
  
 This software is provided under written license and may be
 used, copied, transmitted, or stored only in accord with that
 written license.
  
 The following legend is applicable only to US Government
 contracts under FAR:
  
                    RESTRICTED RIGHTS LEGEND
  
 Use, reproduction and disclosure by the US Government is
 subject to restrictions as set forth in subparagraphs (a)
 and (c) of the Commercial Computer Software - Restricted
 Rights clause in FAR 52.227-19.
  
 Gaussian, Inc.
 340 Quinnipiac St., Bldg. 40, Wallingford CT 06492
  
  
 ---------------------------------------------------------------
 Warning -- This program may not be used in any manner that
 competes with the business of Gaussian, Inc. or will provide
 assistance to any competitor of Gaussian, Inc.  The licensee
 of this program is prohibited from giving any competitor of
 Gaussian, Inc. access to this program.  By using this program,
 the user acknowledges that Gaussian, Inc. is engaged in the
 business of creating and licensing software in the field of
 computational chemistry and represents and warrants to the
 licensee that it is not a competitor of Gaussian, Inc. and that
 it will not use this program in any manner prohibited above.
 ---------------------------------------------------------------
  

 Cite this work as:
 Gaussian 16, Revision C.01,
 M. J. Frisch, G. W. Trucks, H. B. Schlegel, G. E. Scuseria, 
 M. A. Robb, J. R. Cheeseman, G. Scalmani, V. Barone, 
 G. A. Petersson, H. Nakatsuji, X. Li, M. Caricato, A. V. Marenich, 
 J. Bloino, B. G. Janesko, R. Gomperts, B. Mennucci, H. P. Hratchian, 
 J. V. Ortiz, A. F. Izmaylov, J. L. Sonnenberg, D. Williams-Young, 
 F. Ding, F. Lipparini, F. Egidi, J. Goings, B. Peng, A. Petrone, 
 T. Henderson, D. Ranasinghe, V. G. Zakrzewski, J. Gao, N. Rega, 
 G. Zheng, W. Liang, M. Hada, M. Ehara, K. Toyota, R. Fukuda, 
 J. Hasegawa, M. Ishida, T. Nakajima, Y. Honda, O. Kitao, H. Nakai, 
 T. Vreven, K. Throssell, J. A. Montgomery, Jr., J. E. Peralta, 
 F. Ogliaro, M. J. Bearpark, J. J. Heyd, E. N. Brothers, K. N. Kudin, 
 V. N. Staroverov, T. A. Keith, R. Kobayashi, J. Normand, 
 K. Raghavachari, A. P. Rendell, J. C. Burant, S. S. Iyengar, 
 J. Tomasi, M. Cossi, J. M. Millam, M. Klene, C. Adamo, R. Cammi, 
 J. W. Ochterski, R. L. Martin, K. Morokuma, O. Farkas, 
 J. B. Foresman, and D. J. Fox, Gaussian, Inc., Wallingford CT, 2019.
 
 ******************************************
 Gaussian 16:  ES64L-G16RevC.01  3-Jul-2019
                 8-Apr-2025 
 ******************************************
 %nprocs=16
 Will use up to   16 processors via shared memory.
 %mem=30GB
 %chk=BDE49_expt_1849_mol1.chk
 ----------------------------------------------------------------------
 #t hf aug-cc-pvdz symm=none int=(grid=ultrafine) guess=(read,tcheck) s
 table=(opt,rrhf)
 ----------------------------------------------------------------------
 -----
 title
 -----
 Symbolic Z-matrix:
 Charge =  0 Multiplicity = 1
 O                     2.80876   0.24614   0.06708 
 O                     1.50423  -0.39145   0.05968 
 H                     3.17825  -0.10803  -0.7534 
 C                     0.53556   0.64324  -0.0951 
 C                    -0.8651    0.0125   -0.00361 
 C                    -1.04842  -1.03361  -1.11878 
 H                    -0.91828  -0.58138  -2.10722 
 H                    -2.05299  -1.46472  -1.07798 
 H                    -0.32493  -1.84525  -1.0213 
 C                    -1.88823   1.14835  -0.18588 
 H                    -1.77621   1.6357   -1.1593 
 H                    -1.77941   1.9121    0.5901 
 H                    -2.90672   0.75451  -0.12546 
 C                    -1.05789  -0.64391   1.37584 
 H                    -0.32522  -1.4356    1.54104 
 H                    -2.05897  -1.0778    1.45636 
 H                    -0.94485   0.09105   2.17875 
 H                     0.675     1.1345   -1.06749 
 H                     0.67488   1.38792   0.69698 
 
                    Distance matrix (angstroms):
                    1          2          3          4          5
     1  O    0.000000
     2  O    1.452029   0.000000
     3  H    0.967022   1.882494   0.000000
     4  C    2.313323   1.425784   2.825176   0.000000
     5  C    3.681962   2.404347   4.114049   1.538843   0.000000
     6  C    4.233424   2.883949   4.342230   2.523637   1.539987
     7  H    4.393538   3.255774   4.340331   2.768025   2.186475
     8  H    5.279664   3.885871   5.414043   3.479963   2.178886
     9  H    3.921545   2.574468   3.919439   2.791213   2.186022
    10  C    4.789539   3.733633   5.250694   2.477518   1.539536
    11  H    4.945383   4.044316   5.268020   2.731620   2.191009
    12  H    4.909206   4.045979   5.519450   2.727372   2.190193
    13  H    5.741277   4.561135   6.177797   3.444207   2.175695
    14  C    4.178045   2.891444   4.771343   2.521801   1.539784
    15  H    3.850021   2.575178   4.393310   2.781989   2.185044
    16  H    5.232379   3.888210   5.766455   3.478586   2.178438
    17  H    4.309621   3.274327   5.063307   2.768913   2.185227
    18  H    2.574753   2.070420   2.812259   1.098330   2.182345
    19  H    2.500781   2.064001   3.257045   1.096054   2.180395
                    6          7          8          9         10
     6  C    0.000000
     7  H    1.094736   0.000000
     8  H    1.093930   1.768381   0.000000
     9  H    1.091646   1.768795   1.770366   0.000000
    10  C    2.517247   2.761211   2.766069   3.479000   0.000000
    11  H    2.767046   2.559303   3.113815   3.773890   1.094350
    12  H    3.483079   3.772861   3.776278   4.339329   1.094211
    13  H    2.763577   3.108996   2.561477   3.771858   1.093657
    14  C    2.524900   3.486417   2.772225   2.779700   2.518063
    15  H    2.785547   3.793571   3.137728   2.594877   3.478804
    16  H    2.766682   3.774476   2.563717   3.120044   2.771612
    17  H    3.485584   4.338473   3.775540   3.791286   2.756685
    18  H    2.770107   2.561992   3.768020   3.143386   2.710639
    19  H    3.482891   3.778860   4.327735   3.795451   2.721458
                   11         12         13         14         15
    11  H    0.000000
    12  H    1.771097   0.000000
    13  H    1.767308   1.767162   0.000000
    14  C    3.484187   2.769693   2.761825   0.000000
    15  H    4.339368   3.771752   3.773326   1.091273   0.000000
    16  H    3.779509   3.125390   2.564796   1.094035   1.772319
    17  H    3.770896   2.556666   3.098142   1.094348   1.766718
    18  H    2.503609   3.062090   3.722974   3.483607   3.796087
    19  H    3.084636   2.511915   3.728999   2.755294   3.112054
                   16         17         18         19
    16  H    0.000000
    17  H    1.768988   0.000000
    18  H    4.328819   3.775018   0.000000
    19  H    3.759033   2.549708   1.782577   0.000000
 Symmetry turned off by external request.
 Rotational constants (GHZ):           4.2219664           1.4938497           1.4802723
   269 basis functions,   433 primitive gaussians,   283 cartesian basis functions
    29 alpha electrons       29 beta electrons
       nuclear repulsion energy       338.2906506372 Hartrees.
 NAtoms=   19 NActive=   19 NUniq=   19 SFac= 1.00D+00 NAtFMM=   60 NAOKFM=F Big=F
 ExpMin= 2.97D-02 ExpMax= 1.17D+04 ExpMxC= 4.01D+02 IAcc=3 IRadAn=         5 AccDes= 0.00D+00
 Harris functional with IExCor=  205 and IRadAn=       5 diagonalized for initial guess.
 HarFok:  IExCor=  205 AccDes= 0.00D+00 IRadAn=         5 IDoV= 1 UseB2=F ITyADJ=14
 ICtDFT=  3500011 ScaDFX=  1.000000  1.000000  1.000000  1.000000
 FoFCou: FMM=F IPFlag=           0 FMFlag=      100000 FMFlg1=           0
         NFxFlg=           0 DoJE=T BraDBF=F KetDBF=T FulRan=T
         wScrn=  0.000000 ICntrl=       500 IOpCl=  0 I1Cent=   200000004 NGrid=           0
         NMat0=    1 NMatS0=      1 NMatT0=    0 NMatD0=    1 NMtDS0=    0 NMtDT0=    0
 Symmetry not used in FoFCou.
 SCF Done:  E(RHF) =  -345.990589594     A.U. after   14 cycles
            NFock= 14  Conv=0.33D-08     -V/T= 2.0015

 **********************************************************************

            Population analysis using the SCF Density.

 **********************************************************************

 Alpha  occ. eigenvalues --  -20.63081 -20.62869 -11.28294 -11.24683 -11.22478
 Alpha  occ. eigenvalues --  -11.21896 -11.21653  -1.47318  -1.23215  -1.09728
 Alpha  occ. eigenvalues --   -0.93667  -0.93254  -0.90908  -0.74702  -0.71732
 Alpha  occ. eigenvalues --   -0.65875  -0.65090  -0.62231  -0.58820  -0.58332
 Alpha  occ. eigenvalues --   -0.56390  -0.53722  -0.52582  -0.51419  -0.49458
 Alpha  occ. eigenvalues --   -0.46746  -0.46040  -0.45723  -0.44189
 Alpha virt. eigenvalues --    0.03481   0.04227   0.04694   0.04929   0.06258
 Alpha virt. eigenvalues --    0.06772   0.06982   0.07146   0.07497   0.08960
 Alpha virt. eigenvalues --    0.09310   0.09499   0.12419   0.13657   0.14313
 Alpha virt. eigenvalues --    0.14745   0.15793   0.16506   0.16739   0.17177
 Alpha virt. eigenvalues --    0.17962   0.18562   0.19047   0.19834   0.19993
 Alpha virt. eigenvalues --    0.20631   0.21132   0.21670   0.21940   0.22428
 Alpha virt. eigenvalues --    0.22595   0.23325   0.24434   0.26012   0.28080
 Alpha virt. eigenvalues --    0.29160   0.30095   0.30515   0.31818   0.32621
 Alpha virt. eigenvalues --    0.33234   0.34170   0.34628   0.36698   0.38245
 Alpha virt. eigenvalues --    0.38945   0.39042   0.39861   0.40862   0.41110
 Alpha virt. eigenvalues --    0.42221   0.42955   0.43476   0.45051   0.45647
 Alpha virt. eigenvalues --    0.46846   0.47091   0.48066   0.48272   0.48766
 Alpha virt. eigenvalues --    0.49615   0.50069   0.50469   0.50773   0.51086
 Alpha virt. eigenvalues --    0.52314   0.53302   0.54107   0.56013   0.56774
 Alpha virt. eigenvalues --    0.57145   0.57258   0.58623   0.58971   0.60429
 Alpha virt. eigenvalues --    0.60775   0.61644   0.62016   0.63990   0.64640
 Alpha virt. eigenvalues --    0.65493   0.66107   0.66733   0.67154   0.68478
 Alpha virt. eigenvalues --    0.69332   0.69972   0.71162   0.71430   0.72462
 Alpha virt. eigenvalues --    0.73054   0.73488   0.74727   0.76290   0.77520
 Alpha virt. eigenvalues --    0.77617   0.78576   0.81655   0.82029   0.83825
 Alpha virt. eigenvalues --    0.84837   0.85190   0.85998   0.87744   0.88934
 Alpha virt. eigenvalues --    0.89337   0.89967   0.90616   0.91706   0.92384
 Alpha virt. eigenvalues --    0.93609   0.93715   0.94376   0.95839   0.97044
 Alpha virt. eigenvalues --    1.00583   1.02486   1.04311   1.07256   1.08623
 Alpha virt. eigenvalues --    1.10427   1.10609   1.11027   1.13191   1.15561
 Alpha virt. eigenvalues --    1.16670   1.19751   1.21957   1.23173   1.25855
 Alpha virt. eigenvalues --    1.27782   1.28606   1.29646   1.32984   1.34367
 Alpha virt. eigenvalues --    1.36800   1.38690   1.40136   1.41430   1.43268
 Alpha virt. eigenvalues --    1.44707   1.48594   1.52531   1.55750   1.56145
 Alpha virt. eigenvalues --    1.57801   1.59160   1.60134   1.64542   1.65090
 Alpha virt. eigenvalues --    1.66075   1.70731   1.70851   1.72213   1.76302
 Alpha virt. eigenvalues --    1.78780   1.79254   1.82079   1.83190   1.84423
 Alpha virt. eigenvalues --    1.86073   1.89587   1.91780   1.93284   1.94041
 Alpha virt. eigenvalues --    1.98623   2.01394   2.03732   2.04429   2.05600
 Alpha virt. eigenvalues --    2.05991   2.09946   2.10402   2.11734   2.13670
 Alpha virt. eigenvalues --    2.15115   2.15385   2.17804   2.19774   2.21678
 Alpha virt. eigenvalues --    2.23467   2.27735   2.29412   2.29952   2.32099
 Alpha virt. eigenvalues --    2.32158   2.33278   2.35039   2.35472   2.37169
 Alpha virt. eigenvalues --    2.38499   2.41185   2.45182   2.47384   2.48499
 Alpha virt. eigenvalues --    2.51227   2.54157   2.56094   2.57951   2.58607
 Alpha virt. eigenvalues --    2.61217   2.63170   2.63538   2.63723   2.64547
 Alpha virt. eigenvalues --    2.67823   2.68361   2.76325   2.79143   2.81554
 Alpha virt. eigenvalues --    2.85684   2.86512   2.88495   2.90238   2.92044
 Alpha virt. eigenvalues --    2.93445   2.97116   2.99342   3.01901   3.06633
 Alpha virt. eigenvalues --    3.09940   3.12705   3.23506   3.27236   3.28558
 Alpha virt. eigenvalues --    3.32987   3.47698   3.52176   3.54239   3.68892
 Alpha virt. eigenvalues --    3.71099   3.78504   3.80157   3.85237   3.87468
 Alpha virt. eigenvalues --    3.90768   3.99813   4.02539   4.27517   4.44981
          Condensed to atoms (all electrons):
 Mulliken charges:
               1
     1  O   -0.310504
     2  O   -0.566495
     3  H    0.216301
     4  C    1.778532
     5  C   -4.472354
     6  C    1.258245
     7  H   -0.023603
     8  H   -0.027517
     9  H   -0.012698
    10  C    1.318116
    11  H   -0.036886
    12  H   -0.035034
    13  H   -0.021202
    14  C    1.285775
    15  H    0.004088
    16  H   -0.026304
    17  H   -0.030295
    18  H   -0.152653
    19  H   -0.145512
 Sum of Mulliken charges =  -0.00000
 Mulliken charges with hydrogens summed into heavy atoms:
               1
     1  O   -0.094203
     2  O   -0.566495
     4  C    1.480366
     5  C   -4.472354
     6  C    1.194427
    10  C    1.224994
    14  C    1.233265
 Electronic spatial extent (au):  <R**2>=            949.1007
 Charge=             -0.0000 electrons
 Dipole moment (field-independent basis, Debye):
    X=             -0.8160    Y=              0.4444    Z=             -1.4988  Tot=              1.7635
 NROrb=    269 NOA=    29 NOB=    29 NVA=   240 NVB=   240

 **** Warning!!: The largest alpha MO coefficient is  0.10237329D+03

    12 initial guesses have been made.
 Iteration     1 Dimension    12 NMult     0 NNew     12
 Iteration     2 Dimension    24 NMult    12 NNew     12
 Iteration     3 Dimension    27 NMult    24 NNew      3
 Iteration     4 Dimension    30 NMult    27 NNew      3
 Iteration     5 Dimension    33 NMult    30 NNew      3
 Iteration     6 Dimension    36 NMult    33 NNew      3
 Iteration     7 Dimension    39 NMult    36 NNew      3
 Iteration     8 Dimension    42 NMult    39 NNew      3
 Iteration     9 Dimension    45 NMult    42 NNew      3
 ***********************************************************************
 Stability analysis using <AA,BB:AA,BB> singles matrix:
 ***********************************************************************
 Ground to excited state transition densities written to RWF  633

 Eigenvectors of the stability matrix:
 
 Excited state symmetry could not be determined.
 Eigenvector   1:      Singlet-?Sym  Eigenvalue= 0.2579695  <S**2>=0.000
      25 -> 65         0.10029
      26 -> 65        -0.13971
      29 -> 44         0.10459
      29 -> 50        -0.12909
      29 -> 51         0.20854
      29 -> 52        -0.11095
      29 -> 54         0.12546
      29 -> 56        -0.16205
      29 -> 61        -0.13328
      29 -> 65         0.29630
      29 -> 68        -0.10179
 The wavefunction is stable under the perturbations considered.
 The wavefunction is already stable.

 **********************************************************************

            Population analysis using the SCF Density.

 **********************************************************************

 Alpha  occ. eigenvalues --  -20.63081 -20.62869 -11.28294 -11.24683 -11.22478
 Alpha  occ. eigenvalues --  -11.21896 -11.21653  -1.47318  -1.23215  -1.09728
 Alpha  occ. eigenvalues --   -0.93667  -0.93254  -0.90908  -0.74702  -0.71732
 Alpha  occ. eigenvalues --   -0.65875  -0.65090  -0.62231  -0.58820  -0.58332
 Alpha  occ. eigenvalues --   -0.56390  -0.53722  -0.52582  -0.51419  -0.49458
 Alpha  occ. eigenvalues --   -0.46746  -0.46040  -0.45723  -0.44189
 Alpha virt. eigenvalues --    0.03481   0.04227   0.04694   0.04929   0.06258
 Alpha virt. eigenvalues --    0.06772   0.06982   0.07146   0.07497   0.08960
 Alpha virt. eigenvalues --    0.09310   0.09499   0.12419   0.13657   0.14313
 Alpha virt. eigenvalues --    0.14745   0.15793   0.16506   0.16739   0.17177
 Alpha virt. eigenvalues --    0.17962   0.18562   0.19047   0.19834   0.19993
 Alpha virt. eigenvalues --    0.20631   0.21132   0.21670   0.21940   0.22428
 Alpha virt. eigenvalues --    0.22595   0.23325   0.24434   0.26012   0.28080
 Alpha virt. eigenvalues --    0.29160   0.30095   0.30515   0.31818   0.32621
 Alpha virt. eigenvalues --    0.33234   0.34170   0.34628   0.36698   0.38245
 Alpha virt. eigenvalues --    0.38945   0.39042   0.39861   0.40862   0.41110
 Alpha virt. eigenvalues --    0.42221   0.42955   0.43476   0.45051   0.45647
 Alpha virt. eigenvalues --    0.46846   0.47091   0.48066   0.48272   0.48766
 Alpha virt. eigenvalues --    0.49615   0.50069   0.50469   0.50773   0.51086
 Alpha virt. eigenvalues --    0.52314   0.53302   0.54107   0.56013   0.56774
 Alpha virt. eigenvalues --    0.57145   0.57258   0.58623   0.58971   0.60429
 Alpha virt. eigenvalues --    0.60775   0.61644   0.62016   0.63990   0.64640
 Alpha virt. eigenvalues --    0.65493   0.66107   0.66733   0.67154   0.68478
 Alpha virt. eigenvalues --    0.69332   0.69972   0.71162   0.71430   0.72462
 Alpha virt. eigenvalues --    0.73054   0.73488   0.74727   0.76290   0.77520
 Alpha virt. eigenvalues --    0.77617   0.78576   0.81655   0.82029   0.83825
 Alpha virt. eigenvalues --    0.84837   0.85190   0.85998   0.87744   0.88934
 Alpha virt. eigenvalues --    0.89337   0.89967   0.90616   0.91706   0.92384
 Alpha virt. eigenvalues --    0.93609   0.93715   0.94376   0.95839   0.97044
 Alpha virt. eigenvalues --    1.00583   1.02486   1.04311   1.07256   1.08623
 Alpha virt. eigenvalues --    1.10427   1.10609   1.11027   1.13191   1.15561
 Alpha virt. eigenvalues --    1.16670   1.19751   1.21957   1.23173   1.25855
 Alpha virt. eigenvalues --    1.27782   1.28606   1.29646   1.32984   1.34367
 Alpha virt. eigenvalues --    1.36800   1.38690   1.40136   1.41430   1.43268
 Alpha virt. eigenvalues --    1.44707   1.48594   1.52531   1.55750   1.56145
 Alpha virt. eigenvalues --    1.57801   1.59160   1.60134   1.64542   1.65090
 Alpha virt. eigenvalues --    1.66075   1.70731   1.70851   1.72213   1.76302
 Alpha virt. eigenvalues --    1.78780   1.79254   1.82079   1.83190   1.84423
 Alpha virt. eigenvalues --    1.86073   1.89587   1.91780   1.93284   1.94041
 Alpha virt. eigenvalues --    1.98623   2.01394   2.03732   2.04429   2.05600
 Alpha virt. eigenvalues --    2.05991   2.09946   2.10402   2.11734   2.13670
 Alpha virt. eigenvalues --    2.15115   2.15385   2.17804   2.19774   2.21678
 Alpha virt. eigenvalues --    2.23467   2.27735   2.29412   2.29952   2.32099
 Alpha virt. eigenvalues --    2.32158   2.33278   2.35039   2.35472   2.37169
 Alpha virt. eigenvalues --    2.38499   2.41185   2.45182   2.47384   2.48499
 Alpha virt. eigenvalues --    2.51227   2.54157   2.56094   2.57951   2.58607
 Alpha virt. eigenvalues --    2.61217   2.63170   2.63538   2.63723   2.64547
 Alpha virt. eigenvalues --    2.67823   2.68361   2.76325   2.79143   2.81554
 Alpha virt. eigenvalues --    2.85684   2.86512   2.88495   2.90238   2.92044
 Alpha virt. eigenvalues --    2.93445   2.97116   2.99342   3.01901   3.06633
 Alpha virt. eigenvalues --    3.09940   3.12705   3.23506   3.27236   3.28558
 Alpha virt. eigenvalues --    3.32987   3.47698   3.52176   3.54239   3.68892
 Alpha virt. eigenvalues --    3.71099   3.78504   3.80157   3.85237   3.87468
 Alpha virt. eigenvalues --    3.90768   3.99813   4.02539   4.27517   4.44981
          Condensed to atoms (all electrons):
 Mulliken charges:
               1
     1  O   -0.310504
     2  O   -0.566495
     3  H    0.216301
     4  C    1.778532
     5  C   -4.472354
     6  C    1.258245
     7  H   -0.023603
     8  H   -0.027517
     9  H   -0.012698
    10  C    1.318116
    11  H   -0.036886
    12  H   -0.035034
    13  H   -0.021202
    14  C    1.285775
    15  H    0.004088
    16  H   -0.026304
    17  H   -0.030295
    18  H   -0.152653
    19  H   -0.145512
 Sum of Mulliken charges =  -0.00000
 Mulliken charges with hydrogens summed into heavy atoms:
               1
     1  O   -0.094203
     2  O   -0.566495
     4  C    1.480366
     5  C   -4.472354
     6  C    1.194427
    10  C    1.224994
    14  C    1.233265
 Electronic spatial extent (au):  <R**2>=            949.1007
 Charge=             -0.0000 electrons
 Dipole moment (field-independent basis, Debye):
    X=             -0.8160    Y=              0.4444    Z=             -1.4988  Tot=              1.7635
 Unable to Open any file for archive entry.
 1\1\GINC-SE329\Stability\RHF\Aug-CC-pVDZ\C5H12O2\OHZDE\08-Apr-2025\0\\
 #t hf aug-cc-pvdz symm=none int=(grid=ultrafine) guess=(read,tcheck) s
 table=(opt,rrhf)\\title\\0,1\O,0,2.808763,0.246142,0.067075\O,0,1.5042
 27,-0.391446,0.059684\H,0,3.178253,-0.10803,-0.753395\C,0,0.535555,0.6
 43242,-0.095095\C,0,-0.865099,0.012499,-0.00361\C,0,-1.048419,-1.03361
 ,-1.118783\H,0,-0.91828,-0.581379,-2.107215\H,0,-2.052989,-1.464721,-1
 .077985\H,0,-0.324932,-1.845247,-1.0213\C,0,-1.888227,1.14835,-0.18588
 1\H,0,-1.776207,1.635702,-1.159298\H,0,-1.77941,1.912103,0.590095\H,0,
 -2.90672,0.754513,-0.125459\C,0,-1.057888,-0.64391,1.375844\H,0,-0.325
 216,-1.435604,1.541039\H,0,-2.058974,-1.077796,1.456359\H,0,-0.944851,
 0.09105,2.178748\H,0,0.675001,1.134497,-1.06749\H,0,0.674876,1.387916,
 0.696981\\Version=ES64L-G16RevC.01\HF=-345.9905896\RMSD=3.282e-09\Dipo
 le=-0.3210283,0.1748439,-0.589684\Quadrupole=0.2210063,-0.649748,0.428
 7416,-0.4743634,-3.8283407,0.2631903\PG=Unknown\\@
 The archive entry for this job was punched.


 HONESTY IN A LAWYER IS LIKE A HEN'S HIND LEGS.
  -- MAGNUS OLESON, LAKE WOBEGON PATRIARCH, C.1875
 Job cpu time:       0 days  0 hours 13 minutes 43.4 seconds.
 Elapsed time:       0 days  0 hours  0 minutes 57.0 seconds.
 File lengths (MBytes):  RWF=    301 Int=      0 D2E=      0 Chk=     10 Scr=      1
 Normal termination of Gaussian 16 at Tue Apr  8 22:53:33 2025.
 Initial command:
 /arc/software/Gaussian/g16.c01/l1.exe "/tmp/slurm/4842477/Gau-201805.inp" -scrdir="/tmp/slurm/4842477/"
 Entering Link 1 = /arc/software/Gaussian/g16.c01/l1.exe PID=    202033.
  
 Copyright (c) 1988-2019, Gaussian, Inc.  All Rights Reserved.
  
 This is part of the Gaussian(R) 16 program.  It is based on
 the Gaussian(R) 09 system (copyright 2009, Gaussian, Inc.),
 the Gaussian(R) 03 system (copyright 2003, Gaussian, Inc.),
 the Gaussian(R) 98 system (copyright 1998, Gaussian, Inc.),
 the Gaussian(R) 94 system (copyright 1995, Gaussian, Inc.),
 the Gaussian 92(TM) system (copyright 1992, Gaussian, Inc.),
 the Gaussian 90(TM) system (copyright 1990, Gaussian, Inc.),
 the Gaussian 88(TM) system (copyright 1988, Gaussian, Inc.),
 the Gaussian 86(TM) system (copyright 1986, Carnegie Mellon
 University), and the Gaussian 82(TM) system (copyright 1983,
 Carnegie Mellon University). Gaussian is a federally registered
 trademark of Gaussian, Inc.
  
 This software contains proprietary and confidential information,
 including trade secrets, belonging to Gaussian, Inc.
  
 This software is provided under written license and may be
 used, copied, transmitted, or stored only in accord with that
 written license.
  
 The following legend is applicable only to US Government
 contracts under FAR:
  
                    RESTRICTED RIGHTS LEGEND
  
 Use, reproduction and disclosure by the US Government is
 subject to restrictions as set forth in subparagraphs (a)
 and (c) of the Commercial Computer Software - Restricted
 Rights clause in FAR 52.227-19.
  
 Gaussian, Inc.
 340 Quinnipiac St., Bldg. 40, Wallingford CT 06492
  
  
 ---------------------------------------------------------------
 Warning -- This program may not be used in any manner that
 competes with the business of Gaussian, Inc. or will provide
 assistance to any competitor of Gaussian, Inc.  The licensee
 of this program is prohibited from giving any competitor of
 Gaussian, Inc. access to this program.  By using this program,
 the user acknowledges that Gaussian, Inc. is engaged in the
 business of creating and licensing software in the field of
 computational chemistry and represents and warrants to the
 licensee that it is not a competitor of Gaussian, Inc. and that
 it will not use this program in any manner prohibited above.
 ---------------------------------------------------------------
  

 Cite this work as:
 Gaussian 16, Revision C.01,
 M. J. Frisch, G. W. Trucks, H. B. Schlegel, G. E. Scuseria, 
 M. A. Robb, J. R. Cheeseman, G. Scalmani, V. Barone, 
 G. A. Petersson, H. Nakatsuji, X. Li, M. Caricato, A. V. Marenich, 
 J. Bloino, B. G. Janesko, R. Gomperts, B. Mennucci, H. P. Hratchian, 
 J. V. Ortiz, A. F. Izmaylov, J. L. Sonnenberg, D. Williams-Young, 
 F. Ding, F. Lipparini, F. Egidi, J. Goings, B. Peng, A. Petrone, 
 T. Henderson, D. Ranasinghe, V. G. Zakrzewski, J. Gao, N. Rega, 
 G. Zheng, W. Liang, M. Hada, M. Ehara, K. Toyota, R. Fukuda, 
 J. Hasegawa, M. Ishida, T. Nakajima, Y. Honda, O. Kitao, H. Nakai, 
 T. Vreven, K. Throssell, J. A. Montgomery, Jr., J. E. Peralta, 
 F. Ogliaro, M. J. Bearpark, J. J. Heyd, E. N. Brothers, K. N. Kudin, 
 V. N. Staroverov, T. A. Keith, R. Kobayashi, J. Normand, 
 K. Raghavachari, A. P. Rendell, J. C. Burant, S. S. Iyengar, 
 J. Tomasi, M. Cossi, J. M. Millam, M. Klene, C. Adamo, R. Cammi, 
 J. W. Ochterski, R. L. Martin, K. Morokuma, O. Farkas, 
 J. B. Foresman, and D. J. Fox, Gaussian, Inc., Wallingford CT, 2019.
 
 ******************************************
 Gaussian 16:  ES64L-G16RevC.01  3-Jul-2019
                 8-Apr-2025 
 ******************************************
 %nprocs=16
 Will use up to   16 processors via shared memory.
 %mem=30GB
 %chk=BDE49_expt_1849_mol1.chk
 ----------------------------------------------------------------------
 #t hf aug-cc-pvdz iop(5/13=1,5/36=2,99/5=2) pseudo=read geom=check gue
 ss=(read,tcheck) scf=(maxcycle=1)
 ----------------------------------------------------------------------
 -----
 title
 -----
 Structure from the checkpoint file:  "BDE49_expt_1849_mol1.chk"
 Charge =  0 Multiplicity = 1
 Z-Matrix found in chk file.
 O,0,2.808763,0.246142,0.067075
 O,0,1.504227,-0.391446,0.059684
 H,0,3.178253,-0.10803,-0.753395
 C,0,0.535555,0.643242,-0.095095
 C,0,-0.865099,0.012499,-0.00361
 C,0,-1.048419,-1.03361,-1.118783
 H,0,-0.91828,-0.581379,-2.107215
 H,0,-2.052989,-1.464721,-1.077985
 H,0,-0.324932,-1.845247,-1.0213
 C,0,-1.888227,1.14835,-0.185881
 H,0,-1.776207,1.635702,-1.159298
 H,0,-1.77941,1.912103,0.590095
 H,0,-2.90672,0.754513,-0.125459
 C,0,-1.057888,-0.64391,1.375844
 H,0,-0.325216,-1.435604,1.541039
 H,0,-2.058974,-1.077796,1.456359
 H,0,-0.944851,0.09105,2.178748
 H,0,0.675001,1.134497,-1.06749
 H,0,0.674876,1.387916,0.696981
 Recover connectivity data from disk.
                    Distance matrix (angstroms):
                    1          2          3          4          5
     1  O    0.000000
     2  O    1.452029   0.000000
     3  H    0.967022   1.882494   0.000000
     4  C    2.313323   1.425784   2.825176   0.000000
     5  C    3.681962   2.404347   4.114049   1.538843   0.000000
     6  C    4.233424   2.883949   4.342230   2.523637   1.539987
     7  H    4.393538   3.255774   4.340331   2.768025   2.186475
     8  H    5.279664   3.885871   5.414043   3.479963   2.178886
     9  H    3.921545   2.574468   3.919439   2.791213   2.186022
    10  C    4.789539   3.733633   5.250694   2.477518   1.539536
    11  H    4.945383   4.044316   5.268020   2.731620   2.191009
    12  H    4.909206   4.045979   5.519450   2.727372   2.190193
    13  H    5.741277   4.561135   6.177797   3.444207   2.175695
    14  C    4.178045   2.891444   4.771343   2.521801   1.539784
    15  H    3.850021   2.575178   4.393310   2.781989   2.185044
    16  H    5.232379   3.888210   5.766455   3.478586   2.178438
    17  H    4.309621   3.274327   5.063307   2.768913   2.185227
    18  H    2.574753   2.070420   2.812259   1.098330   2.182345
    19  H    2.500781   2.064001   3.257045   1.096054   2.180395
                    6          7          8          9         10
     6  C    0.000000
     7  H    1.094736   0.000000
     8  H    1.093930   1.768381   0.000000
     9  H    1.091646   1.768795   1.770366   0.000000
    10  C    2.517247   2.761211   2.766069   3.479000   0.000000
    11  H    2.767046   2.559303   3.113815   3.773890   1.094350
    12  H    3.483079   3.772861   3.776278   4.339329   1.094211
    13  H    2.763577   3.108996   2.561477   3.771858   1.093657
    14  C    2.524900   3.486417   2.772225   2.779700   2.518063
    15  H    2.785547   3.793571   3.137728   2.594877   3.478804
    16  H    2.766682   3.774476   2.563717   3.120044   2.771612
    17  H    3.485584   4.338473   3.775540   3.791286   2.756685
    18  H    2.770107   2.561992   3.768020   3.143386   2.710639
    19  H    3.482891   3.778860   4.327735   3.795451   2.721458
                   11         12         13         14         15
    11  H    0.000000
    12  H    1.771097   0.000000
    13  H    1.767308   1.767162   0.000000
    14  C    3.484187   2.769693   2.761825   0.000000
    15  H    4.339368   3.771752   3.773326   1.091273   0.000000
    16  H    3.779509   3.125390   2.564796   1.094035   1.772319
    17  H    3.770896   2.556666   3.098142   1.094348   1.766718
    18  H    2.503609   3.062090   3.722974   3.483607   3.796087
    19  H    3.084636   2.511915   3.728999   2.755294   3.112054
                   16         17         18         19
    16  H    0.000000
    17  H    1.768988   0.000000
    18  H    4.328819   3.775018   0.000000
    19  H    3.759033   2.549708   1.782577   0.000000
 Framework group  C1[X(C5H12O2)]
 Deg. of freedom    51
                         Standard orientation:                         
 ---------------------------------------------------------------------
 Center     Atomic      Atomic             Coordinates (Angstroms)
 Number     Number       Type             X           Y           Z
 ---------------------------------------------------------------------
      1          8           0        2.808763    0.246142    0.067075
      2          8           0        1.504227   -0.391446    0.059684
      3          1           0        3.178253   -0.108030   -0.753395
      4          6           0        0.535555    0.643242   -0.095095
      5          6           0       -0.865099    0.012499   -0.003610
      6          6           0       -1.048419   -1.033610   -1.118783
      7          1           0       -0.918280   -0.581379   -2.107215
      8          1           0       -2.052989   -1.464721   -1.077985
      9          1           0       -0.324932   -1.845247   -1.021300
     10          6           0       -1.888227    1.148350   -0.185881
     11          1           0       -1.776207    1.635702   -1.159298
     12          1           0       -1.779410    1.912103    0.590095
     13          1           0       -2.906720    0.754513   -0.125459
     14          6           0       -1.057888   -0.643910    1.375844
     15          1           0       -0.325216   -1.435604    1.541039
     16          1           0       -2.058974   -1.077796    1.456359
     17          1           0       -0.944851    0.091050    2.178748
     18          1           0        0.675001    1.134497   -1.067490
     19          1           0        0.674876    1.387916    0.696981
 ---------------------------------------------------------------------
 Rotational constants (GHZ):           4.2219664           1.4938497           1.4802723
 ======================================================================================================
                                       Pseudopotential Parameters
 ======================================================================================================
  Center     Atomic      Valence      Angular      Power
  Number     Number     Electrons     Momentum     of R      Exponent        Coefficient   SO-Coeffient
 ======================================================================================================
    1          8            8
                                      G and up 
                                                     0        0.0000010        0.00001165    0.00000000
                                                     2        0.1200000       -0.01744018    0.00000000
                                                     2        0.1400000        0.05401326    0.00000000
                                                     2        0.1800000       -0.08231208    0.00000000
                                                     2        0.2600000        0.11570222    0.00000000
                                                     2        0.4000000       -0.20630360    0.00000000
                                                     2        0.7000000        0.38074319    0.00000000
                                                     2        1.2000000       -0.17045091    0.00000000
                                                     2        2.0000000       -1.45433187    0.00000000
                                      S - G
                                                     0        0.0000010       -0.00117944    0.00000000
                                                     2        0.1400000        0.04368312    0.00000000
                                                     2        0.3000000       -0.33477926    0.00000000
                                                     2        0.6000000        1.52630657    0.00000000
                                                     2        1.5000000       -2.50804716    0.00000000
                                                     2        3.0000000        2.89751681    0.00000000
                                      P - G
                                                     0        0.0000010        0.06576007    0.00000000
                                                     2        0.1200000       -0.10329304    0.00000000
                                                     2        0.2000000        0.24891756    0.00000000
                                                     2        0.4000000       -0.50800022    0.00000000
                                                     2        0.9000000        0.81480796    0.00000000
                                      D - G
                                                     0        0.0000010       -0.14101855    0.00000000
                                                     2        0.1200000        0.22105937    0.00000000
                                                     2        0.1800000       -0.45814988    0.00000000
                                                     2        0.3000000        0.46029282    0.00000000
                                      F - G
                                                     0        0.0000010        0.07483044    0.00000000
                                                     2        0.1200000       -0.09134252    0.00000000
                                                     2        0.1400000        0.04125459    0.00000000
                                                     2        0.3000000        0.37914837    0.00000000
                                                     2        0.5000000       -0.86881279    0.00000000
    2          8            8
                                      G and up 
                                                     0        0.0000010        0.00001165    0.00000000
                                                     2        0.1200000       -0.01744018    0.00000000
                                                     2        0.1400000        0.05401326    0.00000000
                                                     2        0.1800000       -0.08231208    0.00000000
                                                     2        0.2600000        0.11570222    0.00000000
                                                     2        0.4000000       -0.20630360    0.00000000
                                                     2        0.7000000        0.38074319    0.00000000
                                                     2        1.2000000       -0.17045091    0.00000000
                                                     2        2.0000000       -1.45433187    0.00000000
                                      S - G
                                                     0        0.0000010       -0.00117944    0.00000000
                                                     2        0.1400000        0.04368312    0.00000000
                                                     2        0.3000000       -0.33477926    0.00000000
                                                     2        0.6000000        1.52630657    0.00000000
                                                     2        1.5000000       -2.50804716    0.00000000
                                                     2        3.0000000        2.89751681    0.00000000
                                      P - G
                                                     0        0.0000010        0.06576007    0.00000000
                                                     2        0.1200000       -0.10329304    0.00000000
                                                     2        0.2000000        0.24891756    0.00000000
                                                     2        0.4000000       -0.50800022    0.00000000
                                                     2        0.9000000        0.81480796    0.00000000
                                      D - G
                                                     0        0.0000010       -0.14101855    0.00000000
                                                     2        0.1200000        0.22105937    0.00000000
                                                     2        0.1800000       -0.45814988    0.00000000
                                                     2        0.3000000        0.46029282    0.00000000
                                      F - G
                                                     0        0.0000010        0.07483044    0.00000000
                                                     2        0.1200000       -0.09134252    0.00000000
                                                     2        0.1400000        0.04125459    0.00000000
                                                     2        0.3000000        0.37914837    0.00000000
                                                     2        0.5000000       -0.86881279    0.00000000
    3          1            1
                                      F and up 
                                                     0        0.0000010       -0.00000699    0.00000000
                                                     2        0.1200000        0.00123686    0.00000000
                                                     2        0.1800000       -0.00752022    0.00000000
                                                     2        0.2600000        0.02503380    0.00000000
                                                     2        0.4000000       -0.08702670    0.00000000
                                                     2        0.6000000        0.30134159    0.00000000
                                                     2        0.8000000       -0.50204959    0.00000000
                                                     2        1.2000000        0.52208372    0.00000000
                                      S - F
                                                     0        0.0000010       -0.01618346    0.00000000
                                                     2        0.1200000       -0.07880581    0.00000000
                                                     2        0.1600000        0.32040539    0.00000000
                                                     2        0.2400000       -0.47500956    0.00000000
                                                     2        0.5000000        0.54013668    0.00000000
                                                     2        1.5000000       -1.40434292    0.00000000
                                                     2        3.0000000        1.46283806    0.00000000
                                      P - F
                                                     0        0.0000010        0.00612970    0.00000000
                                                     2        0.1200000        0.02254406    0.00000000
                                                     2        0.1800000       -0.13874529    0.00000000
                                                     2        0.3000000        0.38299049    0.00000000
                                                     2        0.5000000       -0.57923512    0.00000000
                                                     2        1.0000000        0.63021625    0.00000000
                                                     2        2.0000000       -0.79201034    0.00000000
                                      D - F
                                                     0        0.0000010       -0.00296226    0.00000000
                                                     2        0.1200000       -0.00547344    0.00000000
                                                     2        0.1400000        0.01837884    0.00000000
                                                     2        0.2400000       -0.05565704    0.00000000
                                                     2        0.4000000        0.15376597    0.00000000
                                                     2        0.8000000       -0.32464795    0.00000000
    4          6            6
                                      G and up 
                                                     0        0.0000010       -0.00011185    0.00000000
                                                     2        0.1200000       -0.02301220    0.00000000
                                                     2        0.1400000        0.13317600    0.00000000
                                                     2        0.1600000       -0.19690668    0.00000000
                                                     2        0.2200000        0.23163694    0.00000000
                                                     2        0.3000000       -0.36920489    0.00000000
                                                     2        0.4000000        0.36389709    0.00000000
                                                     2        0.7000000       -0.38862160    0.00000000
                                                     2        1.3000000        0.80803421    0.00000000
                                      S - G
                                                     0        0.0000010        0.00312304    0.00000000
                                                     2        0.1200000       -0.00632892    0.00000000
                                                     2        0.2200000       -0.03780897    0.00000000
                                                     2        0.4000000        0.26269560    0.00000000
                                                     2        0.9000000       -0.28209514    0.00000000
                                                     2        1.5000000       -0.72686737    0.00000000
                                      P - G
                                                     0        0.0000010       -0.01465594    0.00000000
                                                     2        0.1200000        0.07908409    0.00000000
                                                     2        0.1800000       -0.30615861    0.00000000
                                                     2        0.2600000        0.41506950    0.00000000
                                                     2        0.5000000       -0.36252345    0.00000000
                                                     2        0.9000000        0.15124193    0.00000000
                                                     2        3.0000000       -0.80425677    0.00000000
                                      D - G
                                                     0        0.0000010        0.01149631    0.00000000
                                                     2        0.1200000       -0.04713561    0.00000000
                                                     2        0.1600000        0.10865096    0.00000000
                                                     2        0.2800000       -0.15816701    0.00000000
                                                     2        0.7000000        0.65478804    0.00000000
                                                     2        1.3000000       -1.73816624    0.00000000
                                      F - G
                                                     0        0.0000010        0.00481868    0.00000000
                                                     2        0.1200000       -0.04746842    0.00000000
                                                     2        0.1600000        0.09327889    0.00000000
                                                     2        0.4000000       -0.19693326    0.00000000
                                                     2        0.9000000        0.34938253    0.00000000
    5          6            6
                                      G and up 
                                                     0        0.0000010       -0.00011185    0.00000000
                                                     2        0.1200000       -0.02301220    0.00000000
                                                     2        0.1400000        0.13317600    0.00000000
                                                     2        0.1600000       -0.19690668    0.00000000
                                                     2        0.2200000        0.23163694    0.00000000
                                                     2        0.3000000       -0.36920489    0.00000000
                                                     2        0.4000000        0.36389709    0.00000000
                                                     2        0.7000000       -0.38862160    0.00000000
                                                     2        1.3000000        0.80803421    0.00000000
                                      S - G
                                                     0        0.0000010        0.00312304    0.00000000
                                                     2        0.1200000       -0.00632892    0.00000000
                                                     2        0.2200000       -0.03780897    0.00000000
                                                     2        0.4000000        0.26269560    0.00000000
                                                     2        0.9000000       -0.28209514    0.00000000
                                                     2        1.5000000       -0.72686737    0.00000000
                                      P - G
                                                     0        0.0000010       -0.01465594    0.00000000
                                                     2        0.1200000        0.07908409    0.00000000
                                                     2        0.1800000       -0.30615861    0.00000000
                                                     2        0.2600000        0.41506950    0.00000000
                                                     2        0.5000000       -0.36252345    0.00000000
                                                     2        0.9000000        0.15124193    0.00000000
                                                     2        3.0000000       -0.80425677    0.00000000
                                      D - G
                                                     0        0.0000010        0.01149631    0.00000000
                                                     2        0.1200000       -0.04713561    0.00000000
                                                     2        0.1600000        0.10865096    0.00000000
                                                     2        0.2800000       -0.15816701    0.00000000
                                                     2        0.7000000        0.65478804    0.00000000
                                                     2        1.3000000       -1.73816624    0.00000000
                                      F - G
                                                     0        0.0000010        0.00481868    0.00000000
                                                     2        0.1200000       -0.04746842    0.00000000
                                                     2        0.1600000        0.09327889    0.00000000
                                                     2        0.4000000       -0.19693326    0.00000000
                                                     2        0.9000000        0.34938253    0.00000000
    6          6            6
                                      G and up 
                                                     0        0.0000010       -0.00011185    0.00000000
                                                     2        0.1200000       -0.02301220    0.00000000
                                                     2        0.1400000        0.13317600    0.00000000
                                                     2        0.1600000       -0.19690668    0.00000000
                                                     2        0.2200000        0.23163694    0.00000000
                                                     2        0.3000000       -0.36920489    0.00000000
                                                     2        0.4000000        0.36389709    0.00000000
                                                     2        0.7000000       -0.38862160    0.00000000
                                                     2        1.3000000        0.80803421    0.00000000
                                      S - G
                                                     0        0.0000010        0.00312304    0.00000000
                                                     2        0.1200000       -0.00632892    0.00000000
                                                     2        0.2200000       -0.03780897    0.00000000
                                                     2        0.4000000        0.26269560    0.00000000
                                                     2        0.9000000       -0.28209514    0.00000000
                                                     2        1.5000000       -0.72686737    0.00000000
                                      P - G
                                                     0        0.0000010       -0.01465594    0.00000000
                                                     2        0.1200000        0.07908409    0.00000000
                                                     2        0.1800000       -0.30615861    0.00000000
                                                     2        0.2600000        0.41506950    0.00000000
                                                     2        0.5000000       -0.36252345    0.00000000
                                                     2        0.9000000        0.15124193    0.00000000
                                                     2        3.0000000       -0.80425677    0.00000000
                                      D - G
                                                     0        0.0000010        0.01149631    0.00000000
                                                     2        0.1200000       -0.04713561    0.00000000
                                                     2        0.1600000        0.10865096    0.00000000
                                                     2        0.2800000       -0.15816701    0.00000000
                                                     2        0.7000000        0.65478804    0.00000000
                                                     2        1.3000000       -1.73816624    0.00000000
                                      F - G
                                                     0        0.0000010        0.00481868    0.00000000
                                                     2        0.1200000       -0.04746842    0.00000000
                                                     2        0.1600000        0.09327889    0.00000000
                                                     2        0.4000000       -0.19693326    0.00000000
                                                     2        0.9000000        0.34938253    0.00000000
    7          1            1
                                      F and up 
                                                     0        0.0000010       -0.00000699    0.00000000
                                                     2        0.1200000        0.00123686    0.00000000
                                                     2        0.1800000       -0.00752022    0.00000000
                                                     2        0.2600000        0.02503380    0.00000000
                                                     2        0.4000000       -0.08702670    0.00000000
                                                     2        0.6000000        0.30134159    0.00000000
                                                     2        0.8000000       -0.50204959    0.00000000
                                                     2        1.2000000        0.52208372    0.00000000
                                      S - F
                                                     0        0.0000010       -0.01618346    0.00000000
                                                     2        0.1200000       -0.07880581    0.00000000
                                                     2        0.1600000        0.32040539    0.00000000
                                                     2        0.2400000       -0.47500956    0.00000000
                                                     2        0.5000000        0.54013668    0.00000000
                                                     2        1.5000000       -1.40434292    0.00000000
                                                     2        3.0000000        1.46283806    0.00000000
                                      P - F
                                                     0        0.0000010        0.00612970    0.00000000
                                                     2        0.1200000        0.02254406    0.00000000
                                                     2        0.1800000       -0.13874529    0.00000000
                                                     2        0.3000000        0.38299049    0.00000000
                                                     2        0.5000000       -0.57923512    0.00000000
                                                     2        1.0000000        0.63021625    0.00000000
                                                     2        2.0000000       -0.79201034    0.00000000
                                      D - F
                                                     0        0.0000010       -0.00296226    0.00000000
                                                     2        0.1200000       -0.00547344    0.00000000
                                                     2        0.1400000        0.01837884    0.00000000
                                                     2        0.2400000       -0.05565704    0.00000000
                                                     2        0.4000000        0.15376597    0.00000000
                                                     2        0.8000000       -0.32464795    0.00000000
    8          1            1
                                      F and up 
                                                     0        0.0000010       -0.00000699    0.00000000
                                                     2        0.1200000        0.00123686    0.00000000
                                                     2        0.1800000       -0.00752022    0.00000000
                                                     2        0.2600000        0.02503380    0.00000000
                                                     2        0.4000000       -0.08702670    0.00000000
                                                     2        0.6000000        0.30134159    0.00000000
                                                     2        0.8000000       -0.50204959    0.00000000
                                                     2        1.2000000        0.52208372    0.00000000
                                      S - F
                                                     0        0.0000010       -0.01618346    0.00000000
                                                     2        0.1200000       -0.07880581    0.00000000
                                                     2        0.1600000        0.32040539    0.00000000
                                                     2        0.2400000       -0.47500956    0.00000000
                                                     2        0.5000000        0.54013668    0.00000000
                                                     2        1.5000000       -1.40434292    0.00000000
                                                     2        3.0000000        1.46283806    0.00000000
                                      P - F
                                                     0        0.0000010        0.00612970    0.00000000
                                                     2        0.1200000        0.02254406    0.00000000
                                                     2        0.1800000       -0.13874529    0.00000000
                                                     2        0.3000000        0.38299049    0.00000000
                                                     2        0.5000000       -0.57923512    0.00000000
                                                     2        1.0000000        0.63021625    0.00000000
                                                     2        2.0000000       -0.79201034    0.00000000
                                      D - F
                                                     0        0.0000010       -0.00296226    0.00000000
                                                     2        0.1200000       -0.00547344    0.00000000
                                                     2        0.1400000        0.01837884    0.00000000
                                                     2        0.2400000       -0.05565704    0.00000000
                                                     2        0.4000000        0.15376597    0.00000000
                                                     2        0.8000000       -0.32464795    0.00000000
    9          1            1
                                      F and up 
                                                     0        0.0000010       -0.00000699    0.00000000
                                                     2        0.1200000        0.00123686    0.00000000
                                                     2        0.1800000       -0.00752022    0.00000000
                                                     2        0.2600000        0.02503380    0.00000000
                                                     2        0.4000000       -0.08702670    0.00000000
                                                     2        0.6000000        0.30134159    0.00000000
                                                     2        0.8000000       -0.50204959    0.00000000
                                                     2        1.2000000        0.52208372    0.00000000
                                      S - F
                                                     0        0.0000010       -0.01618346    0.00000000
                                                     2        0.1200000       -0.07880581    0.00000000
                                                     2        0.1600000        0.32040539    0.00000000
                                                     2        0.2400000       -0.47500956    0.00000000
                                                     2        0.5000000        0.54013668    0.00000000
                                                     2        1.5000000       -1.40434292    0.00000000
                                                     2        3.0000000        1.46283806    0.00000000
                                      P - F
                                                     0        0.0000010        0.00612970    0.00000000
                                                     2        0.1200000        0.02254406    0.00000000
                                                     2        0.1800000       -0.13874529    0.00000000
                                                     2        0.3000000        0.38299049    0.00000000
                                                     2        0.5000000       -0.57923512    0.00000000
                                                     2        1.0000000        0.63021625    0.00000000
                                                     2        2.0000000       -0.79201034    0.00000000
                                      D - F
                                                     0        0.0000010       -0.00296226    0.00000000
                                                     2        0.1200000       -0.00547344    0.00000000
                                                     2        0.1400000        0.01837884    0.00000000
                                                     2        0.2400000       -0.05565704    0.00000000
                                                     2        0.4000000        0.15376597    0.00000000
                                                     2        0.8000000       -0.32464795    0.00000000
   10          6            6
                                      G and up 
                                                     0        0.0000010       -0.00011185    0.00000000
                                                     2        0.1200000       -0.02301220    0.00000000
                                                     2        0.1400000        0.13317600    0.00000000
                                                     2        0.1600000       -0.19690668    0.00000000
                                                     2        0.2200000        0.23163694    0.00000000
                                                     2        0.3000000       -0.36920489    0.00000000
                                                     2        0.4000000        0.36389709    0.00000000
                                                     2        0.7000000       -0.38862160    0.00000000
                                                     2        1.3000000        0.80803421    0.00000000
                                      S - G
                                                     0        0.0000010        0.00312304    0.00000000
                                                     2        0.1200000       -0.00632892    0.00000000
                                                     2        0.2200000       -0.03780897    0.00000000
                                                     2        0.4000000        0.26269560    0.00000000
                                                     2        0.9000000       -0.28209514    0.00000000
                                                     2        1.5000000       -0.72686737    0.00000000
                                      P - G
                                                     0        0.0000010       -0.01465594    0.00000000
                                                     2        0.1200000        0.07908409    0.00000000
                                                     2        0.1800000       -0.30615861    0.00000000
                                                     2        0.2600000        0.41506950    0.00000000
                                                     2        0.5000000       -0.36252345    0.00000000
                                                     2        0.9000000        0.15124193    0.00000000
                                                     2        3.0000000       -0.80425677    0.00000000
                                      D - G
                                                     0        0.0000010        0.01149631    0.00000000
                                                     2        0.1200000       -0.04713561    0.00000000
                                                     2        0.1600000        0.10865096    0.00000000
                                                     2        0.2800000       -0.15816701    0.00000000
                                                     2        0.7000000        0.65478804    0.00000000
                                                     2        1.3000000       -1.73816624    0.00000000
                                      F - G
                                                     0        0.0000010        0.00481868    0.00000000
                                                     2        0.1200000       -0.04746842    0.00000000
                                                     2        0.1600000        0.09327889    0.00000000
                                                     2        0.4000000       -0.19693326    0.00000000
                                                     2        0.9000000        0.34938253    0.00000000
   11          1            1
                                      F and up 
                                                     0        0.0000010       -0.00000699    0.00000000
                                                     2        0.1200000        0.00123686    0.00000000
                                                     2        0.1800000       -0.00752022    0.00000000
                                                     2        0.2600000        0.02503380    0.00000000
                                                     2        0.4000000       -0.08702670    0.00000000
                                                     2        0.6000000        0.30134159    0.00000000
                                                     2        0.8000000       -0.50204959    0.00000000
                                                     2        1.2000000        0.52208372    0.00000000
                                      S - F
                                                     0        0.0000010       -0.01618346    0.00000000
                                                     2        0.1200000       -0.07880581    0.00000000
                                                     2        0.1600000        0.32040539    0.00000000
                                                     2        0.2400000       -0.47500956    0.00000000
                                                     2        0.5000000        0.54013668    0.00000000
                                                     2        1.5000000       -1.40434292    0.00000000
                                                     2        3.0000000        1.46283806    0.00000000
                                      P - F
                                                     0        0.0000010        0.00612970    0.00000000
                                                     2        0.1200000        0.02254406    0.00000000
                                                     2        0.1800000       -0.13874529    0.00000000
                                                     2        0.3000000        0.38299049    0.00000000
                                                     2        0.5000000       -0.57923512    0.00000000
                                                     2        1.0000000        0.63021625    0.00000000
                                                     2        2.0000000       -0.79201034    0.00000000
                                      D - F
                                                     0        0.0000010       -0.00296226    0.00000000
                                                     2        0.1200000       -0.00547344    0.00000000
                                                     2        0.1400000        0.01837884    0.00000000
                                                     2        0.2400000       -0.05565704    0.00000000
                                                     2        0.4000000        0.15376597    0.00000000
                                                     2        0.8000000       -0.32464795    0.00000000
   12          1            1
                                      F and up 
                                                     0        0.0000010       -0.00000699    0.00000000
                                                     2        0.1200000        0.00123686    0.00000000
                                                     2        0.1800000       -0.00752022    0.00000000
                                                     2        0.2600000        0.02503380    0.00000000
                                                     2        0.4000000       -0.08702670    0.00000000
                                                     2        0.6000000        0.30134159    0.00000000
                                                     2        0.8000000       -0.50204959    0.00000000
                                                     2        1.2000000        0.52208372    0.00000000
                                      S - F
                                                     0        0.0000010       -0.01618346    0.00000000
                                                     2        0.1200000       -0.07880581    0.00000000
                                                     2        0.1600000        0.32040539    0.00000000
                                                     2        0.2400000       -0.47500956    0.00000000
                                                     2        0.5000000        0.54013668    0.00000000
                                                     2        1.5000000       -1.40434292    0.00000000
                                                     2        3.0000000        1.46283806    0.00000000
                                      P - F
                                                     0        0.0000010        0.00612970    0.00000000
                                                     2        0.1200000        0.02254406    0.00000000
                                                     2        0.1800000       -0.13874529    0.00000000
                                                     2        0.3000000        0.38299049    0.00000000
                                                     2        0.5000000       -0.57923512    0.00000000
                                                     2        1.0000000        0.63021625    0.00000000
                                                     2        2.0000000       -0.79201034    0.00000000
                                      D - F
                                                     0        0.0000010       -0.00296226    0.00000000
                                                     2        0.1200000       -0.00547344    0.00000000
                                                     2        0.1400000        0.01837884    0.00000000
                                                     2        0.2400000       -0.05565704    0.00000000
                                                     2        0.4000000        0.15376597    0.00000000
                                                     2        0.8000000       -0.32464795    0.00000000
   13          1            1
                                      F and up 
                                                     0        0.0000010       -0.00000699    0.00000000
                                                     2        0.1200000        0.00123686    0.00000000
                                                     2        0.1800000       -0.00752022    0.00000000
                                                     2        0.2600000        0.02503380    0.00000000
                                                     2        0.4000000       -0.08702670    0.00000000
                                                     2        0.6000000        0.30134159    0.00000000
                                                     2        0.8000000       -0.50204959    0.00000000
                                                     2        1.2000000        0.52208372    0.00000000
                                      S - F
                                                     0        0.0000010       -0.01618346    0.00000000
                                                     2        0.1200000       -0.07880581    0.00000000
                                                     2        0.1600000        0.32040539    0.00000000
                                                     2        0.2400000       -0.47500956    0.00000000
                                                     2        0.5000000        0.54013668    0.00000000
                                                     2        1.5000000       -1.40434292    0.00000000
                                                     2        3.0000000        1.46283806    0.00000000
                                      P - F
                                                     0        0.0000010        0.00612970    0.00000000
                                                     2        0.1200000        0.02254406    0.00000000
                                                     2        0.1800000       -0.13874529    0.00000000
                                                     2        0.3000000        0.38299049    0.00000000
                                                     2        0.5000000       -0.57923512    0.00000000
                                                     2        1.0000000        0.63021625    0.00000000
                                                     2        2.0000000       -0.79201034    0.00000000
                                      D - F
                                                     0        0.0000010       -0.00296226    0.00000000
                                                     2        0.1200000       -0.00547344    0.00000000
                                                     2        0.1400000        0.01837884    0.00000000
                                                     2        0.2400000       -0.05565704    0.00000000
                                                     2        0.4000000        0.15376597    0.00000000
                                                     2        0.8000000       -0.32464795    0.00000000
   14          6            6
                                      G and up 
                                                     0        0.0000010       -0.00011185    0.00000000
                                                     2        0.1200000       -0.02301220    0.00000000
                                                     2        0.1400000        0.13317600    0.00000000
                                                     2        0.1600000       -0.19690668    0.00000000
                                                     2        0.2200000        0.23163694    0.00000000
                                                     2        0.3000000       -0.36920489    0.00000000
                                                     2        0.4000000        0.36389709    0.00000000
                                                     2        0.7000000       -0.38862160    0.00000000
                                                     2        1.3000000        0.80803421    0.00000000
                                      S - G
                                                     0        0.0000010        0.00312304    0.00000000
                                                     2        0.1200000       -0.00632892    0.00000000
                                                     2        0.2200000       -0.03780897    0.00000000
                                                     2        0.4000000        0.26269560    0.00000000
                                                     2        0.9000000       -0.28209514    0.00000000
                                                     2        1.5000000       -0.72686737    0.00000000
                                      P - G
                                                     0        0.0000010       -0.01465594    0.00000000
                                                     2        0.1200000        0.07908409    0.00000000
                                                     2        0.1800000       -0.30615861    0.00000000
                                                     2        0.2600000        0.41506950    0.00000000
                                                     2        0.5000000       -0.36252345    0.00000000
                                                     2        0.9000000        0.15124193    0.00000000
                                                     2        3.0000000       -0.80425677    0.00000000
                                      D - G
                                                     0        0.0000010        0.01149631    0.00000000
                                                     2        0.1200000       -0.04713561    0.00000000
                                                     2        0.1600000        0.10865096    0.00000000
                                                     2        0.2800000       -0.15816701    0.00000000
                                                     2        0.7000000        0.65478804    0.00000000
                                                     2        1.3000000       -1.73816624    0.00000000
                                      F - G
                                                     0        0.0000010        0.00481868    0.00000000
                                                     2        0.1200000       -0.04746842    0.00000000
[...]
                                                     2        0.1200000        0.02254406    0.00000000
                                                     2        0.1800000       -0.13874529    0.00000000
                                                     2        0.3000000        0.38299049    0.00000000
                                                     2        0.5000000       -0.57923512    0.00000000
                                                     2        1.0000000        0.63021625    0.00000000
                                                     2        2.0000000       -0.79201034    0.00000000
                                      D - F
                                                     0        0.0000010       -0.00296226    0.00000000
                                                     2        0.1200000       -0.00547344    0.00000000
                                                     2        0.1400000        0.01837884    0.00000000
                                                     2        0.2400000       -0.05565704    0.00000000
                                                     2        0.4000000        0.15376597    0.00000000
                                                     2        0.8000000       -0.32464795    0.00000000
   17          1            1
                                      F and up 
                                                     0        0.0000010       -0.00000699    0.00000000
                                                     2        0.1200000        0.00123686    0.00000000
                                                     2        0.1800000       -0.00752022    0.00000000
                                                     2        0.2600000        0.02503380    0.00000000
                                                     2        0.4000000       -0.08702670    0.00000000
                                                     2        0.6000000        0.30134159    0.00000000
                                                     2        0.8000000       -0.50204959    0.00000000
                                                     2        1.2000000        0.52208372    0.00000000
                                      S - F
                                                     0        0.0000010       -0.01618346    0.00000000
                                                     2        0.1200000       -0.07880581    0.00000000
                                                     2        0.1600000        0.32040539    0.00000000
                                                     2        0.2400000       -0.47500956    0.00000000
                                                     2        0.5000000        0.54013668    0.00000000
                                                     2        1.5000000       -1.40434292    0.00000000
                                                     2        3.0000000        1.46283806    0.00000000
                                      P - F
                                                     0        0.0000010        0.00612970    0.00000000
                                                     2        0.1200000        0.02254406    0.00000000
                                                     2        0.1800000       -0.13874529    0.00000000
                                                     2        0.3000000        0.38299049    0.00000000
                                                     2        0.5000000       -0.57923512    0.00000000
                                                     2        1.0000000        0.63021625    0.00000000
                                                     2        2.0000000       -0.79201034    0.00000000
                                      D - F
                                                     0        0.0000010       -0.00296226    0.00000000
                                                     2        0.1200000       -0.00547344    0.00000000
                                                     2        0.1400000        0.01837884    0.00000000
                                                     2        0.2400000       -0.05565704    0.00000000
                                                     2        0.4000000        0.15376597    0.00000000
                                                     2        0.8000000       -0.32464795    0.00000000
   18          1            1
                                      F and up 
                                                     0        0.0000010       -0.00000699    0.00000000
                                                     2        0.1200000        0.00123686    0.00000000
                                                     2        0.1800000       -0.00752022    0.00000000
                                                     2        0.2600000        0.02503380    0.00000000
                                                     2        0.4000000       -0.08702670    0.00000000
                                                     2        0.6000000        0.30134159    0.00000000
                                                     2        0.8000000       -0.50204959    0.00000000
                                                     2        1.2000000        0.52208372    0.00000000
                                      S - F
                                                     0        0.0000010       -0.01618346    0.00000000
                                                     2        0.1200000       -0.07880581    0.00000000
                                                     2        0.1600000        0.32040539    0.00000000
                                                     2        0.2400000       -0.47500956    0.00000000
                                                     2        0.5000000        0.54013668    0.00000000
                                                     2        1.5000000       -1.40434292    0.00000000
                                                     2        3.0000000        1.46283806    0.00000000
                                      P - F
                                                     0        0.0000010        0.00612970    0.00000000
                                                     2        0.1200000        0.02254406    0.00000000
                                                     2        0.1800000       -0.13874529    0.00000000
                                                     2        0.3000000        0.38299049    0.00000000
                                                     2        0.5000000       -0.57923512    0.00000000
                                                     2        1.0000000        0.63021625    0.00000000
                                                     2        2.0000000       -0.79201034    0.00000000
                                      D - F
                                                     0        0.0000010       -0.00296226    0.00000000
                                                     2        0.1200000       -0.00547344    0.00000000
                                                     2        0.1400000        0.01837884    0.00000000
                                                     2        0.2400000       -0.05565704    0.00000000
                                                     2        0.4000000        0.15376597    0.00000000
                                                     2        0.8000000       -0.32464795    0.00000000
   19          1            1
                                      F and up 
                                                     0        0.0000010       -0.00000699    0.00000000
                                                     2        0.1200000        0.00123686    0.00000000
                                                     2        0.1800000       -0.00752022    0.00000000
                                                     2        0.2600000        0.02503380    0.00000000
                                                     2        0.4000000       -0.08702670    0.00000000
                                                     2        0.6000000        0.30134159    0.00000000
                                                     2        0.8000000       -0.50204959    0.00000000
                                                     2        1.2000000        0.52208372    0.00000000
                                      S - F
                                                     0        0.0000010       -0.01618346    0.00000000
                                                     2        0.1200000       -0.07880581    0.00000000
                                                     2        0.1600000        0.32040539    0.00000000
                                                     2        0.2400000       -0.47500956    0.00000000
                                                     2        0.5000000        0.54013668    0.00000000
                                                     2        1.5000000       -1.40434292    0.00000000
                                                     2        3.0000000        1.46283806    0.00000000
                                      P - F
                                                     0        0.0000010        0.00612970    0.00000000
                                                     2        0.1200000        0.02254406    0.00000000
                                                     2        0.1800000       -0.13874529    0.00000000
                                                     2        0.3000000        0.38299049    0.00000000
                                                     2        0.5000000       -0.57923512    0.00000000
                                                     2        1.0000000        0.63021625    0.00000000
                                                     2        2.0000000       -0.79201034    0.00000000
                                      D - F
                                                     0        0.0000010       -0.00296226    0.00000000
                                                     2        0.1200000       -0.00547344    0.00000000
                                                     2        0.1400000        0.01837884    0.00000000
                                                     2        0.2400000       -0.05565704    0.00000000
                                                     2        0.4000000        0.15376597    0.00000000
                                                     2        0.8000000       -0.32464795    0.00000000
 ======================================================================================================
   269 basis functions,   433 primitive gaussians,   283 cartesian basis functions
    29 alpha electrons       29 beta electrons
       nuclear repulsion energy       338.2906506372 Hartrees.
 NAtoms=   19 NActive=   19 NUniq=   19 SFac= 1.00D+00 NAtFMM=   60 NAOKFM=F Big=F
   1 Symmetry operations used in ECPInt.
 ECPInt:  NShTT=    7626 NPrTT=   30486 LenC2=    7615 LenP2D=   24557.
 LDataN:  DoStor=T MaxTD1= 6 Len=  172
 Initial guess from the checkpoint file:  "BDE49_expt_1849_mol1.chk"
 B after Tr=    -0.000000    0.000000   -0.000000
         Rot=    1.000000    0.000000    0.000000   -0.000000 Ang=  -0.00 deg.
 >>>>>>>>>> Convergence criterion not met.
 SCF Done:  E(RHF) =  -346.101141904     A.U. after    2 cycles
            NFock=  1  Conv=0.47D-02     -V/T= 1.9992

 **********************************************************************

            Population analysis using the SCF Density.

 **********************************************************************

 Orbital symmetries:
       Occupied  (A) (A) (A) (A) (A) (A) (A) (A) (A) (A) (A) (A)
                 (A) (A) (A) (A) (A) (A) (A) (A) (A) (A) (A) (A)
                 (A) (A) (A) (A) (A)
       Virtual   (A) (A) (A) (A) (A) (A) (A) (A) (A) (A) (A) (A)
                 (A) (A) (A) (A) (A) (A) (A) (A) (A) (A) (A) (A)
                 (A) (A) (A) (A) (A) (A) (A) (A) (A) (A) (A) (A)
                 (A) (A) (A) (A) (A) (A) (A) (A) (A) (A) (A) (A)
                 (A) (A) (A) (A) (A) (A) (A) (A) (A) (A) (A) (A)
                 (A) (A) (A) (A) (A) (A) (A) (A) (A) (A) (A) (A)
                 (A) (A) (A) (A) (A) (A) (A) (A) (A) (A) (A) (A)
                 (A) (A) (A) (A) (A) (A) (A) (A) (A) (A) (A) (A)
                 (A) (A) (A) (A) (A) (A) (A) (A) (A) (A) (A) (A)
                 (A) (A) (A) (A) (A) (A) (A) (A) (A) (A) (A) (A)
                 (A) (A) (A) (A) (A) (A) (A) (A) (A) (A) (A) (A)
                 (A) (A) (A) (A) (A) (A) (A) (A) (A) (A) (A) (A)
                 (A) (A) (A) (A) (A) (A) (A) (A) (A) (A) (A) (A)
                 (A) (A) (A) (A) (A) (A) (A) (A) (A) (A) (A) (A)
                 (A) (A) (A) (A) (A) (A) (A) (A) (A) (A) (A) (A)
                 (A) (A) (A) (A) (A) (A) (A) (A) (A) (A) (A) (A)
                 (A) (A) (A) (A) (A) (A) (A) (A) (A) (A) (A) (A)
                 (A) (A) (A) (A) (A) (A) (A) (A) (A) (A) (A) (A)
                 (A) (A) (A) (A) (A) (A) (A) (A) (A) (A) (A) (A)
                 (A) (A) (A) (A) (A) (A) (A) (A) (A) (A) (A) (A)
 The electronic state is 1-A.
 Alpha  occ. eigenvalues --  -20.63563 -20.63371 -11.28715 -11.25039 -11.22818
 Alpha  occ. eigenvalues --  -11.22237 -11.21994  -1.42066  -1.20696  -1.08642
 Alpha  occ. eigenvalues --   -0.93278  -0.92862  -0.90768  -0.75169  -0.73162
 Alpha  occ. eigenvalues --   -0.67155  -0.66202  -0.62839  -0.59624  -0.58793
 Alpha  occ. eigenvalues --   -0.57373  -0.54131  -0.53061  -0.51740  -0.51183
 Alpha  occ. eigenvalues --   -0.47604  -0.46580  -0.46250  -0.45405
 Alpha virt. eigenvalues --    0.03374   0.04225   0.04673   0.04885   0.06253
 Alpha virt. eigenvalues --    0.06700   0.06934   0.07209   0.07575   0.08914
 Alpha virt. eigenvalues --    0.09261   0.09547   0.12390   0.13603   0.14245
 Alpha virt. eigenvalues --    0.14689   0.15738   0.16466   0.16683   0.17151
 Alpha virt. eigenvalues --    0.17868   0.18400   0.18993   0.19795   0.19915
 Alpha virt. eigenvalues --    0.20571   0.20940   0.21628   0.21910   0.22378
 Alpha virt. eigenvalues --    0.22484   0.23203   0.24353   0.25854   0.27914
 Alpha virt. eigenvalues --    0.28268   0.30043   0.30475   0.31616   0.32492
 Alpha virt. eigenvalues --    0.33120   0.34043   0.34554   0.36520   0.37952
 Alpha virt. eigenvalues --    0.38818   0.38918   0.39699   0.40691   0.41008
 Alpha virt. eigenvalues --    0.42104   0.42859   0.43356   0.44770   0.45560
 Alpha virt. eigenvalues --    0.46712   0.46995   0.47968   0.48071   0.48641
 Alpha virt. eigenvalues --    0.49523   0.49950   0.50342   0.50614   0.50859
 Alpha virt. eigenvalues --    0.52139   0.53139   0.54089   0.55761   0.56716
 Alpha virt. eigenvalues --    0.56986   0.57199   0.58514   0.58896   0.60285
 Alpha virt. eigenvalues --    0.60672   0.61435   0.61936   0.63902   0.64536
 Alpha virt. eigenvalues --    0.65451   0.66051   0.66677   0.67114   0.68387
 Alpha virt. eigenvalues --    0.69209   0.69810   0.71006   0.71376   0.72437
 Alpha virt. eigenvalues --    0.72974   0.73471   0.74702   0.76260   0.77434
 Alpha virt. eigenvalues --    0.77514   0.78436   0.81334   0.81948   0.83705
 Alpha virt. eigenvalues --    0.84631   0.84968   0.85686   0.87609   0.88886
 Alpha virt. eigenvalues --    0.89314   0.89948   0.90569   0.91659   0.92368
 Alpha virt. eigenvalues --    0.93491   0.93623   0.94388   0.95730   0.96990
 Alpha virt. eigenvalues --    1.00423   1.02407   1.04181   1.07105   1.08466
 Alpha virt. eigenvalues --    1.10108   1.10191   1.10529   1.12718   1.15746
 Alpha virt. eigenvalues --    1.16166   1.20018   1.21497   1.22986   1.25739
 Alpha virt. eigenvalues --    1.27735   1.28321   1.29257   1.32742   1.34110
 Alpha virt. eigenvalues --    1.36202   1.38138   1.39446   1.40905   1.42440
 Alpha virt. eigenvalues --    1.43968   1.47811   1.51852   1.54625   1.55400
 Alpha virt. eigenvalues --    1.57112   1.58116   1.59252   1.63990   1.64444
 Alpha virt. eigenvalues --    1.65368   1.69802   1.70128   1.71346   1.75335
 Alpha virt. eigenvalues --    1.77953   1.78408   1.81157   1.82560   1.83473
 Alpha virt. eigenvalues --    1.85273   1.88633   1.91231   1.92815   1.93054
 Alpha virt. eigenvalues --    1.97802   2.00476   2.02659   2.03426   2.04556
 Alpha virt. eigenvalues --    2.05185   2.08432   2.09098   2.10759   2.12293
 Alpha virt. eigenvalues --    2.13213   2.13844   2.17002   2.19460   2.20337
 Alpha virt. eigenvalues --    2.22757   2.26955   2.28560   2.29207   2.30943
 Alpha virt. eigenvalues --    2.31492   2.32399   2.34397   2.34672   2.36295
 Alpha virt. eigenvalues --    2.37853   2.40590   2.43611   2.46064   2.47563
 Alpha virt. eigenvalues --    2.49947   2.53018   2.54990   2.56468   2.57507
 Alpha virt. eigenvalues --    2.59912   2.61656   2.62163   2.62386   2.63048
 Alpha virt. eigenvalues --    2.66770   2.67180   2.74541   2.77290   2.80239
 Alpha virt. eigenvalues --    2.84346   2.85210   2.87257   2.88726   2.90860
 Alpha virt. eigenvalues --    2.91935   2.95254   2.97852   3.00283   3.05156
 Alpha virt. eigenvalues --    3.08546   3.11188   3.21280   3.25106   3.27699
 Alpha virt. eigenvalues --    3.30208   3.39868   3.48567   3.51012   3.54044
 Alpha virt. eigenvalues --    3.57555   3.65840   3.70039   3.72607   3.75643
 Alpha virt. eigenvalues --    3.83674   3.84979   3.90138   4.15281   4.28848
          Condensed to atoms (all electrons):
 Mulliken charges:
               1
     1  O   -0.317711
     2  O   -0.415545
     3  H    0.208814
     4  C    1.562011
     5  C   -4.426173
     6  C    1.211759
     7  H   -0.007096
     8  H   -0.017042
     9  H   -0.004214
    10  C    1.309630
    11  H   -0.028186
    12  H   -0.024778
    13  H   -0.013373
    14  C    1.243171
    15  H    0.017121
    16  H   -0.019873
    17  H   -0.016703
    18  H   -0.131407
    19  H   -0.130406
 Sum of Mulliken charges =  -0.00000
 Mulliken charges with hydrogens summed into heavy atoms:
               1
     1  O   -0.108896
     2  O   -0.415545
     4  C    1.300198
     5  C   -4.426173
     6  C    1.183407
    10  C    1.243293
    14  C    1.223717
 Electronic spatial extent (au):  <R**2>=            947.7697
 Charge=             -0.0000 electrons
 Dipole moment (field-independent basis, Debye):
    X=             -0.8652    Y=              0.4952    Z=             -1.5659  Tot=              1.8563

 Test job not archived.
 1\1\GINC-SE329\SP\RHF\Aug-CC-pVDZ\C5H12O2\OHZDE\08-Apr-2025\0\\#t hf a
 ug-cc-pvdz iop(5/13=1,5/36=2,99/5=2) pseudo=read geom=check guess=(rea
 d,tcheck) scf=(maxcycle=1)\\title\\0,1\O,0,2.808763,0.246142,0.067075\
 O,0,1.504227,-0.391446,0.059684\H,0,3.178253,-0.10803,-0.753395\C,0,0.
 535555,0.643242,-0.095095\C,0,-0.865099,0.012499,-0.00361\C,0,-1.04841
 9,-1.03361,-1.118783\H,0,-0.91828,-0.581379,-2.107215\H,0,-2.052989,-1
 .464721,-1.077985\H,0,-0.324932,-1.845247,-1.0213\C,0,-1.888227,1.1483
 5,-0.185881\H,0,-1.776207,1.635702,-1.159298\H,0,-1.77941,1.912103,0.5
 90095\H,0,-2.90672,0.754513,-0.125459\C,0,-1.057888,-0.64391,1.375844\
 H,0,-0.325216,-1.435604,1.541039\H,0,-2.058974,-1.077796,1.456359\H,0,
 -0.944851,0.09105,2.178748\H,0,0.675001,1.134497,-1.06749\H,0,0.674876
 ,1.387916,0.696981\\Version=ES64L-G16RevC.01\State=1-A\HF=-346.1011419
 \RMSD=4.710e-03\Dipole=-0.3404023,0.1948279,-0.6160911\Quadrupole=0.21
 31183,-0.6474982,0.4343799,-0.4732945,-3.9556574,0.2550715\PG=C01 [X(C
 5H12O2)]\\@


 REALITY IS FOR PEOPLE WHO CAN'T FACE SCIENCE FICTION.
 Job cpu time:       0 days  0 hours  1 minutes 36.2 seconds.
 Elapsed time:       0 days  0 hours  0 minutes  7.0 seconds.
 File lengths (MBytes):  RWF=     14 Int=      0 D2E=      0 Chk=     10 Scr=      1
 Normal termination of Gaussian 16 at Tue Apr  8 22:53:40 2025.
