 Entering Gaussian System, Link 0=g16
 Input=BDE49_nonexpt_2372_mol1.gjf
 Output=BDE49_nonexpt_2372_mol1.log
 Initial command:
 /arc/software/Gaussian/g16.c01/l1.exe "/tmp/slurm/4851927/Gau-2380555.inp" -scrdir="/tmp/slurm/4851927/"
 Entering Link 1 = /arc/software/Gaussian/g16.c01/l1.exe PID=   2380559.
  
 Copyright (c) 1988-2019, Gaussian, Inc.  All Rights Reserved.
  
 This is part of the Gaussian(R) 16 program.  It is based on
 the Gaussian(R) 09 system (copyright 2009, Gaussian, Inc.),
 the Gaussian(R) 03 system (copyright 2003, Gaussian, Inc.),
 the Gaussian(R) 98 system (copyright 1998, Gaussian, Inc.),
 the Gaussian(R) 94 system (copyright 1995, Gaussian, Inc.),
 the Gaussian 92(TM) system (copyright 1992, Gaussian, Inc.),
 the Gaussian 90(TM) system (copyright 1990, Gaussian, Inc.),
 the Gaussian 88(TM) system (copyright 1988, Gaussian, Inc.),
 the Gaussian 86(TM) system (copyright 1986, Carnegie Mellon
 University), and the Gaussian 82(TM) system (copyright 1983,
 Carnegie Mellon University). Gaussian is a federally registered
 trademark of Gaussian, Inc.
  
 This software contains proprietary and confidential information,
 including trade secrets, belonging to Gaussian, Inc.
  
 This software is provided under written license and may be
 used, copied, transmitted, or stored only in accord with that
 written license.
  
 The following legend is applicable only to US Government
 contracts under FAR:
  
                    RESTRICTED RIGHTS LEGEND
  
 Use, reproduction and disclosure by the US Government is
 subject to restrictions as set forth in subparagraphs (a)
 and (c) of the Commercial Computer Software - Restricted
 Rights clause in FAR 52.227-19.
  
 Gaussian, Inc.
 340 Quinnipiac St., Bldg. 40, Wallingford CT 06492
  
  
 ---------------------------------------------------------------
 Warning -- This program may not be used in any manner that
 competes with the business of Gaussian, Inc. or will provide
 assistance to any competitor of Gaussian, Inc.  The licensee
 of this program is prohibited from giving any competitor of
 Gaussian, Inc. access to this program.  By using this program,
 the user acknowledges that Gaussian, Inc. is engaged in the
 business of creating and licensing software in the field of
 computational chemistry and represents and warrants to the
 licensee that it is not a competitor of Gaussian, Inc. and that
 it will not use this program in any manner prohibited above.
 ---------------------------------------------------------------
  

 Cite this work as:
 Gaussian 16, Revision C.01,
 M. J. Frisch, G. W. Trucks, H. B. Schlegel, G. E. Scuseria, 
 M. A. Robb, J. R. Cheeseman, G. Scalmani, V. Barone, 
 G. A. Petersson, H. Nakatsuji, X. Li, M. Caricato, A. V. Marenich, 
 J. Bloino, B. G. Janesko, R. Gomperts, B. Mennucci, H. P. Hratchian, 
 J. V. Ortiz, A. F. Izmaylov, J. L. Sonnenberg, D. Williams-Young, 
 F. Ding, F. Lipparini, F. Egidi, J. Goings, B. Peng, A. Petrone, 
 T. Henderson, D. Ranasinghe, V. G. Zakrzewski, J. Gao, N. Rega, 
 G. Zheng, W. Liang, M. Hada, M. Ehara, K. Toyota, R. Fukuda, 
 J. Hasegawa, M. Ishida, T. Nakajima, Y. Honda, O. Kitao, H. Nakai, 
 T. Vreven, K. Throssell, J. A. Montgomery, Jr., J. E. Peralta, 
 F. Ogliaro, M. J. Bearpark, J. J. Heyd, E. N. Brothers, K. N. Kudin, 
 V. N. Staroverov, T. A. Keith, R. Kobayashi, J. Normand, 
 K. Raghavachari, A. P. Rendell, J. C. Burant, S. S. Iyengar, 
 J. Tomasi, M. Cossi, J. M. Millam, M. Klene, C. Adamo, R. Cammi, 
 J. W. Ochterski, R. L. Martin, K. Morokuma, O. Farkas, 
 J. B. Foresman, and D. J. Fox, Gaussian, Inc., Wallingford CT, 2019.
 
 ******************************************
 Gaussian 16:  ES64L-G16RevC.01  3-Jul-2019
                 9-Apr-2025 
 ******************************************
 %nprocs=16
 Will use up to   16 processors via shared memory.
 %mem=30GB
 %chk=BDE49_nonexpt_2372_mol1.chk
 ----------------------------------------------------------------------
 #t hf aug-cc-pvdz symm=none int=(grid=ultrafine) guess=(read,tcheck) s
 table=(opt,rrhf)
 ----------------------------------------------------------------------
 -----
 title
 -----
 Symbolic Z-matrix:
 Charge =  0 Multiplicity = 1
 Si                   -2.52789  -0.46711  -0.40241 
 Si                   -0.79587   0.93839   0.35164 
 C                     0.84771  -0.06512   0.30789 
 H                    -1.01461   1.34839   1.75807 
 H                    -0.70189   2.16872  -0.48302 
 O                     0.87767  -1.13555   0.90324 
 N                     1.90872   0.43925  -0.38596 
 H                    -2.20988  -0.96622  -1.76207 
 C                     3.19181  -0.24513  -0.48145 
 H                     3.09698  -1.19004   0.05065 
 H                     3.98906   0.3453   -0.02111 
 H                     3.45236  -0.44425  -1.52451 
 H                    -3.80011   0.29341  -0.46763 
 H                    -2.69929  -1.6165    0.51323 
 H                     1.80055   1.33448  -0.83571 
 
                    Distance matrix (angstroms):
                    1          2          3          4          5
     1  Si   0.000000
     2  Si   2.354552   0.000000
     3  C    3.472865   1.926208   0.000000
     4  H    3.202138   1.481216   2.751231   0.000000
     5  H    3.207549   1.489698   2.831401   2.406910   0.000000
     6  O    3.708014   2.721432   1.225217   3.237500   3.915981
     7  N    4.528280   2.847453   1.364395   3.737552   3.133014
     8  H    1.482875   3.177218   3.800730   4.379204   3.706461
     9  C    5.724555   4.242205   2.479975   5.024812   4.581218
    10  H    5.689207   4.446910   2.528007   5.124846   5.098768
    11  H    6.578451   4.835924   3.185083   5.404476   5.054026
    12  H    6.084659   4.845516   3.207123   5.826038   5.016980
    13  H    1.483634   3.180046   4.725695   3.718295   3.621605
    14  H    1.479483   3.190076   3.876874   3.630195   4.394316
    15  H    4.708384   2.882368   2.043186   3.827924   2.661303
                    6          7          8          9         10
     6  O    0.000000
     7  N    2.281472   0.000000
     8  H    4.082339   4.564201   0.000000
     9  C    2.839977   1.457328   5.598058   0.000000
    10  H    2.378070   2.063287   5.612382   1.088565   0.000000
    11  H    3.567643   2.114172   6.570986   1.093672   1.777134
    12  H    3.605678   2.111795   5.691212   1.093394   1.778661
    13  H    5.079646   5.711282   2.406459   7.012645   7.073830
    14  H    3.630160   5.125277   2.416476   6.129857   5.830319
    15  H    3.158593   1.007677   4.715393   2.134545   2.973139
                   11         12         13         14         15
    11  H    0.000000
    12  H    1.780910   0.000000
    13  H    7.802128   7.366103   0.000000
    14  H    6.990578   6.585545   2.412803   0.000000
    15  H    2.536063   2.523254   5.708477   5.547657   0.000000
 Symmetry turned off by external request.
 Rotational constants (GHZ):           4.7877323           1.0169688           0.9558412
   227 basis functions,   433 primitive gaussians,   239 cartesian basis functions
    32 alpha electrons       32 beta electrons
       nuclear repulsion energy       348.4487461345 Hartrees.
 NAtoms=   15 NActive=   15 NUniq=   15 SFac= 1.00D+00 NAtFMM=   60 NAOKFM=F Big=F
 ExpMin= 2.50D-02 ExpMax= 7.89D+04 ExpMxC= 2.69D+03 IAcc=3 IRadAn=         5 AccDes= 0.00D+00
 Harris functional with IExCor=  205 and IRadAn=       5 diagonalized for initial guess.
 HarFok:  IExCor=  205 AccDes= 0.00D+00 IRadAn=         5 IDoV= 1 UseB2=F ITyADJ=14
 ICtDFT=  3500011 ScaDFX=  1.000000  1.000000  1.000000  1.000000
 FoFCou: FMM=F IPFlag=           0 FMFlag=      100000 FMFlg1=           0
         NFxFlg=           0 DoJE=T BraDBF=F KetDBF=T FulRan=T
         wScrn=  0.000000 ICntrl=       500 IOpCl=  0 I1Cent=   200000004 NGrid=           0
         NMat0=    1 NMatS0=      1 NMatT0=    0 NMatD0=    1 NMtDS0=    0 NMtDT0=    0
 Symmetry not used in FoFCou.
 SCF Done:  E(RHF) =  -788.178353963     A.U. after   13 cycles
            NFock= 13  Conv=0.96D-08     -V/T= 2.0004

 **********************************************************************

            Population analysis using the SCF Density.

 **********************************************************************

 Alpha  occ. eigenvalues --  -68.79167 -68.78213 -20.53453 -15.60116 -11.34725
 Alpha  occ. eigenvalues --  -11.27029  -6.14080  -6.13122  -4.24670  -4.24655
 Alpha  occ. eigenvalues --   -4.24632  -4.23712  -4.23706  -4.23699  -1.38232
 Alpha  occ. eigenvalues --   -1.23307  -0.96286  -0.80705  -0.77284  -0.71269
 Alpha  occ. eigenvalues --   -0.64457  -0.64293  -0.62368  -0.55622  -0.54994
 Alpha  occ. eigenvalues --   -0.54095  -0.49950  -0.48379  -0.47386  -0.41241
 Alpha  occ. eigenvalues --   -0.39496  -0.39090
 Alpha virt. eigenvalues --    0.02935   0.04058   0.04402   0.05235   0.05792
 Alpha virt. eigenvalues --    0.06749   0.06806   0.07419   0.07784   0.08399
 Alpha virt. eigenvalues --    0.09274   0.09597   0.09925   0.10512   0.10886
 Alpha virt. eigenvalues --    0.12609   0.12805   0.14284   0.14524   0.15332
 Alpha virt. eigenvalues --    0.15499   0.15978   0.16232   0.17397   0.18476
 Alpha virt. eigenvalues --    0.19662   0.19991   0.20653   0.21149   0.22024
 Alpha virt. eigenvalues --    0.22457   0.23209   0.24676   0.24969   0.26001
 Alpha virt. eigenvalues --    0.28023   0.28529   0.29531   0.30384   0.31662
 Alpha virt. eigenvalues --    0.32684   0.33236   0.33546   0.34195   0.35114
 Alpha virt. eigenvalues --    0.37176   0.37379   0.38867   0.39678   0.39971
 Alpha virt. eigenvalues --    0.41071   0.41822   0.42373   0.42498   0.43317
 Alpha virt. eigenvalues --    0.44093   0.45023   0.45669   0.46340   0.46802
 Alpha virt. eigenvalues --    0.48153   0.49140   0.49588   0.50802   0.51643
 Alpha virt. eigenvalues --    0.53034   0.54340   0.55154   0.55635   0.56039
 Alpha virt. eigenvalues --    0.56288   0.57531   0.58292   0.59385   0.59813
 Alpha virt. eigenvalues --    0.61483   0.61807   0.62070   0.63530   0.64692
 Alpha virt. eigenvalues --    0.65261   0.66738   0.66847   0.67378   0.68377
 Alpha virt. eigenvalues --    0.69051   0.69991   0.71210   0.71924   0.72505
 Alpha virt. eigenvalues --    0.73204   0.73936   0.74672   0.76658   0.77231
 Alpha virt. eigenvalues --    0.78909   0.80688   0.81984   0.82362   0.85065
 Alpha virt. eigenvalues --    0.86096   0.87654   0.88235   0.91045   0.91650
 Alpha virt. eigenvalues --    0.93121   0.96926   0.98043   1.00023   1.00789
 Alpha virt. eigenvalues --    1.01627   1.03018   1.04581   1.05852   1.07502
 Alpha virt. eigenvalues --    1.08750   1.11646   1.13011   1.15081   1.16564
 Alpha virt. eigenvalues --    1.18102   1.21086   1.26088   1.30928   1.32181
 Alpha virt. eigenvalues --    1.33145   1.36348   1.40415   1.43510   1.44977
 Alpha virt. eigenvalues --    1.45681   1.46805   1.48159   1.52343   1.54313
 Alpha virt. eigenvalues --    1.57092   1.65688   1.68011   1.72423   1.73435
 Alpha virt. eigenvalues --    1.74822   1.81308   1.85102   1.86299   1.88867
 Alpha virt. eigenvalues --    1.89721   1.91255   1.92920   1.94018   1.94827
 Alpha virt. eigenvalues --    1.99948   2.01438   2.03444   2.05126   2.07026
 Alpha virt. eigenvalues --    2.09203   2.10033   2.10873   2.14004   2.14426
 Alpha virt. eigenvalues --    2.15928   2.20133   2.20856   2.22726   2.24747
 Alpha virt. eigenvalues --    2.27602   2.27901   2.28469   2.31267   2.33248
 Alpha virt. eigenvalues --    2.36772   2.38176   2.40856   2.46148   2.47659
 Alpha virt. eigenvalues --    2.56414   2.60948   2.64942   2.75124   2.76901
 Alpha virt. eigenvalues --    2.78233   2.85863   2.94773   2.95426   3.01531
 Alpha virt. eigenvalues --    3.04286   3.17185   3.30020   3.37605   3.56876
 Alpha virt. eigenvalues --    3.78015   3.81122   3.88090   3.96814   4.15981
          Condensed to atoms (all electrons):
 Mulliken charges:
               1
     1  Si  -0.213359
     2  Si   0.235353
     3  C    0.558478
     4  H    0.064343
     5  H    0.029551
     6  O   -0.741117
     7  N   -0.451392
     8  H    0.077904
     9  C    0.792475
    10  H   -0.152515
    11  H   -0.096551
    12  H   -0.097807
    13  H    0.039445
    14  H    0.078937
    15  H   -0.123745
 Sum of Mulliken charges =  -0.00000
 Mulliken charges with hydrogens summed into heavy atoms:
               1
     1  Si  -0.017073
     2  Si   0.329247
     3  C    0.558478
     6  O   -0.741117
     7  N   -0.575137
     9  C    0.445602
 Electronic spatial extent (au):  <R**2>=           1294.0603
 Charge=             -0.0000 electrons
 Dipole moment (field-independent basis, Debye):
    X=              1.0414    Y=              2.8101    Z=             -2.0657  Tot=              3.6398
 NROrb=    227 NOA=    32 NOB=    32 NVA=   195 NVB=   195

 **** Warning!!: The largest alpha MO coefficient is  0.26358114D+02

    12 initial guesses have been made.
 Iteration     1 Dimension    12 NMult     0 NNew     12
 Iteration     2 Dimension    24 NMult    12 NNew     12
 Iteration     3 Dimension    27 NMult    24 NNew      3
 Iteration     4 Dimension    30 NMult    27 NNew      3
 Iteration     5 Dimension    33 NMult    30 NNew      3
 Iteration     6 Dimension    36 NMult    33 NNew      3
 Iteration     7 Dimension    39 NMult    36 NNew      3
 ***********************************************************************
 Stability analysis using <AA,BB:AA,BB> singles matrix:
 ***********************************************************************
 Ground to excited state transition densities written to RWF  633

 Eigenvectors of the stability matrix:
 
 Excited state symmetry could not be determined.
 Eigenvector   1:      Singlet-?Sym  Eigenvalue= 0.2092181  <S**2>=0.000
      30 -> 48        -0.11821
      30 -> 49        -0.14155
      32 -> 46        -0.20773
      32 -> 48         0.31536
      32 -> 49         0.26779
      32 -> 50        -0.19069
      32 -> 54         0.10832
      32 -> 55        -0.11585
      32 -> 57         0.13062
 The wavefunction is stable under the perturbations considered.
 The wavefunction is already stable.

 **********************************************************************

            Population analysis using the SCF Density.

 **********************************************************************

 Alpha  occ. eigenvalues --  -68.79167 -68.78213 -20.53453 -15.60116 -11.34725
 Alpha  occ. eigenvalues --  -11.27029  -6.14080  -6.13122  -4.24670  -4.24655
 Alpha  occ. eigenvalues --   -4.24632  -4.23712  -4.23706  -4.23699  -1.38232
 Alpha  occ. eigenvalues --   -1.23307  -0.96286  -0.80705  -0.77284  -0.71269
 Alpha  occ. eigenvalues --   -0.64457  -0.64293  -0.62368  -0.55622  -0.54994
 Alpha  occ. eigenvalues --   -0.54095  -0.49950  -0.48379  -0.47386  -0.41241
 Alpha  occ. eigenvalues --   -0.39496  -0.39090
 Alpha virt. eigenvalues --    0.02935   0.04058   0.04402   0.05235   0.05792
 Alpha virt. eigenvalues --    0.06749   0.06806   0.07419   0.07784   0.08399
 Alpha virt. eigenvalues --    0.09274   0.09597   0.09925   0.10512   0.10886
 Alpha virt. eigenvalues --    0.12609   0.12805   0.14284   0.14524   0.15332
 Alpha virt. eigenvalues --    0.15499   0.15978   0.16232   0.17397   0.18476
 Alpha virt. eigenvalues --    0.19662   0.19991   0.20653   0.21149   0.22024
 Alpha virt. eigenvalues --    0.22457   0.23209   0.24676   0.24969   0.26001
 Alpha virt. eigenvalues --    0.28023   0.28529   0.29531   0.30384   0.31662
 Alpha virt. eigenvalues --    0.32684   0.33236   0.33546   0.34195   0.35114
 Alpha virt. eigenvalues --    0.37176   0.37379   0.38867   0.39678   0.39971
 Alpha virt. eigenvalues --    0.41071   0.41822   0.42373   0.42498   0.43317
 Alpha virt. eigenvalues --    0.44093   0.45023   0.45669   0.46340   0.46802
 Alpha virt. eigenvalues --    0.48153   0.49140   0.49588   0.50802   0.51643
 Alpha virt. eigenvalues --    0.53034   0.54340   0.55154   0.55635   0.56039
 Alpha virt. eigenvalues --    0.56288   0.57531   0.58292   0.59385   0.59813
 Alpha virt. eigenvalues --    0.61483   0.61807   0.62070   0.63530   0.64692
 Alpha virt. eigenvalues --    0.65261   0.66738   0.66847   0.67378   0.68377
 Alpha virt. eigenvalues --    0.69051   0.69991   0.71210   0.71924   0.72505
 Alpha virt. eigenvalues --    0.73204   0.73936   0.74672   0.76658   0.77231
 Alpha virt. eigenvalues --    0.78909   0.80688   0.81984   0.82362   0.85065
 Alpha virt. eigenvalues --    0.86096   0.87654   0.88235   0.91045   0.91650
 Alpha virt. eigenvalues --    0.93121   0.96926   0.98043   1.00023   1.00789
 Alpha virt. eigenvalues --    1.01627   1.03018   1.04581   1.05852   1.07502
 Alpha virt. eigenvalues --    1.08750   1.11646   1.13011   1.15081   1.16564
 Alpha virt. eigenvalues --    1.18102   1.21086   1.26088   1.30928   1.32181
 Alpha virt. eigenvalues --    1.33145   1.36348   1.40415   1.43510   1.44977
 Alpha virt. eigenvalues --    1.45681   1.46805   1.48159   1.52343   1.54313
 Alpha virt. eigenvalues --    1.57092   1.65688   1.68011   1.72423   1.73435
 Alpha virt. eigenvalues --    1.74822   1.81308   1.85102   1.86299   1.88867
 Alpha virt. eigenvalues --    1.89721   1.91255   1.92920   1.94018   1.94827
 Alpha virt. eigenvalues --    1.99948   2.01438   2.03444   2.05126   2.07026
 Alpha virt. eigenvalues --    2.09203   2.10033   2.10873   2.14004   2.14426
 Alpha virt. eigenvalues --    2.15928   2.20133   2.20856   2.22726   2.24747
 Alpha virt. eigenvalues --    2.27602   2.27901   2.28469   2.31267   2.33248
 Alpha virt. eigenvalues --    2.36772   2.38176   2.40856   2.46148   2.47659
 Alpha virt. eigenvalues --    2.56414   2.60948   2.64942   2.75124   2.76901
 Alpha virt. eigenvalues --    2.78233   2.85863   2.94773   2.95426   3.01531
 Alpha virt. eigenvalues --    3.04286   3.17185   3.30020   3.37605   3.56876
 Alpha virt. eigenvalues --    3.78015   3.81122   3.88090   3.96814   4.15981
          Condensed to atoms (all electrons):
 Mulliken charges:
               1
     1  Si  -0.213359
     2  Si   0.235353
     3  C    0.558478
     4  H    0.064343
     5  H    0.029551
     6  O   -0.741117
     7  N   -0.451392
     8  H    0.077904
     9  C    0.792475
    10  H   -0.152515
    11  H   -0.096551
    12  H   -0.097807
    13  H    0.039445
    14  H    0.078937
    15  H   -0.123745
 Sum of Mulliken charges =  -0.00000
 Mulliken charges with hydrogens summed into heavy atoms:
               1
     1  Si  -0.017073
     2  Si   0.329247
     3  C    0.558478
     6  O   -0.741117
     7  N   -0.575137
     9  C    0.445602
 Electronic spatial extent (au):  <R**2>=           1294.0603
 Charge=             -0.0000 electrons
 Dipole moment (field-independent basis, Debye):
    X=              1.0414    Y=              2.8101    Z=             -2.0657  Tot=              3.6398
 Unable to Open any file for archive entry.
 1\1\GINC-SE423\Stability\RHF\Aug-CC-pVDZ\C2H9N1O1Si2\OHZDE\09-Apr-2025
 \0\\#t hf aug-cc-pvdz symm=none int=(grid=ultrafine) guess=(read,tchec
 k) stable=(opt,rrhf)\\title\\0,1\Si,0,-2.527894,-0.467107,-0.402406\Si
 ,0,-0.795866,0.938386,0.351638\C,0,0.847707,-0.065123,0.307889\H,0,-1.
 014614,1.348386,1.75807\H,0,-0.701889,2.168719,-0.483017\O,0,0.877666,
 -1.135552,0.903239\N,0,1.908723,0.43925,-0.38596\H,0,-2.209884,-0.9662
 19,-1.762066\C,0,3.19181,-0.24513,-0.481448\H,0,3.096978,-1.190036,0.0
 50654\H,0,3.989055,0.345299,-0.021108\H,0,3.45236,-0.444248,-1.524509\
 H,0,-3.800112,0.293405,-0.467629\H,0,-2.699294,-1.616499,0.51323\H,0,1
 .800548,1.334482,-0.835706\\Version=ES64L-G16RevC.01\HF=-788.178354\RM
 SD=9.621e-09\Dipole=0.4097246,1.1055626,-0.8127089\Quadrupole=3.945812
 3,-2.1598822,-1.7859301,1.9722046,-2.683197,1.2239217\PG=Unknown\\@
 The archive entry for this job was punched.


 COLLEGE PROFESSOR: SOMEONE WHO TALKS IN OTHER PEOPLE'S SLEEP.
 Job cpu time:       0 days  0 hours  6 minutes 53.7 seconds.
 Elapsed time:       0 days  0 hours  0 minutes 29.2 seconds.
 File lengths (MBytes):  RWF=    274 Int=      0 D2E=      0 Chk=      8 Scr=      1
 Normal termination of Gaussian 16 at Wed Apr  9 00:09:55 2025.
 Initial command:
 /arc/software/Gaussian/g16.c01/l1.exe "/tmp/slurm/4851927/Gau-2380555.inp" -scrdir="/tmp/slurm/4851927/"
 Entering Link 1 = /arc/software/Gaussian/g16.c01/l1.exe PID=   2381149.
  
 Copyright (c) 1988-2019, Gaussian, Inc.  All Rights Reserved.
  
 This is part of the Gaussian(R) 16 program.  It is based on
 the Gaussian(R) 09 system (copyright 2009, Gaussian, Inc.),
 the Gaussian(R) 03 system (copyright 2003, Gaussian, Inc.),
 the Gaussian(R) 98 system (copyright 1998, Gaussian, Inc.),
 the Gaussian(R) 94 system (copyright 1995, Gaussian, Inc.),
 the Gaussian 92(TM) system (copyright 1992, Gaussian, Inc.),
 the Gaussian 90(TM) system (copyright 1990, Gaussian, Inc.),
 the Gaussian 88(TM) system (copyright 1988, Gaussian, Inc.),
 the Gaussian 86(TM) system (copyright 1986, Carnegie Mellon
 University), and the Gaussian 82(TM) system (copyright 1983,
 Carnegie Mellon University). Gaussian is a federally registered
 trademark of Gaussian, Inc.
  
 This software contains proprietary and confidential information,
 including trade secrets, belonging to Gaussian, Inc.
  
 This software is provided under written license and may be
 used, copied, transmitted, or stored only in accord with that
 written license.
  
 The following legend is applicable only to US Government
 contracts under FAR:
  
                    RESTRICTED RIGHTS LEGEND
  
 Use, reproduction and disclosure by the US Government is
 subject to restrictions as set forth in subparagraphs (a)
 and (c) of the Commercial Computer Software - Restricted
 Rights clause in FAR 52.227-19.
  
 Gaussian, Inc.
 340 Quinnipiac St., Bldg. 40, Wallingford CT 06492
  
  
 ---------------------------------------------------------------
 Warning -- This program may not be used in any manner that
 competes with the business of Gaussian, Inc. or will provide
 assistance to any competitor of Gaussian, Inc.  The licensee
 of this program is prohibited from giving any competitor of
 Gaussian, Inc. access to this program.  By using this program,
 the user acknowledges that Gaussian, Inc. is engaged in the
 business of creating and licensing software in the field of
 computational chemistry and represents and warrants to the
 licensee that it is not a competitor of Gaussian, Inc. and that
 it will not use this program in any manner prohibited above.
 ---------------------------------------------------------------
  

 Cite this work as:
 Gaussian 16, Revision C.01,
 M. J. Frisch, G. W. Trucks, H. B. Schlegel, G. E. Scuseria, 
 M. A. Robb, J. R. Cheeseman, G. Scalmani, V. Barone, 
 G. A. Petersson, H. Nakatsuji, X. Li, M. Caricato, A. V. Marenich, 
 J. Bloino, B. G. Janesko, R. Gomperts, B. Mennucci, H. P. Hratchian, 
 J. V. Ortiz, A. F. Izmaylov, J. L. Sonnenberg, D. Williams-Young, 
 F. Ding, F. Lipparini, F. Egidi, J. Goings, B. Peng, A. Petrone, 
 T. Henderson, D. Ranasinghe, V. G. Zakrzewski, J. Gao, N. Rega, 
 G. Zheng, W. Liang, M. Hada, M. Ehara, K. Toyota, R. Fukuda, 
 J. Hasegawa, M. Ishida, T. Nakajima, Y. Honda, O. Kitao, H. Nakai, 
 T. Vreven, K. Throssell, J. A. Montgomery, Jr., J. E. Peralta, 
 F. Ogliaro, M. J. Bearpark, J. J. Heyd, E. N. Brothers, K. N. Kudin, 
 V. N. Staroverov, T. A. Keith, R. Kobayashi, J. Normand, 
 K. Raghavachari, A. P. Rendell, J. C. Burant, S. S. Iyengar, 
 J. Tomasi, M. Cossi, J. M. Millam, M. Klene, C. Adamo, R. Cammi, 
 J. W. Ochterski, R. L. Martin, K. Morokuma, O. Farkas, 
 J. B. Foresman, and D. J. Fox, Gaussian, Inc., Wallingford CT, 2019.
 
 ******************************************
 Gaussian 16:  ES64L-G16RevC.01  3-Jul-2019
                 9-Apr-2025 
 ******************************************
 %nprocs=16
 Will use up to   16 processors via shared memory.
 %mem=30GB
 %chk=BDE49_nonexpt_2372_mol1.chk
 ----------------------------------------------------------------------
 #t hf aug-cc-pvdz iop(5/13=1,5/36=2,99/5=2) pseudo=read geom=check gue
 ss=(read,tcheck) scf=(maxcycle=1)
 ----------------------------------------------------------------------
 -----
 title
 -----
 Structure from the checkpoint file:  "BDE49_nonexpt_2372_mol1.chk"
 Charge =  0 Multiplicity = 1
 Z-Matrix found in chk file.
 Si,0,-2.527894,-0.467107,-0.402406
 Si,0,-0.795866,0.938386,0.351638
 C,0,0.847707,-0.065123,0.307889
 H,0,-1.014614,1.348386,1.75807
 H,0,-0.701889,2.168719,-0.483017
 O,0,0.877666,-1.135552,0.903239
 N,0,1.908723,0.43925,-0.38596
 H,0,-2.209884,-0.966219,-1.762066
 C,0,3.19181,-0.24513,-0.481448
 H,0,3.096978,-1.190036,0.050654
 H,0,3.989055,0.345299,-0.021108
 H,0,3.45236,-0.444248,-1.524509
 H,0,-3.800112,0.293405,-0.467629
 H,0,-2.699294,-1.616499,0.51323
 H,0,1.800548,1.334482,-0.835706
 Recover connectivity data from disk.
                    Distance matrix (angstroms):
                    1          2          3          4          5
     1  Si   0.000000
     2  Si   2.354552   0.000000
     3  C    3.472865   1.926208   0.000000
     4  H    3.202138   1.481216   2.751231   0.000000
     5  H    3.207549   1.489698   2.831401   2.406910   0.000000
     6  O    3.708014   2.721432   1.225217   3.237500   3.915981
     7  N    4.528280   2.847453   1.364395   3.737552   3.133014
     8  H    1.482875   3.177218   3.800730   4.379204   3.706461
     9  C    5.724555   4.242205   2.479975   5.024812   4.581218
    10  H    5.689207   4.446910   2.528007   5.124846   5.098768
    11  H    6.578451   4.835924   3.185083   5.404476   5.054026
    12  H    6.084659   4.845516   3.207123   5.826038   5.016980
    13  H    1.483634   3.180046   4.725695   3.718295   3.621605
    14  H    1.479483   3.190076   3.876874   3.630195   4.394316
    15  H    4.708384   2.882368   2.043186   3.827924   2.661303
                    6          7          8          9         10
     6  O    0.000000
     7  N    2.281472   0.000000
     8  H    4.082339   4.564201   0.000000
     9  C    2.839977   1.457328   5.598058   0.000000
    10  H    2.378070   2.063287   5.612382   1.088565   0.000000
    11  H    3.567643   2.114172   6.570986   1.093672   1.777134
    12  H    3.605678   2.111795   5.691212   1.093394   1.778661
    13  H    5.079646   5.711282   2.406459   7.012645   7.073830
    14  H    3.630160   5.125277   2.416476   6.129857   5.830319
    15  H    3.158593   1.007677   4.715393   2.134545   2.973139
                   11         12         13         14         15
    11  H    0.000000
    12  H    1.780910   0.000000
    13  H    7.802128   7.366103   0.000000
    14  H    6.990578   6.585545   2.412803   0.000000
    15  H    2.536063   2.523254   5.708477   5.547657   0.000000
 Framework group  C1[X(C2H9NOSi2)]
 Deg. of freedom    39
                         Standard orientation:                         
 ---------------------------------------------------------------------
 Center     Atomic      Atomic             Coordinates (Angstroms)
 Number     Number       Type             X           Y           Z
 ---------------------------------------------------------------------
      1         14           0       -2.527894   -0.467107   -0.402406
      2         14           0       -0.795866    0.938386    0.351638
      3          6           0        0.847707   -0.065123    0.307889
      4          1           0       -1.014614    1.348386    1.758070
      5          1           0       -0.701889    2.168719   -0.483017
      6          8           0        0.877666   -1.135552    0.903239
      7          7           0        1.908723    0.439250   -0.385960
      8          1           0       -2.209884   -0.966219   -1.762066
      9          6           0        3.191810   -0.245130   -0.481448
     10          1           0        3.096978   -1.190036    0.050654
     11          1           0        3.989055    0.345299   -0.021108
     12          1           0        3.452360   -0.444248   -1.524509
     13          1           0       -3.800112    0.293405   -0.467629
     14          1           0       -2.699294   -1.616499    0.513230
     15          1           0        1.800548    1.334482   -0.835706
 ---------------------------------------------------------------------
 Rotational constants (GHZ):           4.7877323           1.0169688           0.9558412
 ======================================================================================================
                                       Pseudopotential Parameters
 ======================================================================================================
  Center     Atomic      Valence      Angular      Power
  Number     Number     Electrons     Momentum     of R      Exponent        Coefficient   SO-Coeffient
 ======================================================================================================
    1         14           14
                                      G and up 
                                                     0        0.0000010       -0.00080730    0.00000000
                                                     2        0.1200000       -0.00055264    0.00000000
                                                     2        0.1400000        0.01406977    0.00000000
                                                     2        0.1800000       -0.03298471    0.00000000
                                                     2        0.2600000        0.01115055    0.00000000
                                                     2        0.4000000        0.04822265    0.00000000
                                                     2        1.0000000        0.55710288    0.00000000
                                      S - G
                                                     0        0.0000010        0.00443253    0.00000000
                                                     2        0.1200000       -0.39699075    0.00000000
                                                     2        0.1600000        0.69326200    0.00000000
                                                     2        0.2800000       -0.35872667    0.00000000
                                                     2        0.6000000        0.34281738    0.00000000
                                                     2        1.9000000       -2.57353518    0.00000000
                                      P - G
                                                     0        0.0000010        0.01853706    0.00000000
                                                     2        0.1200000        0.09826004    0.00000000
                                                     2        0.1800000       -0.15827199    0.00000000
                                                     2        0.6000000       -0.27745523    0.00000000
                                      D - G
                                                     0        0.0000010        0.06592581    0.00000000
                                                     2        0.1200000       -0.32414458    0.00000000
                                                     2        0.1600000        0.55726508    0.00000000
                                                     2        0.4000000       -0.80339056    0.00000000
                                      F - G
                                                     0        0.0000010       -0.02690402    0.00000000
                                                     2        0.1200000        0.11839193    0.00000000
                                                     2        0.1600000       -0.17978163    0.00000000
    2         14           14
                                      G and up 
                                                     0        0.0000010       -0.00080730    0.00000000
                                                     2        0.1200000       -0.00055264    0.00000000
                                                     2        0.1400000        0.01406977    0.00000000
                                                     2        0.1800000       -0.03298471    0.00000000
                                                     2        0.2600000        0.01115055    0.00000000
                                                     2        0.4000000        0.04822265    0.00000000
                                                     2        1.0000000        0.55710288    0.00000000
                                      S - G
                                                     0        0.0000010        0.00443253    0.00000000
                                                     2        0.1200000       -0.39699075    0.00000000
                                                     2        0.1600000        0.69326200    0.00000000
                                                     2        0.2800000       -0.35872667    0.00000000
                                                     2        0.6000000        0.34281738    0.00000000
                                                     2        1.9000000       -2.57353518    0.00000000
                                      P - G
                                                     0        0.0000010        0.01853706    0.00000000
                                                     2        0.1200000        0.09826004    0.00000000
                                                     2        0.1800000       -0.15827199    0.00000000
                                                     2        0.6000000       -0.27745523    0.00000000
                                      D - G
                                                     0        0.0000010        0.06592581    0.00000000
                                                     2        0.1200000       -0.32414458    0.00000000
                                                     2        0.1600000        0.55726508    0.00000000
                                                     2        0.4000000       -0.80339056    0.00000000
                                      F - G
                                                     0        0.0000010       -0.02690402    0.00000000
                                                     2        0.1200000        0.11839193    0.00000000
                                                     2        0.1600000       -0.17978163    0.00000000
    3          6            6
                                      G and up 
                                                     0        0.0000010       -0.00011185    0.00000000
                                                     2        0.1200000       -0.02301220    0.00000000
                                                     2        0.1400000        0.13317600    0.00000000
                                                     2        0.1600000       -0.19690668    0.00000000
                                                     2        0.2200000        0.23163694    0.00000000
                                                     2        0.3000000       -0.36920489    0.00000000
                                                     2        0.4000000        0.36389709    0.00000000
                                                     2        0.7000000       -0.38862160    0.00000000
                                                     2        1.3000000        0.80803421    0.00000000
                                      S - G
                                                     0        0.0000010        0.00312304    0.00000000
                                                     2        0.1200000       -0.00632892    0.00000000
                                                     2        0.2200000       -0.03780897    0.00000000
                                                     2        0.4000000        0.26269560    0.00000000
                                                     2        0.9000000       -0.28209514    0.00000000
                                                     2        1.5000000       -0.72686737    0.00000000
                                      P - G
                                                     0        0.0000010       -0.01465594    0.00000000
                                                     2        0.1200000        0.07908409    0.00000000
                                                     2        0.1800000       -0.30615861    0.00000000
                                                     2        0.2600000        0.41506950    0.00000000
                                                     2        0.5000000       -0.36252345    0.00000000
                                                     2        0.9000000        0.15124193    0.00000000
                                                     2        3.0000000       -0.80425677    0.00000000
                                      D - G
                                                     0        0.0000010        0.01149631    0.00000000
                                                     2        0.1200000       -0.04713561    0.00000000
                                                     2        0.1600000        0.10865096    0.00000000
                                                     2        0.2800000       -0.15816701    0.00000000
                                                     2        0.7000000        0.65478804    0.00000000
                                                     2        1.3000000       -1.73816624    0.00000000
                                      F - G
                                                     0        0.0000010        0.00481868    0.00000000
                                                     2        0.1200000       -0.04746842    0.00000000
                                                     2        0.1600000        0.09327889    0.00000000
                                                     2        0.4000000       -0.19693326    0.00000000
                                                     2        0.9000000        0.34938253    0.00000000
    4          1            1
                                      F and up 
                                                     0        0.0000010       -0.00000699    0.00000000
                                                     2        0.1200000        0.00123686    0.00000000
                                                     2        0.1800000       -0.00752022    0.00000000
                                                     2        0.2600000        0.02503380    0.00000000
                                                     2        0.4000000       -0.08702670    0.00000000
                                                     2        0.6000000        0.30134159    0.00000000
                                                     2        0.8000000       -0.50204959    0.00000000
                                                     2        1.2000000        0.52208372    0.00000000
                                      S - F
                                                     0        0.0000010       -0.01618346    0.00000000
                                                     2        0.1200000       -0.07880581    0.00000000
                                                     2        0.1600000        0.32040539    0.00000000
                                                     2        0.2400000       -0.47500956    0.00000000
                                                     2        0.5000000        0.54013668    0.00000000
                                                     2        1.5000000       -1.40434292    0.00000000
                                                     2        3.0000000        1.46283806    0.00000000
                                      P - F
                                                     0        0.0000010        0.00612970    0.00000000
                                                     2        0.1200000        0.02254406    0.00000000
                                                     2        0.1800000       -0.13874529    0.00000000
                                                     2        0.3000000        0.38299049    0.00000000
                                                     2        0.5000000       -0.57923512    0.00000000
                                                     2        1.0000000        0.63021625    0.00000000
                                                     2        2.0000000       -0.79201034    0.00000000
                                      D - F
                                                     0        0.0000010       -0.00296226    0.00000000
                                                     2        0.1200000       -0.00547344    0.00000000
                                                     2        0.1400000        0.01837884    0.00000000
                                                     2        0.2400000       -0.05565704    0.00000000
                                                     2        0.4000000        0.15376597    0.00000000
                                                     2        0.8000000       -0.32464795    0.00000000
    5          1            1
                                      F and up 
                                                     0        0.0000010       -0.00000699    0.00000000
                                                     2        0.1200000        0.00123686    0.00000000
                                                     2        0.1800000       -0.00752022    0.00000000
                                                     2        0.2600000        0.02503380    0.00000000
                                                     2        0.4000000       -0.08702670    0.00000000
                                                     2        0.6000000        0.30134159    0.00000000
                                                     2        0.8000000       -0.50204959    0.00000000
                                                     2        1.2000000        0.52208372    0.00000000
                                      S - F
                                                     0        0.0000010       -0.01618346    0.00000000
                                                     2        0.1200000       -0.07880581    0.00000000
                                                     2        0.1600000        0.32040539    0.00000000
                                                     2        0.2400000       -0.47500956    0.00000000
                                                     2        0.5000000        0.54013668    0.00000000
                                                     2        1.5000000       -1.40434292    0.00000000
                                                     2        3.0000000        1.46283806    0.00000000
                                      P - F
                                                     0        0.0000010        0.00612970    0.00000000
                                                     2        0.1200000        0.02254406    0.00000000
                                                     2        0.1800000       -0.13874529    0.00000000
                                                     2        0.3000000        0.38299049    0.00000000
                                                     2        0.5000000       -0.57923512    0.00000000
                                                     2        1.0000000        0.63021625    0.00000000
                                                     2        2.0000000       -0.79201034    0.00000000
                                      D - F
                                                     0        0.0000010       -0.00296226    0.00000000
                                                     2        0.1200000       -0.00547344    0.00000000
                                                     2        0.1400000        0.01837884    0.00000000
                                                     2        0.2400000       -0.05565704    0.00000000
                                                     2        0.4000000        0.15376597    0.00000000
                                                     2        0.8000000       -0.32464795    0.00000000
    6          8            8
                                      G and up 
                                                     0        0.0000010        0.00001165    0.00000000
                                                     2        0.1200000       -0.01744018    0.00000000
                                                     2        0.1400000        0.05401326    0.00000000
                                                     2        0.1800000       -0.08231208    0.00000000
                                                     2        0.2600000        0.11570222    0.00000000
                                                     2        0.4000000       -0.20630360    0.00000000
                                                     2        0.7000000        0.38074319    0.00000000
                                                     2        1.2000000       -0.17045091    0.00000000
                                                     2        2.0000000       -1.45433187    0.00000000
                                      S - G
                                                     0        0.0000010       -0.00117944    0.00000000
                                                     2        0.1400000        0.04368312    0.00000000
                                                     2        0.3000000       -0.33477926    0.00000000
                                                     2        0.6000000        1.52630657    0.00000000
                                                     2        1.5000000       -2.50804716    0.00000000
                                                     2        3.0000000        2.89751681    0.00000000
                                      P - G
                                                     0        0.0000010        0.06576007    0.00000000
                                                     2        0.1200000       -0.10329304    0.00000000
                                                     2        0.2000000        0.24891756    0.00000000
                                                     2        0.4000000       -0.50800022    0.00000000
                                                     2        0.9000000        0.81480796    0.00000000
                                      D - G
                                                     0        0.0000010       -0.14101855    0.00000000
                                                     2        0.1200000        0.22105937    0.00000000
                                                     2        0.1800000       -0.45814988    0.00000000
                                                     2        0.3000000        0.46029282    0.00000000
                                      F - G
                                                     0        0.0000010        0.07483044    0.00000000
                                                     2        0.1200000       -0.09134252    0.00000000
                                                     2        0.1400000        0.04125459    0.00000000
                                                     2        0.3000000        0.37914837    0.00000000
                                                     2        0.5000000       -0.86881279    0.00000000
    7          7            7
                                      G and up 
                                                     0        0.0000010       -0.00000022    0.00000000
                                                     2        0.1200000       -0.00992020    0.00000000
                                                     2        0.1400000        0.02578711    0.00000000
                                                     2        0.2200000       -0.10543517    0.00000000
                                                     2        0.3000000        0.23013665    0.00000000
                                                     2        0.5000000       -0.60834094    0.00000000
                                                     2        0.8000000        1.81436815    0.00000000
                                                     2        1.2000000       -3.87539738    0.00000000
                                                     2        2.0000000        2.94656640    0.00000000
                                      S - G
                                                     0        0.0000010       -0.00223566    0.00000000
                                                     2        0.1200000        0.45247937    0.00000000
                                                     2        0.1600000       -0.78978304    0.00000000
                                                     2        0.4000000        0.84956595    0.00000000
                                                     2        3.0000000       -0.75910174    0.00000000
                                      P - G
                                                     0        0.0000010       -0.25576737    0.00000000
                                                     2        0.1200000       -0.19992277    0.00000000
                                                     2        0.1600000        0.88518512    0.00000000
                                                     2        0.2400000       -1.33293917    0.00000000
                                                     2        0.4000000        1.33451776    0.00000000
                                                     2        0.9000000       -0.55709210    0.00000000
                                                     2        2.5000000        2.48506502    0.00000000
                                      D - G
                                                     0        0.0000010        0.26143746    0.00000000
                                                     2        0.1200000       -0.04492212    0.00000000
                                                     2        0.1400000       -0.18274021    0.00000000
                                                     2        0.2400000        0.53490004    0.00000000
                                                     2        0.4000000       -0.74136473    0.00000000
                                                     2        1.3000000        1.71401021    0.00000000
                                      F - G
                                                     0        0.0000010       -0.07169988    0.00000000
                                                     2        0.1200000        0.04480029    0.00000000
                                                     2        0.2600000       -0.08050831    0.00000000
                                                     2        0.5000000        0.31290809    0.00000000
                                                     2        1.0000000       -0.45253098    0.00000000
    8          1            1
                                      F and up 
                                                     0        0.0000010       -0.00000699    0.00000000
                                                     2        0.1200000        0.00123686    0.00000000
                                                     2        0.1800000       -0.00752022    0.00000000
                                                     2        0.2600000        0.02503380    0.00000000
                                                     2        0.4000000       -0.08702670    0.00000000
                                                     2        0.6000000        0.30134159    0.00000000
                                                     2        0.8000000       -0.50204959    0.00000000
                                                     2        1.2000000        0.52208372    0.00000000
                                      S - F
                                                     0        0.0000010       -0.01618346    0.00000000
                                                     2        0.1200000       -0.07880581    0.00000000
                                                     2        0.1600000        0.32040539    0.00000000
                                                     2        0.2400000       -0.47500956    0.00000000
                                                     2        0.5000000        0.54013668    0.00000000
                                                     2        1.5000000       -1.40434292    0.00000000
                                                     2        3.0000000        1.46283806    0.00000000
                                      P - F
                                                     0        0.0000010        0.00612970    0.00000000
                                                     2        0.1200000        0.02254406    0.00000000
                                                     2        0.1800000       -0.13874529    0.00000000
                                                     2        0.3000000        0.38299049    0.00000000
                                                     2        0.5000000       -0.57923512    0.00000000
                                                     2        1.0000000        0.63021625    0.00000000
                                                     2        2.0000000       -0.79201034    0.00000000
                                      D - F
                                                     0        0.0000010       -0.00296226    0.00000000
                                                     2        0.1200000       -0.00547344    0.00000000
                                                     2        0.1400000        0.01837884    0.00000000
                                                     2        0.2400000       -0.05565704    0.00000000
                                                     2        0.4000000        0.15376597    0.00000000
                                                     2        0.8000000       -0.32464795    0.00000000
    9          6            6
                                      G and up 
                                                     0        0.0000010       -0.00011185    0.00000000
                                                     2        0.1200000       -0.02301220    0.00000000
                                                     2        0.1400000        0.13317600    0.00000000
                                                     2        0.1600000       -0.19690668    0.00000000
                                                     2        0.2200000        0.23163694    0.00000000
                                                     2        0.3000000       -0.36920489    0.00000000
                                                     2        0.4000000        0.36389709    0.00000000
                                                     2        0.7000000       -0.38862160    0.00000000
                                                     2        1.3000000        0.80803421    0.00000000
                                      S - G
                                                     0        0.0000010        0.00312304    0.00000000
                                                     2        0.1200000       -0.00632892    0.00000000
                                                     2        0.2200000       -0.03780897    0.00000000
                                                     2        0.4000000        0.26269560    0.00000000
                                                     2        0.9000000       -0.28209514    0.00000000
                                                     2        1.5000000       -0.72686737    0.00000000
                                      P - G
                                                     0        0.0000010       -0.01465594    0.00000000
                                                     2        0.1200000        0.07908409    0.00000000
                                                     2        0.1800000       -0.30615861    0.00000000
                                                     2        0.2600000        0.41506950    0.00000000
                                                     2        0.5000000       -0.36252345    0.00000000
                                                     2        0.9000000        0.15124193    0.00000000
                                                     2        3.0000000       -0.80425677    0.00000000
                                      D - G
                                                     0        0.0000010        0.01149631    0.00000000
                                                     2        0.1200000       -0.04713561    0.00000000
                                                     2        0.1600000        0.10865096    0.00000000
                                                     2        0.2800000       -0.15816701    0.00000000
                                                     2        0.7000000        0.65478804    0.00000000
                                                     2        1.3000000       -1.73816624    0.00000000
                                      F - G
                                                     0        0.0000010        0.00481868    0.00000000
                                                     2        0.1200000       -0.04746842    0.00000000
                                                     2        0.1600000        0.09327889    0.00000000
                                                     2        0.4000000       -0.19693326    0.00000000
                                                     2        0.9000000        0.34938253    0.00000000
   10          1            1
                                      F and up 
                                                     0        0.0000010       -0.00000699    0.00000000
                                                     2        0.1200000        0.00123686    0.00000000
                                                     2        0.1800000       -0.00752022    0.00000000
                                                     2        0.2600000        0.02503380    0.00000000
                                                     2        0.4000000       -0.08702670    0.00000000
                                                     2        0.6000000        0.30134159    0.00000000
                                                     2        0.8000000       -0.50204959    0.00000000
                                                     2        1.2000000        0.52208372    0.00000000
                                      S - F
                                                     0        0.0000010       -0.01618346    0.00000000
                                                     2        0.1200000       -0.07880581    0.00000000
                                                     2        0.1600000        0.32040539    0.00000000
                                                     2        0.2400000       -0.47500956    0.00000000
                                                     2        0.5000000        0.54013668    0.00000000
                                                     2        1.5000000       -1.40434292    0.00000000
                                                     2        3.0000000        1.46283806    0.00000000
                                      P - F
                                                     0        0.0000010        0.00612970    0.00000000
                                                     2        0.1200000        0.02254406    0.00000000
                                                     2        0.1800000       -0.13874529    0.00000000
                                                     2        0.3000000        0.38299049    0.00000000
                                                     2        0.5000000       -0.57923512    0.00000000
                                                     2        1.0000000        0.63021625    0.00000000
                                                     2        2.0000000       -0.79201034    0.00000000
                                      D - F
                                                     0        0.0000010       -0.00296226    0.00000000
                                                     2        0.1200000       -0.00547344    0.00000000
                                                     2        0.1400000        0.01837884    0.00000000
                                                     2        0.2400000       -0.05565704    0.00000000
                                                     2        0.4000000        0.15376597    0.00000000
                                                     2        0.8000000       -0.32464795    0.00000000
   11          1            1
                                      F and up 
                                                     0        0.0000010       -0.00000699    0.00000000
                                                     2        0.1200000        0.00123686    0.00000000
                                                     2        0.1800000       -0.00752022    0.00000000
                                                     2        0.2600000        0.02503380    0.00000000
                                                     2        0.4000000       -0.08702670    0.00000000
                                                     2        0.6000000        0.30134159    0.00000000
                                                     2        0.8000000       -0.50204959    0.00000000
                                                     2        1.2000000        0.52208372    0.00000000
                                      S - F
                                                     0        0.0000010       -0.01618346    0.00000000
                                                     2        0.1200000       -0.07880581    0.00000000
                                                     2        0.1600000        0.32040539    0.00000000
                                                     2        0.2400000       -0.47500956    0.00000000
                                                     2        0.5000000        0.54013668    0.00000000
                                                     2        1.5000000       -1.40434292    0.00000000
                                                     2        3.0000000        1.46283806    0.00000000
                                      P - F
                                                     0        0.0000010        0.00612970    0.00000000
                                                     2        0.1200000        0.02254406    0.00000000
                                                     2        0.1800000       -0.13874529    0.00000000
                                                     2        0.3000000        0.38299049    0.00000000
                                                     2        0.5000000       -0.57923512    0.00000000
                                                     2        1.0000000        0.63021625    0.00000000
                                                     2        2.0000000       -0.79201034    0.00000000
                                      D - F
                                                     0        0.0000010       -0.00296226    0.00000000
                                                     2        0.1200000       -0.00547344    0.00000000
                                                     2        0.1400000        0.01837884    0.00000000
                                                     2        0.2400000       -0.05565704    0.00000000
                                                     2        0.4000000        0.15376597    0.00000000
                                                     2        0.8000000       -0.32464795    0.00000000
   12          1            1
                                      F and up 
                                                     0        0.0000010       -0.00000699    0.00000000
                                                     2        0.1200000        0.00123686    0.00000000
                                                     2        0.1800000       -0.00752022    0.00000000
                                                     2        0.2600000        0.02503380    0.00000000
                                                     2        0.4000000       -0.08702670    0.00000000
                                                     2        0.6000000        0.30134159    0.00000000
                                                     2        0.8000000       -0.50204959    0.00000000
                                                     2        1.2000000        0.52208372    0.00000000
                                      S - F
                                                     0        0.0000010       -0.01618346    0.00000000
                                                     2        0.1200000       -0.07880581    0.00000000
                                                     2        0.1600000        0.32040539    0.00000000
                                                     2        0.2400000       -0.47500956    0.00000000
                                                     2        0.5000000        0.54013668    0.00000000
                                                     2        1.5000000       -1.40434292    0.00000000
                                                     2        3.0000000        1.46283806    0.00000000
                                      P - F
                                                     0        0.0000010        0.00612970    0.00000000
                                                     2        0.1200000        0.02254406    0.00000000
                                                     2        0.1800000       -0.13874529    0.00000000
                                                     2        0.3000000        0.38299049    0.00000000
                                                     2        0.5000000       -0.57923512    0.00000000
                                                     2        1.0000000        0.63021625    0.00000000
                                                     2        2.0000000       -0.79201034    0.00000000
                                      D - F
                                                     0        0.0000010       -0.00296226    0.00000000
                                                     2        0.1200000       -0.00547344    0.00000000
                                                     2        0.1400000        0.01837884    0.00000000
                                                     2        0.2400000       -0.05565704    0.00000000
                                                     2        0.4000000        0.15376597    0.00000000
                                                     2        0.8000000       -0.32464795    0.00000000
   13          1            1
                                      F and up 
                                                     0        0.0000010       -0.00000699    0.00000000
                                                     2        0.1200000        0.00123686    0.00000000
                                                     2        0.1800000       -0.00752022    0.00000000
                                                     2        0.2600000        0.02503380    0.00000000
                                                     2        0.4000000       -0.08702670    0.00000000
                                                     2        0.6000000        0.30134159    0.00000000
                                                     2        0.8000000       -0.50204959    0.00000000
                                                     2        1.2000000        0.52208372    0.00000000
                                      S - F
                                                     0        0.0000010       -0.01618346    0.00000000
                                                     2        0.1200000       -0.07880581    0.00000000
                                                     2        0.1600000        0.32040539    0.00000000
                                                     2        0.2400000       -0.47500956    0.00000000
                                                     2        0.5000000        0.54013668    0.00000000
                                                     2        1.5000000       -1.40434292    0.00000000
                                                     2        3.0000000        1.46283806    0.00000000
                                      P - F
                                                     0        0.0000010        0.00612970    0.00000000
                                                     2        0.1200000        0.02254406    0.00000000
                                                     2        0.1800000       -0.13874529    0.00000000
                                                     2        0.3000000        0.38299049    0.00000000
                                                     2        0.5000000       -0.57923512    0.00000000
                                                     2        1.0000000        0.63021625    0.00000000
                                                     2        2.0000000       -0.79201034    0.00000000
                                      D - F
                                                     0        0.0000010       -0.00296226    0.00000000
                                                     2        0.1200000       -0.00547344    0.00000000
                                                     2        0.1400000        0.01837884    0.00000000
                                                     2        0.2400000       -0.05565704    0.00000000
                                                     2        0.4000000        0.15376597    0.00000000
                                                     2        0.8000000       -0.32464795    0.00000000
   14          1            1
                                      F and up 
                                                     0        0.0000010       -0.00000699    0.00000000
                                                     2        0.1200000        0.00123686    0.00000000
                                                     2        0.1800000       -0.00752022    0.00000000
                                                     2        0.2600000        0.02503380    0.00000000
                                                     2        0.4000000       -0.08702670    0.00000000
                                                     2        0.6000000        0.30134159    0.00000000
                                                     2        0.8000000       -0.50204959    0.00000000
                                                     2        1.2000000        0.52208372    0.00000000
                                      S - F
                                                     0        0.0000010       -0.01618346    0.00000000
                                                     2        0.1200000       -0.07880581    0.00000000
                                                     2        0.1600000        0.32040539    0.00000000
                                                     2        0.2400000       -0.47500956    0.00000000
                                                     2        0.5000000        0.54013668    0.00000000
                                                     2        1.5000000       -1.40434292    0.00000000
                                                     2        3.0000000        1.46283806    0.00000000
                                      P - F
                                                     0        0.0000010        0.00612970    0.00000000
                                                     2        0.1200000        0.02254406    0.00000000
                                                     2        0.1800000       -0.13874529    0.00000000
                                                     2        0.3000000        0.38299049    0.00000000
                                                     2        0.5000000       -0.57923512    0.00000000
                                                     2        1.0000000        0.63021625    0.00000000
                                                     2        2.0000000       -0.79201034    0.00000000
                                      D - F
                                                     0        0.0000010       -0.00296226    0.00000000
                                                     2        0.1200000       -0.00547344    0.00000000
                                                     2        0.1400000        0.01837884    0.00000000
                                                     2        0.2400000       -0.05565704    0.00000000
                                                     2        0.4000000        0.15376597    0.00000000
                                                     2        0.8000000       -0.32464795    0.00000000
   15          1            1
                                      F and up 
                                                     0        0.0000010       -0.00000699    0.00000000
                                                     2        0.1200000        0.00123686    0.00000000
                                                     2        0.1800000       -0.00752022    0.00000000
                                                     2        0.2600000        0.02503380    0.00000000
                                                     2        0.4000000       -0.08702670    0.00000000
                                                     2        0.6000000        0.30134159    0.00000000
                                                     2        0.8000000       -0.50204959    0.00000000
                                                     2        1.2000000        0.52208372    0.00000000
                                      S - F
                                                     0        0.0000010       -0.01618346    0.00000000
                                                     2        0.1200000       -0.07880581    0.00000000
                                                     2        0.1600000        0.32040539    0.00000000
                                                     2        0.2400000       -0.47500956    0.00000000
                                                     2        0.5000000        0.54013668    0.00000000
                                                     2        1.5000000       -1.40434292    0.00000000
                                                     2        3.0000000        1.46283806    0.00000000
                                      P - F
                                                     0        0.0000010        0.00612970    0.00000000
                                                     2        0.1200000        0.02254406    0.00000000
                                                     2        0.1800000       -0.13874529    0.00000000
                                                     2        0.3000000        0.38299049    0.00000000
                                                     2        0.5000000       -0.57923512    0.00000000
                                                     2        1.0000000        0.63021625    0.00000000
                                                     2        2.0000000       -0.79201034    0.00000000
                                      D - F
                                                     0        0.0000010       -0.00296226    0.00000000
                                                     2        0.1200000       -0.00547344    0.00000000
                                                     2        0.1400000        0.01837884    0.00000000
                                                     2        0.2400000       -0.05565704    0.00000000
                                                     2        0.4000000        0.15376597    0.00000000
                                                     2        0.8000000       -0.32464795    0.00000000
 ======================================================================================================
   227 basis functions,   433 primitive gaussians,   239 cartesian basis functions
    32 alpha electrons       32 beta electrons
       nuclear repulsion energy       348.4487461345 Hartrees.
 NAtoms=   15 NActive=   15 NUniq=   15 SFac= 1.00D+00 NAtFMM=   60 NAOKFM=F Big=F
   1 Symmetry operations used in ECPInt.
 ECPInt:  NShTT=    5356 NPrTT=   29612 LenC2=    5319 LenP2D=   21375.
 LDataN:  DoStor=T MaxTD1= 6 Len=  172
 Initial guess from the checkpoint file:  "BDE49_nonexpt_2372_mol1.chk"
 B after Tr=     0.000000   -0.000000   -0.000000
         Rot=    1.000000   -0.000000    0.000000   -0.000000 Ang=   0.00 deg.
 >>>>>>>>>> Convergence criterion not met.
 SCF Done:  E(RHF) =  -788.285640097     A.U. after    2 cycles
            NFock=  1  Conv=0.44D-02     -V/T= 2.0019

 **********************************************************************

            Population analysis using the SCF Density.

 **********************************************************************

 Orbital symmetries:
       Occupied  (A) (A) (A) (A) (A) (A) (A) (A) (A) (A) (A) (A)
                 (A) (A) (A) (A) (A) (A) (A) (A) (A) (A) (A) (A)
                 (A) (A) (A) (A) (A) (A) (A) (A)
       Virtual   (A) (A) (A) (A) (A) (A) (A) (A) (A) (A) (A) (A)
                 (A) (A) (A) (A) (A) (A) (A) (A) (A) (A) (A) (A)
                 (A) (A) (A) (A) (A) (A) (A) (A) (A) (A) (A) (A)
                 (A) (A) (A) (A) (A) (A) (A) (A) (A) (A) (A) (A)
                 (A) (A) (A) (A) (A) (A) (A) (A) (A) (A) (A) (A)
                 (A) (A) (A) (A) (A) (A) (A) (A) (A) (A) (A) (A)
                 (A) (A) (A) (A) (A) (A) (A) (A) (A) (A) (A) (A)
                 (A) (A) (A) (A) (A) (A) (A) (A) (A) (A) (A) (A)
                 (A) (A) (A) (A) (A) (A) (A) (A) (A) (A) (A) (A)
                 (A) (A) (A) (A) (A) (A) (A) (A) (A) (A) (A) (A)
                 (A) (A) (A) (A) (A) (A) (A) (A) (A) (A) (A) (A)
                 (A) (A) (A) (A) (A) (A) (A) (A) (A) (A) (A) (A)
                 (A) (A) (A) (A) (A) (A) (A) (A) (A) (A) (A) (A)
                 (A) (A) (A) (A) (A) (A) (A) (A) (A) (A) (A) (A)
                 (A) (A) (A) (A) (A) (A) (A) (A) (A) (A) (A) (A)
                 (A) (A) (A) (A) (A) (A) (A) (A) (A) (A) (A) (A)
                 (A) (A) (A)
 The electronic state is 1-A.
 Alpha  occ. eigenvalues --  -69.07391 -69.06434 -20.53943 -15.65804 -11.35230
 Alpha  occ. eigenvalues --  -11.27443  -6.82821  -6.81843  -3.93590  -3.93559
 Alpha  occ. eigenvalues --   -3.93520  -3.92601  -3.92594  -3.92580  -1.34190
 Alpha  occ. eigenvalues --   -1.19697  -0.95762  -0.79967  -0.76372  -0.70199
 Alpha  occ. eigenvalues --   -0.65240  -0.63763  -0.62642  -0.56471  -0.55284
 Alpha  occ. eigenvalues --   -0.54931  -0.49979  -0.48460  -0.47526  -0.41628
 Alpha  occ. eigenvalues --   -0.39805  -0.39647
 Alpha virt. eigenvalues --    0.02878   0.03908   0.04238   0.05084   0.05790
 Alpha virt. eigenvalues --    0.06839   0.06920   0.07525   0.07984   0.08549
 Alpha virt. eigenvalues --    0.09370   0.09635   0.09967   0.10395   0.10758
 Alpha virt. eigenvalues --    0.12463   0.12705   0.14258   0.14424   0.15312
 Alpha virt. eigenvalues --    0.15495   0.15941   0.16029   0.17249   0.18191
 Alpha virt. eigenvalues --    0.19545   0.20118   0.20461   0.21034   0.21835
 Alpha virt. eigenvalues --    0.22432   0.23129   0.24562   0.24880   0.25926
 Alpha virt. eigenvalues --    0.27991   0.28532   0.29524   0.30341   0.31685
 Alpha virt. eigenvalues --    0.32633   0.33091   0.33618   0.34225   0.35157
 Alpha virt. eigenvalues --    0.37201   0.37422   0.38884   0.39677   0.39927
 Alpha virt. eigenvalues --    0.41010   0.41714   0.42351   0.42436   0.43262
 Alpha virt. eigenvalues --    0.44013   0.44968   0.45580   0.46364   0.46770
 Alpha virt. eigenvalues --    0.48067   0.49088   0.49497   0.50687   0.51560
 Alpha virt. eigenvalues --    0.52900   0.54302   0.54723   0.55522   0.55926
 Alpha virt. eigenvalues --    0.56198   0.57201   0.58000   0.59353   0.59719
 Alpha virt. eigenvalues --    0.61485   0.61703   0.62024   0.63355   0.64767
 Alpha virt. eigenvalues --    0.65048   0.66588   0.66749   0.67172   0.68239
 Alpha virt. eigenvalues --    0.69053   0.69645   0.71016   0.71493   0.72178
 Alpha virt. eigenvalues --    0.72616   0.73822   0.74481   0.76665   0.77130
 Alpha virt. eigenvalues --    0.78679   0.80787   0.81845   0.82368   0.84206
 Alpha virt. eigenvalues --    0.86115   0.87217   0.87848   0.90059   0.91348
 Alpha virt. eigenvalues --    0.92776   0.96962   0.97463   1.00080   1.00740
 Alpha virt. eigenvalues --    1.01233   1.02490   1.04110   1.05325   1.07446
 Alpha virt. eigenvalues --    1.08457   1.11342   1.12786   1.15007   1.16237
 Alpha virt. eigenvalues --    1.18142   1.20949   1.26157   1.30760   1.32192
 Alpha virt. eigenvalues --    1.33225   1.36288   1.40238   1.43857   1.45435
 Alpha virt. eigenvalues --    1.45883   1.47172   1.47917   1.52278   1.54069
 Alpha virt. eigenvalues --    1.56709   1.65868   1.67929   1.72252   1.72740
 Alpha virt. eigenvalues --    1.74263   1.81394   1.83270   1.85303   1.88201
 Alpha virt. eigenvalues --    1.89615   1.90759   1.92696   1.93836   1.94810
 Alpha virt. eigenvalues --    1.99086   2.01110   2.03559   2.04924   2.06398
 Alpha virt. eigenvalues --    2.08514   2.09745   2.10665   2.14177   2.14601
 Alpha virt. eigenvalues --    2.15804   2.19267   2.21094   2.22185   2.24030
 Alpha virt. eigenvalues --    2.26366   2.27987   2.28194   2.31334   2.32579
 Alpha virt. eigenvalues --    2.37041   2.38704   2.40606   2.46159   2.46334
 Alpha virt. eigenvalues --    2.57312   2.60354   2.65864   2.74549   2.79249
 Alpha virt. eigenvalues --    2.84881   2.86208   2.93955   3.01354   3.06755
 Alpha virt. eigenvalues --    3.09407   3.19841   3.36368   3.44212   3.61335
 Alpha virt. eigenvalues --    3.62633   3.65649   3.73403   3.85374   4.01854
          Condensed to atoms (all electrons):
 Mulliken charges:
               1
     1  Si  -0.177225
     2  Si   0.157701
     3  C    0.383150
     4  H    0.071541
     5  H    0.002012
     6  O   -0.551973
     7  N   -0.315971
     8  H    0.058502
     9  C    0.795518
    10  H   -0.159233
    11  H   -0.112131
    12  H   -0.119491
    13  H    0.018996
    14  H    0.051634
    15  H   -0.103031
 Sum of Mulliken charges =  -0.00000
 Mulliken charges with hydrogens summed into heavy atoms:
               1
     1  Si  -0.048092
     2  Si   0.231253
     3  C    0.383150
     6  O   -0.551973
     7  N   -0.419002
     9  C    0.404664
 Electronic spatial extent (au):  <R**2>=           1294.6194
 Charge=             -0.0000 electrons
 Dipole moment (field-independent basis, Debye):
    X=              1.0770    Y=              3.0137    Z=             -2.1922  Tot=              3.8792

 Test job not archived.
 1\1\GINC-SE423\SP\RHF\Aug-CC-pVDZ\C2H9N1O1Si2\OHZDE\09-Apr-2025\0\\#t 
 hf aug-cc-pvdz iop(5/13=1,5/36=2,99/5=2) pseudo=read geom=check guess=
 (read,tcheck) scf=(maxcycle=1)\\title\\0,1\Si,0,-2.527894,-0.467107,-0
 .402406\Si,0,-0.795866,0.938386,0.351638\C,0,0.847707,-0.065123,0.3078
 89\H,0,-1.014614,1.348386,1.75807\H,0,-0.701889,2.168719,-0.483017\O,0
 ,0.877666,-1.135552,0.903239\N,0,1.908723,0.43925,-0.38596\H,0,-2.2098
 84,-0.966219,-1.762066\C,0,3.19181,-0.24513,-0.481448\H,0,3.096978,-1.
 190036,0.050654\H,0,3.989055,0.345299,-0.021108\H,0,3.45236,-0.444248,
 -1.524509\H,0,-3.800112,0.293405,-0.467629\H,0,-2.699294,-1.616499,0.5
 1323\H,0,1.800548,1.334482,-0.835706\\Version=ES64L-G16RevC.01\State=1
 -A\HF=-788.2856401\RMSD=4.389e-03\Dipole=0.4237128,1.1856805,-0.862477
 6\Quadrupole=4.0358174,-2.2392572,-1.7965602,2.0926956,-2.7887222,1.32
 48317\PG=C01 [X(C2H9N1O1Si2)]\\@


 THE TEST OF A FIRST RATE INTELLIGENCE IS THE ABILITY TO HOLD TWO OPPOSED
 IDEAS IN THE MIND AT THE SAME TIME, AND STILL RETAIN THE ABILITY TO FUNCTION.
 ONE SHOULD, FOR EXAMPLE, BE ABLE TO SEE THAT THINGS ARE HOPELESS AND YET BE
 DETERMINED TO MAKE THEM OTHERWISE.

                                                       -- F. SCOTT FITZGERALD
 Job cpu time:       0 days  0 hours  1 minutes  1.0 seconds.
 Elapsed time:       0 days  0 hours  0 minutes  4.6 seconds.
 File lengths (MBytes):  RWF=     10 Int=      0 D2E=      0 Chk=      8 Scr=      1
 Normal termination of Gaussian 16 at Wed Apr  9 00:10:20 2025.
