 Entering Gaussian System, Link 0=g16
 Input=BDE49_expt_1016_mol1.gjf
 Output=BDE49_expt_1016_mol1.log
 Initial command:
 /arc/software/Gaussian/g16.c01/l1.exe "/tmp/slurm/4840494/Gau-1755432.inp" -scrdir="/tmp/slurm/4840494/"
 Entering Link 1 = /arc/software/Gaussian/g16.c01/l1.exe PID=   1755433.
  
 Copyright (c) 1988-2019, Gaussian, Inc.  All Rights Reserved.
  
 This is part of the Gaussian(R) 16 program.  It is based on
 the Gaussian(R) 09 system (copyright 2009, Gaussian, Inc.),
 the Gaussian(R) 03 system (copyright 2003, Gaussian, Inc.),
 the Gaussian(R) 98 system (copyright 1998, Gaussian, Inc.),
 the Gaussian(R) 94 system (copyright 1995, Gaussian, Inc.),
 the Gaussian 92(TM) system (copyright 1992, Gaussian, Inc.),
 the Gaussian 90(TM) system (copyright 1990, Gaussian, Inc.),
 the Gaussian 88(TM) system (copyright 1988, Gaussian, Inc.),
 the Gaussian 86(TM) system (copyright 1986, Carnegie Mellon
 University), and the Gaussian 82(TM) system (copyright 1983,
 Carnegie Mellon University). Gaussian is a federally registered
 trademark of Gaussian, Inc.
  
 This software contains proprietary and confidential information,
 including trade secrets, belonging to Gaussian, Inc.
  
 This software is provided under written license and may be
 used, copied, transmitted, or stored only in accord with that
 written license.
  
 The following legend is applicable only to US Government
 contracts under FAR:
  
                    RESTRICTED RIGHTS LEGEND
  
 Use, reproduction and disclosure by the US Government is
 subject to restrictions as set forth in subparagraphs (a)
 and (c) of the Commercial Computer Software - Restricted
 Rights clause in FAR 52.227-19.
  
 Gaussian, Inc.
 340 Quinnipiac St., Bldg. 40, Wallingford CT 06492
  
  
 ---------------------------------------------------------------
 Warning -- This program may not be used in any manner that
 competes with the business of Gaussian, Inc. or will provide
 assistance to any competitor of Gaussian, Inc.  The licensee
 of this program is prohibited from giving any competitor of
 Gaussian, Inc. access to this program.  By using this program,
 the user acknowledges that Gaussian, Inc. is engaged in the
 business of creating and licensing software in the field of
 computational chemistry and represents and warrants to the
 licensee that it is not a competitor of Gaussian, Inc. and that
 it will not use this program in any manner prohibited above.
 ---------------------------------------------------------------
  

 Cite this work as:
 Gaussian 16, Revision C.01,
 M. J. Frisch, G. W. Trucks, H. B. Schlegel, G. E. Scuseria, 
 M. A. Robb, J. R. Cheeseman, G. Scalmani, V. Barone, 
 G. A. Petersson, H. Nakatsuji, X. Li, M. Caricato, A. V. Marenich, 
 J. Bloino, B. G. Janesko, R. Gomperts, B. Mennucci, H. P. Hratchian, 
 J. V. Ortiz, A. F. Izmaylov, J. L. Sonnenberg, D. Williams-Young, 
 F. Ding, F. Lipparini, F. Egidi, J. Goings, B. Peng, A. Petrone, 
 T. Henderson, D. Ranasinghe, V. G. Zakrzewski, J. Gao, N. Rega, 
 G. Zheng, W. Liang, M. Hada, M. Ehara, K. Toyota, R. Fukuda, 
 J. Hasegawa, M. Ishida, T. Nakajima, Y. Honda, O. Kitao, H. Nakai, 
 T. Vreven, K. Throssell, J. A. Montgomery, Jr., J. E. Peralta, 
 F. Ogliaro, M. J. Bearpark, J. J. Heyd, E. N. Brothers, K. N. Kudin, 
 V. N. Staroverov, T. A. Keith, R. Kobayashi, J. Normand, 
 K. Raghavachari, A. P. Rendell, J. C. Burant, S. S. Iyengar, 
 J. Tomasi, M. Cossi, J. M. Millam, M. Klene, C. Adamo, R. Cammi, 
 J. W. Ochterski, R. L. Martin, K. Morokuma, O. Farkas, 
 J. B. Foresman, and D. J. Fox, Gaussian, Inc., Wallingford CT, 2019.
 
 ******************************************
 Gaussian 16:  ES64L-G16RevC.01  3-Jul-2019
                 8-Apr-2025 
 ******************************************
 %nprocs=16
 Will use up to   16 processors via shared memory.
 %mem=30GB
 %chk=BDE49_expt_1016_mol1.chk
 ----------------------------------------------------------------------
 #t hf aug-cc-pvdz symm=none int=(grid=ultrafine) guess=(read,tcheck) s
 table=(opt,rrhf)
 ----------------------------------------------------------------------
 -----
 title
 -----
 Symbolic Z-matrix:
 Charge =  0 Multiplicity = 1
 C                     0.41001  -0.08011  -0.35908 
 C                    -0.66712  -0.83246   0.40353 
 Cl                    1.99511  -0.87359  -0.0152 
 Cl                    0.46566   1.65632   0.08065 
 H                     0.26334  -0.12826  -1.43327 
 H                    -0.57125  -0.66885   1.47442 
 H                    -0.59424  -1.89411   0.17654 
 Cl                   -2.31696  -0.30234  -0.09395 
 
                    Distance matrix (angstroms):
                    1          2          3          4          5
     1  C    0.000000
     2  C    1.519148   0.000000
     3  Cl   1.805651   2.695264   0.000000
     4  Cl   1.792097   2.753442   2.957836   0.000000
     5  H    1.085227   2.176108   2.359113   2.348959   0.000000
     6  H    2.161293   1.087554   2.974401   2.902436   3.073011
     7  H    2.141506   1.088086   2.789797   3.706498   2.538733
     8  Cl   2.748827   1.802910   4.350448   3.407309   2.912390
                    6          7          8
     6  H    0.000000
     7  H    1.785017   0.000000
     8  Cl   2.375203   2.361071   0.000000
 Symmetry turned off by external request.
 Rotational constants (GHZ):           3.4489070           1.4400696           1.0510355
   154 basis functions,   362 primitive gaussians,   164 cartesian basis functions
    33 alpha electrons       33 beta electrons
       nuclear repulsion energy       337.4528791201 Hartrees.
 NAtoms=    8 NActive=    8 NUniq=    8 SFac= 1.00D+00 NAtFMM=   60 NAOKFM=F Big=F
 ExpMin= 2.97D-02 ExpMax= 1.28D+05 ExpMxC= 1.24D+03 IAcc=3 IRadAn=         5 AccDes= 0.00D+00
 Harris functional with IExCor=  205 and IRadAn=       5 diagonalized for initial guess.
 HarFok:  IExCor=  205 AccDes= 0.00D+00 IRadAn=         5 IDoV= 1 UseB2=F ITyADJ=14
 ICtDFT=  3500011 ScaDFX=  1.000000  1.000000  1.000000  1.000000
 FoFCou: FMM=F IPFlag=           0 FMFlag=      100000 FMFlg1=           0
         NFxFlg=           0 DoJE=T BraDBF=F KetDBF=T FulRan=T
         wScrn=  0.000000 ICntrl=       500 IOpCl=  0 I1Cent=   200000004 NGrid=           0
         NMat0=    1 NMatS0=      1 NMatT0=    0 NMatD0=    1 NMtDS0=    0 NMtDT0=    0
 Symmetry not used in FoFCou.
 SCF Done:  E(RHF) =  -1456.00322394     A.U. after   12 cycles
            NFock= 12  Conv=0.98D-08     -V/T= 2.0001

 **********************************************************************

            Population analysis using the SCF Density.

 **********************************************************************

 Alpha  occ. eigenvalues -- -104.85840-104.85362-104.84530 -11.39555 -11.33717
 Alpha  occ. eigenvalues --  -10.58434 -10.57973 -10.57117  -8.05195  -8.04860
 Alpha  occ. eigenvalues --   -8.04852  -8.04740  -8.04393  -8.04390  -8.03883
 Alpha  occ. eigenvalues --   -8.03559  -8.03546  -1.22025  -1.14033  -1.10435
 Alpha  occ. eigenvalues --   -0.98108  -0.85012  -0.69188  -0.63857  -0.63460
 Alpha  occ. eigenvalues --   -0.58239  -0.54808  -0.48494  -0.47890  -0.46893
 Alpha  occ. eigenvalues --   -0.45713  -0.45376  -0.44811
 Alpha virt. eigenvalues --    0.03858   0.04747   0.05765   0.07159   0.08277
 Alpha virt. eigenvalues --    0.09821   0.11926   0.13078   0.13965   0.14607
 Alpha virt. eigenvalues --    0.15421   0.16019   0.16746   0.17381   0.17544
 Alpha virt. eigenvalues --    0.18070   0.18643   0.18792   0.19131   0.20292
 Alpha virt. eigenvalues --    0.21927   0.23269   0.25786   0.28888   0.29432
 Alpha virt. eigenvalues --    0.31789   0.33027   0.33945   0.35987   0.37825
 Alpha virt. eigenvalues --    0.38828   0.41604   0.43011   0.44118   0.45936
 Alpha virt. eigenvalues --    0.46565   0.47516   0.48223   0.48544   0.51795
 Alpha virt. eigenvalues --    0.52144   0.53649   0.55234   0.57325   0.59034
 Alpha virt. eigenvalues --    0.60881   0.61550   0.62966   0.63353   0.64922
 Alpha virt. eigenvalues --    0.67728   0.68910   0.71828   0.72791   0.74255
 Alpha virt. eigenvalues --    0.75352   0.75797   0.77534   0.81292   0.83142
 Alpha virt. eigenvalues --    0.86087   0.87703   0.90064   0.93436   0.97393
 Alpha virt. eigenvalues --    0.99041   1.00757   1.03636   1.05114   1.06070
 Alpha virt. eigenvalues --    1.07958   1.09478   1.10680   1.14589   1.19501
 Alpha virt. eigenvalues --    1.21874   1.25196   1.29686   1.36473   1.38591
 Alpha virt. eigenvalues --    1.39867   1.42109   1.42420   1.42836   1.43380
 Alpha virt. eigenvalues --    1.45164   1.46090   1.46811   1.47990   1.48384
 Alpha virt. eigenvalues --    1.50698   1.52638   1.54433   1.55492   1.59647
 Alpha virt. eigenvalues --    1.64554   1.71415   1.76960   1.78905   1.83711
 Alpha virt. eigenvalues --    1.84996   1.89726   1.96815   2.01206   2.03144
 Alpha virt. eigenvalues --    2.08631   2.12154   2.16029   2.18097   2.26772
 Alpha virt. eigenvalues --    2.33875   2.35612   2.37623   2.42208   2.50373
 Alpha virt. eigenvalues --    2.53141   2.59441   2.86693   2.87583   2.91642
 Alpha virt. eigenvalues --    3.03705
          Condensed to atoms (all electrons):
 Mulliken charges:
               1
     1  C   -0.468850
     2  C    0.233271
     3  Cl  -0.027982
     4  Cl  -0.005665
     5  H    0.147923
     6  H    0.122832
     7  H    0.081533
     8  Cl  -0.083061
 Sum of Mulliken charges =  -0.00000
 Mulliken charges with hydrogens summed into heavy atoms:
               1
     1  C   -0.320927
     2  C    0.437636
     3  Cl  -0.027982
     4  Cl  -0.005665
     8  Cl  -0.083061
 Electronic spatial extent (au):  <R**2>=            983.2437
 Charge=             -0.0000 electrons
 Dipole moment (field-independent basis, Debye):
    X=              0.0982    Y=             -1.4098    Z=             -0.1101  Tot=              1.4175
 NROrb=    154 NOA=    33 NOB=    33 NVA=   121 NVB=   121

 **** Warning!!: The largest alpha MO coefficient is  0.23330404D+02

    12 initial guesses have been made.
 Iteration     1 Dimension    12 NMult     0 NNew     12
 Iteration     2 Dimension    24 NMult    12 NNew     12
 Iteration     3 Dimension    27 NMult    24 NNew      3
 Iteration     4 Dimension    30 NMult    27 NNew      3
 Iteration     5 Dimension    33 NMult    30 NNew      3
 Iteration     6 Dimension    36 NMult    33 NNew      3
 Iteration     7 Dimension    39 NMult    36 NNew      3
 Iteration     8 Dimension    42 NMult    39 NNew      3
 Iteration     9 Dimension    45 NMult    42 NNew      3
 ***********************************************************************
 Stability analysis using <AA,BB:AA,BB> singles matrix:
 ***********************************************************************
 Ground to excited state transition densities written to RWF  633

 Eigenvectors of the stability matrix:
 
 Excited state symmetry could not be determined.
 Eigenvector   1:      Singlet-?Sym  Eigenvalue= 0.2880661  <S**2>=0.000
      28 -> 39         0.11327
      28 -> 44         0.13815
      28 -> 55        -0.13281
      31 -> 37        -0.11542
      31 -> 38        -0.13644
      31 -> 40         0.13900
      31 -> 41         0.14668
      32 -> 38         0.11782
      33 -> 37         0.15547
      33 -> 38         0.20137
      33 -> 40        -0.18471
      33 -> 41        -0.19494
      33 -> 48         0.12925
 The wavefunction is stable under the perturbations considered.
 The wavefunction is already stable.

 **********************************************************************

            Population analysis using the SCF Density.

 **********************************************************************

 Alpha  occ. eigenvalues -- -104.85840-104.85362-104.84530 -11.39555 -11.33717
 Alpha  occ. eigenvalues --  -10.58434 -10.57973 -10.57117  -8.05195  -8.04860
 Alpha  occ. eigenvalues --   -8.04852  -8.04740  -8.04393  -8.04390  -8.03883
 Alpha  occ. eigenvalues --   -8.03559  -8.03546  -1.22025  -1.14033  -1.10435
 Alpha  occ. eigenvalues --   -0.98108  -0.85012  -0.69188  -0.63857  -0.63460
 Alpha  occ. eigenvalues --   -0.58239  -0.54808  -0.48494  -0.47890  -0.46893
 Alpha  occ. eigenvalues --   -0.45713  -0.45376  -0.44811
 Alpha virt. eigenvalues --    0.03858   0.04747   0.05765   0.07159   0.08277
 Alpha virt. eigenvalues --    0.09821   0.11926   0.13078   0.13965   0.14607
 Alpha virt. eigenvalues --    0.15421   0.16019   0.16746   0.17381   0.17544
 Alpha virt. eigenvalues --    0.18070   0.18643   0.18792   0.19131   0.20292
 Alpha virt. eigenvalues --    0.21927   0.23269   0.25786   0.28888   0.29432
 Alpha virt. eigenvalues --    0.31789   0.33027   0.33945   0.35987   0.37825
 Alpha virt. eigenvalues --    0.38828   0.41604   0.43011   0.44118   0.45936
 Alpha virt. eigenvalues --    0.46565   0.47516   0.48223   0.48544   0.51795
 Alpha virt. eigenvalues --    0.52144   0.53649   0.55234   0.57325   0.59034
 Alpha virt. eigenvalues --    0.60881   0.61550   0.62966   0.63353   0.64922
 Alpha virt. eigenvalues --    0.67728   0.68910   0.71828   0.72791   0.74255
 Alpha virt. eigenvalues --    0.75352   0.75797   0.77534   0.81292   0.83142
 Alpha virt. eigenvalues --    0.86087   0.87703   0.90064   0.93436   0.97393
 Alpha virt. eigenvalues --    0.99041   1.00757   1.03636   1.05114   1.06070
 Alpha virt. eigenvalues --    1.07958   1.09478   1.10680   1.14589   1.19501
 Alpha virt. eigenvalues --    1.21874   1.25196   1.29686   1.36473   1.38591
 Alpha virt. eigenvalues --    1.39867   1.42109   1.42420   1.42836   1.43380
 Alpha virt. eigenvalues --    1.45164   1.46090   1.46811   1.47990   1.48384
 Alpha virt. eigenvalues --    1.50698   1.52638   1.54433   1.55492   1.59647
 Alpha virt. eigenvalues --    1.64554   1.71415   1.76960   1.78905   1.83711
 Alpha virt. eigenvalues --    1.84996   1.89726   1.96815   2.01206   2.03144
 Alpha virt. eigenvalues --    2.08631   2.12154   2.16029   2.18097   2.26772
 Alpha virt. eigenvalues --    2.33875   2.35612   2.37623   2.42208   2.50373
 Alpha virt. eigenvalues --    2.53141   2.59441   2.86693   2.87583   2.91642
 Alpha virt. eigenvalues --    3.03705
          Condensed to atoms (all electrons):
 Mulliken charges:
               1
     1  C   -0.468850
     2  C    0.233271
     3  Cl  -0.027982
     4  Cl  -0.005665
     5  H    0.147923
     6  H    0.122832
     7  H    0.081533
     8  Cl  -0.083061
 Sum of Mulliken charges =  -0.00000
 Mulliken charges with hydrogens summed into heavy atoms:
               1
     1  C   -0.320927
     2  C    0.437636
     3  Cl  -0.027982
     4  Cl  -0.005665
     8  Cl  -0.083061
 Electronic spatial extent (au):  <R**2>=            983.2437
 Charge=             -0.0000 electrons
 Dipole moment (field-independent basis, Debye):
    X=              0.0982    Y=             -1.4098    Z=             -0.1101  Tot=              1.4175
 Unable to Open any file for archive entry.
 1\1\GINC-SE096\Stability\RHF\Aug-CC-pVDZ\C2H3Cl3\OHZDE\08-Apr-2025\0\\
 #t hf aug-cc-pvdz symm=none int=(grid=ultrafine) guess=(read,tcheck) s
 table=(opt,rrhf)\\title\\0,1\C,0,0.410014,-0.080105,-0.359075\C,0,-0.6
 67115,-0.832464,0.403525\Cl,0,1.995106,-0.873585,-0.015204\Cl,0,0.4656
 59,1.656315,0.080654\H,0,0.263341,-0.128264,-1.433266\H,0,-0.571248,-0
 .668847,1.474418\H,0,-0.594242,-1.894114,0.176544\Cl,0,-2.316956,-0.30
 2339,-0.093945\\Version=ES64L-G16RevC.01\HF=-1456.0032239\RMSD=9.760e-
 09\Dipole=0.0386374,-0.5546757,-0.0433249\Quadrupole=-3.4070206,1.0582
 526,2.3487681,0.1238886,-0.4200495,-0.3544956\PG=Unknown\\@
 The archive entry for this job was punched.


 SCIENCE AT ITS BEST PROVIDES US WITH BETTER QUESTIONS, 
 NOT ABSOLUTE ANSWERS

                                    -- NORMAN COUSINS, 1976
 Job cpu time:       0 days  0 hours  1 minutes  3.1 seconds.
 Elapsed time:       0 days  0 hours  0 minutes  7.3 seconds.
 File lengths (MBytes):  RWF=    186 Int=      0 D2E=      0 Chk=      5 Scr=      1
 Normal termination of Gaussian 16 at Tue Apr  8 22:28:20 2025.
 Initial command:
 /arc/software/Gaussian/g16.c01/l1.exe "/tmp/slurm/4840494/Gau-1755432.inp" -scrdir="/tmp/slurm/4840494/"
 Entering Link 1 = /arc/software/Gaussian/g16.c01/l1.exe PID=   1755644.
  
 Copyright (c) 1988-2019, Gaussian, Inc.  All Rights Reserved.
  
 This is part of the Gaussian(R) 16 program.  It is based on
 the Gaussian(R) 09 system (copyright 2009, Gaussian, Inc.),
 the Gaussian(R) 03 system (copyright 2003, Gaussian, Inc.),
 the Gaussian(R) 98 system (copyright 1998, Gaussian, Inc.),
 the Gaussian(R) 94 system (copyright 1995, Gaussian, Inc.),
 the Gaussian 92(TM) system (copyright 1992, Gaussian, Inc.),
 the Gaussian 90(TM) system (copyright 1990, Gaussian, Inc.),
 the Gaussian 88(TM) system (copyright 1988, Gaussian, Inc.),
 the Gaussian 86(TM) system (copyright 1986, Carnegie Mellon
 University), and the Gaussian 82(TM) system (copyright 1983,
 Carnegie Mellon University). Gaussian is a federally registered
 trademark of Gaussian, Inc.
  
 This software contains proprietary and confidential information,
 including trade secrets, belonging to Gaussian, Inc.
  
 This software is provided under written license and may be
 used, copied, transmitted, or stored only in accord with that
 written license.
  
 The following legend is applicable only to US Government
 contracts under FAR:
  
                    RESTRICTED RIGHTS LEGEND
  
 Use, reproduction and disclosure by the US Government is
 subject to restrictions as set forth in subparagraphs (a)
 and (c) of the Commercial Computer Software - Restricted
 Rights clause in FAR 52.227-19.
  
 Gaussian, Inc.
 340 Quinnipiac St., Bldg. 40, Wallingford CT 06492
  
  
 ---------------------------------------------------------------
 Warning -- This program may not be used in any manner that
 competes with the business of Gaussian, Inc. or will provide
 assistance to any competitor of Gaussian, Inc.  The licensee
 of this program is prohibited from giving any competitor of
 Gaussian, Inc. access to this program.  By using this program,
 the user acknowledges that Gaussian, Inc. is engaged in the
 business of creating and licensing software in the field of
 computational chemistry and represents and warrants to the
 licensee that it is not a competitor of Gaussian, Inc. and that
 it will not use this program in any manner prohibited above.
 ---------------------------------------------------------------
  

 Cite this work as:
 Gaussian 16, Revision C.01,
 M. J. Frisch, G. W. Trucks, H. B. Schlegel, G. E. Scuseria, 
 M. A. Robb, J. R. Cheeseman, G. Scalmani, V. Barone, 
 G. A. Petersson, H. Nakatsuji, X. Li, M. Caricato, A. V. Marenich, 
 J. Bloino, B. G. Janesko, R. Gomperts, B. Mennucci, H. P. Hratchian, 
 J. V. Ortiz, A. F. Izmaylov, J. L. Sonnenberg, D. Williams-Young, 
 F. Ding, F. Lipparini, F. Egidi, J. Goings, B. Peng, A. Petrone, 
 T. Henderson, D. Ranasinghe, V. G. Zakrzewski, J. Gao, N. Rega, 
 G. Zheng, W. Liang, M. Hada, M. Ehara, K. Toyota, R. Fukuda, 
 J. Hasegawa, M. Ishida, T. Nakajima, Y. Honda, O. Kitao, H. Nakai, 
 T. Vreven, K. Throssell, J. A. Montgomery, Jr., J. E. Peralta, 
 F. Ogliaro, M. J. Bearpark, J. J. Heyd, E. N. Brothers, K. N. Kudin, 
 V. N. Staroverov, T. A. Keith, R. Kobayashi, J. Normand, 
 K. Raghavachari, A. P. Rendell, J. C. Burant, S. S. Iyengar, 
 J. Tomasi, M. Cossi, J. M. Millam, M. Klene, C. Adamo, R. Cammi, 
 J. W. Ochterski, R. L. Martin, K. Morokuma, O. Farkas, 
 J. B. Foresman, and D. J. Fox, Gaussian, Inc., Wallingford CT, 2019.
 
 ******************************************
 Gaussian 16:  ES64L-G16RevC.01  3-Jul-2019
                 8-Apr-2025 
 ******************************************
 %nprocs=16
 Will use up to   16 processors via shared memory.
 %mem=30GB
 %chk=BDE49_expt_1016_mol1.chk
 ----------------------------------------------------------------------
 #t hf aug-cc-pvdz iop(5/13=1,5/36=2,99/5=2) pseudo=read geom=check gue
 ss=(read,tcheck) scf=(maxcycle=1)
 ----------------------------------------------------------------------
 -----
 title
 -----
 Structure from the checkpoint file:  "BDE49_expt_1016_mol1.chk"
 Charge =  0 Multiplicity = 1
 Z-Matrix found in chk file.
 C,0,0.410014,-0.080105,-0.359075
 C,0,-0.667115,-0.832464,0.403525
 Cl,0,1.995106,-0.873585,-0.015204
 Cl,0,0.465659,1.656315,0.080654
 H,0,0.263341,-0.128264,-1.433266
 H,0,-0.571248,-0.668847,1.474418
 H,0,-0.594242,-1.894114,0.176544
 Cl,0,-2.316956,-0.302339,-0.093945
 Recover connectivity data from disk.
                    Distance matrix (angstroms):
                    1          2          3          4          5
     1  C    0.000000
     2  C    1.519148   0.000000
     3  Cl   1.805651   2.695264   0.000000
     4  Cl   1.792097   2.753442   2.957836   0.000000
     5  H    1.085227   2.176108   2.359113   2.348959   0.000000
     6  H    2.161293   1.087554   2.974401   2.902436   3.073011
     7  H    2.141506   1.088086   2.789797   3.706498   2.538733
     8  Cl   2.748827   1.802910   4.350448   3.407309   2.912390
                    6          7          8
     6  H    0.000000
     7  H    1.785017   0.000000
     8  Cl   2.375203   2.361071   0.000000
 Framework group  C1[X(C2H3Cl3)]
 Deg. of freedom    18
                         Standard orientation:                         
 ---------------------------------------------------------------------
 Center     Atomic      Atomic             Coordinates (Angstroms)
 Number     Number       Type             X           Y           Z
 ---------------------------------------------------------------------
      1          6           0        0.410014   -0.080105   -0.359075
      2          6           0       -0.667115   -0.832464    0.403525
      3         17           0        1.995106   -0.873585   -0.015204
      4         17           0        0.465659    1.656315    0.080654
      5          1           0        0.263341   -0.128264   -1.433266
      6          1           0       -0.571248   -0.668847    1.474418
      7          1           0       -0.594242   -1.894114    0.176544
      8         17           0       -2.316956   -0.302339   -0.093945
 ---------------------------------------------------------------------
 Rotational constants (GHZ):           3.4489070           1.4400696           1.0510355
 ======================================================================================================
                                       Pseudopotential Parameters
 ======================================================================================================
  Center     Atomic      Valence      Angular      Power
  Number     Number     Electrons     Momentum     of R      Exponent        Coefficient   SO-Coeffient
 ======================================================================================================
    1          6            6
                                      G and up 
                                                     0        0.0000010       -0.00011185    0.00000000
                                                     2        0.1200000       -0.02301220    0.00000000
                                                     2        0.1400000        0.13317600    0.00000000
                                                     2        0.1600000       -0.19690668    0.00000000
                                                     2        0.2200000        0.23163694    0.00000000
                                                     2        0.3000000       -0.36920489    0.00000000
                                                     2        0.4000000        0.36389709    0.00000000
                                                     2        0.7000000       -0.38862160    0.00000000
                                                     2        1.3000000        0.80803421    0.00000000
                                      S - G
                                                     0        0.0000010        0.00312304    0.00000000
                                                     2        0.1200000       -0.00632892    0.00000000
                                                     2        0.2200000       -0.03780897    0.00000000
                                                     2        0.4000000        0.26269560    0.00000000
                                                     2        0.9000000       -0.28209514    0.00000000
                                                     2        1.5000000       -0.72686737    0.00000000
                                      P - G
                                                     0        0.0000010       -0.01465594    0.00000000
                                                     2        0.1200000        0.07908409    0.00000000
                                                     2        0.1800000       -0.30615861    0.00000000
                                                     2        0.2600000        0.41506950    0.00000000
                                                     2        0.5000000       -0.36252345    0.00000000
                                                     2        0.9000000        0.15124193    0.00000000
                                                     2        3.0000000       -0.80425677    0.00000000
                                      D - G
                                                     0        0.0000010        0.01149631    0.00000000
                                                     2        0.1200000       -0.04713561    0.00000000
                                                     2        0.1600000        0.10865096    0.00000000
                                                     2        0.2800000       -0.15816701    0.00000000
                                                     2        0.7000000        0.65478804    0.00000000
                                                     2        1.3000000       -1.73816624    0.00000000
                                      F - G
                                                     0        0.0000010        0.00481868    0.00000000
                                                     2        0.1200000       -0.04746842    0.00000000
                                                     2        0.1600000        0.09327889    0.00000000
                                                     2        0.4000000       -0.19693326    0.00000000
                                                     2        0.9000000        0.34938253    0.00000000
    2          6            6
                                      G and up 
                                                     0        0.0000010       -0.00011185    0.00000000
                                                     2        0.1200000       -0.02301220    0.00000000
                                                     2        0.1400000        0.13317600    0.00000000
                                                     2        0.1600000       -0.19690668    0.00000000
                                                     2        0.2200000        0.23163694    0.00000000
                                                     2        0.3000000       -0.36920489    0.00000000
                                                     2        0.4000000        0.36389709    0.00000000
                                                     2        0.7000000       -0.38862160    0.00000000
                                                     2        1.3000000        0.80803421    0.00000000
                                      S - G
                                                     0        0.0000010        0.00312304    0.00000000
                                                     2        0.1200000       -0.00632892    0.00000000
                                                     2        0.2200000       -0.03780897    0.00000000
                                                     2        0.4000000        0.26269560    0.00000000
                                                     2        0.9000000       -0.28209514    0.00000000
                                                     2        1.5000000       -0.72686737    0.00000000
                                      P - G
                                                     0        0.0000010       -0.01465594    0.00000000
                                                     2        0.1200000        0.07908409    0.00000000
                                                     2        0.1800000       -0.30615861    0.00000000
                                                     2        0.2600000        0.41506950    0.00000000
                                                     2        0.5000000       -0.36252345    0.00000000
                                                     2        0.9000000        0.15124193    0.00000000
                                                     2        3.0000000       -0.80425677    0.00000000
                                      D - G
                                                     0        0.0000010        0.01149631    0.00000000
                                                     2        0.1200000       -0.04713561    0.00000000
                                                     2        0.1600000        0.10865096    0.00000000
                                                     2        0.2800000       -0.15816701    0.00000000
                                                     2        0.7000000        0.65478804    0.00000000
                                                     2        1.3000000       -1.73816624    0.00000000
                                      F - G
                                                     0        0.0000010        0.00481868    0.00000000
                                                     2        0.1200000       -0.04746842    0.00000000
                                                     2        0.1600000        0.09327889    0.00000000
                                                     2        0.4000000       -0.19693326    0.00000000
                                                     2        0.9000000        0.34938253    0.00000000
    3         17           17
                                      G and up 
                                                     0        0.0000010       -0.00005841    0.00000000
                                                     2        0.1200000       -0.00031502    0.00000000
                                                     2        0.1400000        0.00458821    0.00000000
                                                     2        0.2600000       -0.03604686    0.00000000
                                                     2        0.4000000        0.03832573    0.00000000
                                                     2        1.1000000       -0.21042623    0.00000000
                                      S - G
                                                     0        0.0000010        0.00274387    0.00000000
                                                     2        0.1800000        0.09962839    0.00000000
                                                     2        0.4000000       -0.20830181    0.00000000
                                      P - G
                                                     0        0.0000010       -0.01867126    0.00000000
                                                     2        0.1200000        0.19610675    0.00000000
                                                     2        0.1600000       -0.37005054    0.00000000
                                                     2        0.3000000        0.29573883    0.00000000
                                      D - G
                                                     0        0.0000010        0.06766179    0.00000000
                                                     2        0.1200000       -0.07333140    0.00000000
                                                     2        0.2200000        0.05439691    0.00000000
                                      F - G
                                                     0        0.0000010       -0.02719671    0.00000000
                                                     2        0.1200000       -0.06013675    0.00000000
                                                     2        0.2000000        0.35339430    0.00000000
                                                     2        0.4000000       -0.66518555    0.00000000
    4         17           17
                                      G and up 
                                                     0        0.0000010       -0.00005841    0.00000000
                                                     2        0.1200000       -0.00031502    0.00000000
                                                     2        0.1400000        0.00458821    0.00000000
                                                     2        0.2600000       -0.03604686    0.00000000
                                                     2        0.4000000        0.03832573    0.00000000
                                                     2        1.1000000       -0.21042623    0.00000000
                                      S - G
                                                     0        0.0000010        0.00274387    0.00000000
                                                     2        0.1800000        0.09962839    0.00000000
                                                     2        0.4000000       -0.20830181    0.00000000
                                      P - G
                                                     0        0.0000010       -0.01867126    0.00000000
                                                     2        0.1200000        0.19610675    0.00000000
                                                     2        0.1600000       -0.37005054    0.00000000
                                                     2        0.3000000        0.29573883    0.00000000
                                      D - G
                                                     0        0.0000010        0.06766179    0.00000000
                                                     2        0.1200000       -0.07333140    0.00000000
                                                     2        0.2200000        0.05439691    0.00000000
                                      F - G
                                                     0        0.0000010       -0.02719671    0.00000000
                                                     2        0.1200000       -0.06013675    0.00000000
                                                     2        0.2000000        0.35339430    0.00000000
                                                     2        0.4000000       -0.66518555    0.00000000
    5          1            1
                                      F and up 
                                                     0        0.0000010       -0.00000699    0.00000000
                                                     2        0.1200000        0.00123686    0.00000000
                                                     2        0.1800000       -0.00752022    0.00000000
                                                     2        0.2600000        0.02503380    0.00000000
                                                     2        0.4000000       -0.08702670    0.00000000
                                                     2        0.6000000        0.30134159    0.00000000
                                                     2        0.8000000       -0.50204959    0.00000000
                                                     2        1.2000000        0.52208372    0.00000000
                                      S - F
                                                     0        0.0000010       -0.01618346    0.00000000
                                                     2        0.1200000       -0.07880581    0.00000000
                                                     2        0.1600000        0.32040539    0.00000000
                                                     2        0.2400000       -0.47500956    0.00000000
                                                     2        0.5000000        0.54013668    0.00000000
                                                     2        1.5000000       -1.40434292    0.00000000
                                                     2        3.0000000        1.46283806    0.00000000
                                      P - F
                                                     0        0.0000010        0.00612970    0.00000000
                                                     2        0.1200000        0.02254406    0.00000000
                                                     2        0.1800000       -0.13874529    0.00000000
                                                     2        0.3000000        0.38299049    0.00000000
                                                     2        0.5000000       -0.57923512    0.00000000
                                                     2        1.0000000        0.63021625    0.00000000
                                                     2        2.0000000       -0.79201034    0.00000000
                                      D - F
                                                     0        0.0000010       -0.00296226    0.00000000
                                                     2        0.1200000       -0.00547344    0.00000000
                                                     2        0.1400000        0.01837884    0.00000000
                                                     2        0.2400000       -0.05565704    0.00000000
                                                     2        0.4000000        0.15376597    0.00000000
                                                     2        0.8000000       -0.32464795    0.00000000
    6          1            1
                                      F and up 
                                                     0        0.0000010       -0.00000699    0.00000000
                                                     2        0.1200000        0.00123686    0.00000000
                                                     2        0.1800000       -0.00752022    0.00000000
                                                     2        0.2600000        0.02503380    0.00000000
                                                     2        0.4000000       -0.08702670    0.00000000
                                                     2        0.6000000        0.30134159    0.00000000
                                                     2        0.8000000       -0.50204959    0.00000000
                                                     2        1.2000000        0.52208372    0.00000000
                                      S - F
                                                     0        0.0000010       -0.01618346    0.00000000
                                                     2        0.1200000       -0.07880581    0.00000000
                                                     2        0.1600000        0.32040539    0.00000000
                                                     2        0.2400000       -0.47500956    0.00000000
                                                     2        0.5000000        0.54013668    0.00000000
                                                     2        1.5000000       -1.40434292    0.00000000
                                                     2        3.0000000        1.46283806    0.00000000
                                      P - F
                                                     0        0.0000010        0.00612970    0.00000000
                                                     2        0.1200000        0.02254406    0.00000000
                                                     2        0.1800000       -0.13874529    0.00000000
                                                     2        0.3000000        0.38299049    0.00000000
                                                     2        0.5000000       -0.57923512    0.00000000
                                                     2        1.0000000        0.63021625    0.00000000
                                                     2        2.0000000       -0.79201034    0.00000000
                                      D - F
                                                     0        0.0000010       -0.00296226    0.00000000
                                                     2        0.1200000       -0.00547344    0.00000000
                                                     2        0.1400000        0.01837884    0.00000000
                                                     2        0.2400000       -0.05565704    0.00000000
                                                     2        0.4000000        0.15376597    0.00000000
                                                     2        0.8000000       -0.32464795    0.00000000
    7          1            1
                                      F and up 
                                                     0        0.0000010       -0.00000699    0.00000000
                                                     2        0.1200000        0.00123686    0.00000000
                                                     2        0.1800000       -0.00752022    0.00000000
                                                     2        0.2600000        0.02503380    0.00000000
                                                     2        0.4000000       -0.08702670    0.00000000
                                                     2        0.6000000        0.30134159    0.00000000
                                                     2        0.8000000       -0.50204959    0.00000000
                                                     2        1.2000000        0.52208372    0.00000000
                                      S - F
                                                     0        0.0000010       -0.01618346    0.00000000
                                                     2        0.1200000       -0.07880581    0.00000000
                                                     2        0.1600000        0.32040539    0.00000000
                                                     2        0.2400000       -0.47500956    0.00000000
                                                     2        0.5000000        0.54013668    0.00000000
                                                     2        1.5000000       -1.40434292    0.00000000
                                                     2        3.0000000        1.46283806    0.00000000
                                      P - F
                                                     0        0.0000010        0.00612970    0.00000000
                                                     2        0.1200000        0.02254406    0.00000000
                                                     2        0.1800000       -0.13874529    0.00000000
                                                     2        0.3000000        0.38299049    0.00000000
                                                     2        0.5000000       -0.57923512    0.00000000
                                                     2        1.0000000        0.63021625    0.00000000
                                                     2        2.0000000       -0.79201034    0.00000000
                                      D - F
                                                     0        0.0000010       -0.00296226    0.00000000
                                                     2        0.1200000       -0.00547344    0.00000000
                                                     2        0.1400000        0.01837884    0.00000000
                                                     2        0.2400000       -0.05565704    0.00000000
                                                     2        0.4000000        0.15376597    0.00000000
                                                     2        0.8000000       -0.32464795    0.00000000
    8         17           17
                                      G and up 
                                                     0        0.0000010       -0.00005841    0.00000000
                                                     2        0.1200000       -0.00031502    0.00000000
                                                     2        0.1400000        0.00458821    0.00000000
                                                     2        0.2600000       -0.03604686    0.00000000
                                                     2        0.4000000        0.03832573    0.00000000
                                                     2        1.1000000       -0.21042623    0.00000000
                                      S - G
                                                     0        0.0000010        0.00274387    0.00000000
                                                     2        0.1800000        0.09962839    0.00000000
                                                     2        0.4000000       -0.20830181    0.00000000
                                      P - G
                                                     0        0.0000010       -0.01867126    0.00000000
                                                     2        0.1200000        0.19610675    0.00000000
                                                     2        0.1600000       -0.37005054    0.00000000
                                                     2        0.3000000        0.29573883    0.00000000
                                      D - G
                                                     0        0.0000010        0.06766179    0.00000000
                                                     2        0.1200000       -0.07333140    0.00000000
                                                     2        0.2200000        0.05439691    0.00000000
                                      F - G
                                                     0        0.0000010       -0.02719671    0.00000000
                                                     2        0.1200000       -0.06013675    0.00000000
                                                     2        0.2000000        0.35339430    0.00000000
                                                     2        0.4000000       -0.66518555    0.00000000
 ======================================================================================================
   154 basis functions,   362 primitive gaussians,   164 cartesian basis functions
    33 alpha electrons       33 beta electrons
       nuclear repulsion energy       337.4528791201 Hartrees.
 NAtoms=    8 NActive=    8 NUniq=    8 SFac= 1.00D+00 NAtFMM=   60 NAOKFM=F Big=F
   1 Symmetry operations used in ECPInt.
 ECPInt:  NShTT=    2211 NPrTT=   19771 LenC2=    2196 LenP2D=   13311.
 LDataN:  DoStor=T MaxTD1= 6 Len=  172
 Initial guess from the checkpoint file:  "BDE49_expt_1016_mol1.chk"
 B after Tr=     0.000000   -0.000000    0.000001
         Rot=    1.000000    0.000000    0.000000    0.000000 Ang=   0.00 deg.
 >>>>>>>>>> Convergence criterion not met.
 SCF Done:  E(RHF) =  -1456.08233356     A.U. after    2 cycles
            NFock=  1  Conv=0.39D-02     -V/T= 1.9979

 **********************************************************************

            Population analysis using the SCF Density.

 **********************************************************************

 Orbital symmetries:
       Occupied  (A) (A) (A) (A) (A) (A) (A) (A) (A) (A) (A) (A)
                 (A) (A) (A) (A) (A) (A) (A) (A) (A) (A) (A) (A)
                 (A) (A) (A) (A) (A) (A) (A) (A) (A)
       Virtual   (A) (A) (A) (A) (A) (A) (A) (A) (A) (A) (A) (A)
                 (A) (A) (A) (A) (A) (A) (A) (A) (A) (A) (A) (A)
                 (A) (A) (A) (A) (A) (A) (A) (A) (A) (A) (A) (A)
                 (A) (A) (A) (A) (A) (A) (A) (A) (A) (A) (A) (A)
                 (A) (A) (A) (A) (A) (A) (A) (A) (A) (A) (A) (A)
                 (A) (A) (A) (A) (A) (A) (A) (A) (A) (A) (A) (A)
                 (A) (A) (A) (A) (A) (A) (A) (A) (A) (A) (A) (A)
                 (A) (A) (A) (A) (A) (A) (A) (A) (A) (A) (A) (A)
                 (A) (A) (A) (A) (A) (A) (A) (A) (A) (A) (A) (A)
                 (A) (A) (A) (A) (A) (A) (A) (A) (A) (A) (A) (A)
                 (A)
 The electronic state is 1-A.
 Alpha  occ. eigenvalues -- -103.68535-103.68057-103.67227 -11.39924 -11.34073
 Alpha  occ. eigenvalues --  -10.71813 -10.71353 -10.70497  -8.37529  -8.37219
 Alpha  occ. eigenvalues --   -8.37210  -8.37073  -8.36753  -8.36749  -8.36218
 Alpha  occ. eigenvalues --   -8.35920  -8.35906  -1.23926  -1.17612  -1.14939
 Alpha  occ. eigenvalues --   -1.00105  -0.85954  -0.69897  -0.64681  -0.64469
 Alpha  occ. eigenvalues --   -0.59196  -0.55910  -0.49704  -0.49213  -0.48116
 Alpha  occ. eigenvalues --   -0.46971  -0.46602  -0.46121
 Alpha virt. eigenvalues --    0.03820   0.04763   0.05808   0.07054   0.08170
 Alpha virt. eigenvalues --    0.09778   0.11658   0.12839   0.13800   0.14522
 Alpha virt. eigenvalues --    0.14998   0.15925   0.16689   0.17149   0.17371
 Alpha virt. eigenvalues --    0.18007   0.18566   0.18640   0.18991   0.20044
 Alpha virt. eigenvalues --    0.21509   0.22586   0.25261   0.28563   0.29231
 Alpha virt. eigenvalues --    0.31440   0.32759   0.33561   0.35614   0.37351
 Alpha virt. eigenvalues --    0.38382   0.40998   0.42473   0.43876   0.45471
 Alpha virt. eigenvalues --    0.45941   0.46880   0.47515   0.47734   0.51099
 Alpha virt. eigenvalues --    0.51418   0.52989   0.54672   0.56773   0.58479
 Alpha virt. eigenvalues --    0.60309   0.61021   0.62285   0.62861   0.64621
 Alpha virt. eigenvalues --    0.67163   0.68142   0.71195   0.72411   0.73995
 Alpha virt. eigenvalues --    0.74998   0.75166   0.77042   0.80937   0.82619
 Alpha virt. eigenvalues --    0.85678   0.87157   0.89274   0.92748   0.96529
 Alpha virt. eigenvalues --    0.97640   0.99461   1.02346   1.04005   1.04540
 Alpha virt. eigenvalues --    1.06603   1.07992   1.08882   1.13475   1.18600
 Alpha virt. eigenvalues --    1.20671   1.24224   1.28743   1.35211   1.37440
 Alpha virt. eigenvalues --    1.38700   1.40900   1.41293   1.41764   1.42332
 Alpha virt. eigenvalues --    1.44058   1.45009   1.45613   1.46957   1.47281
 Alpha virt. eigenvalues --    1.49651   1.51540   1.53461   1.54304   1.58619
 Alpha virt. eigenvalues --    1.63292   1.70060   1.75619   1.77772   1.82370
 Alpha virt. eigenvalues --    1.83710   1.88571   1.95670   2.00520   2.01741
 Alpha virt. eigenvalues --    2.07224   2.10543   2.14823   2.17297   2.25449
 Alpha virt. eigenvalues --    2.32657   2.33645   2.36487   2.41034   2.49503
 Alpha virt. eigenvalues --    2.51929   2.58514   2.85260   2.87067   2.90401
 Alpha virt. eigenvalues --    3.01825
          Condensed to atoms (all electrons):
 Mulliken charges:
               1
     1  C   -0.310167
     2  C    0.241799
     3  Cl  -0.054818
     4  Cl  -0.034394
     5  H    0.109571
     6  H    0.087048
     7  H    0.060146
     8  Cl  -0.099186
 Sum of Mulliken charges =  -0.00000
 Mulliken charges with hydrogens summed into heavy atoms:
               1
     1  C   -0.200596
     2  C    0.388994
     3  Cl  -0.054818
     4  Cl  -0.034394
     8  Cl  -0.099186
 Electronic spatial extent (au):  <R**2>=            981.0856
 Charge=             -0.0000 electrons
 Dipole moment (field-independent basis, Debye):
    X=              0.0973    Y=             -1.4585    Z=             -0.1126  Tot=              1.4660

 Test job not archived.
 1\1\GINC-SE096\SP\RHF\Aug-CC-pVDZ\C2H3Cl3\OHZDE\08-Apr-2025\0\\#t hf a
 ug-cc-pvdz iop(5/13=1,5/36=2,99/5=2) pseudo=read geom=check guess=(rea
 d,tcheck) scf=(maxcycle=1)\\title\\0,1\C,0,0.410014,-0.080105,-0.35907
 5\C,0,-0.667115,-0.832464,0.403525\Cl,0,1.995106,-0.873585,-0.015204\C
 l,0,0.465659,1.656315,0.080654\H,0,0.263341,-0.128264,-1.433266\H,0,-0
 .571248,-0.668847,1.474418\H,0,-0.594242,-1.894114,0.176544\Cl,0,-2.31
 6956,-0.302339,-0.093945\\Version=ES64L-G16RevC.01\State=1-A\HF=-1456.
 0823336\RMSD=3.931e-03\Dipole=0.0382848,-0.5738006,-0.0443189\Quadrupo
 le=-3.47477,1.0942588,2.3805112,0.1073009,-0.415736,-0.359381\PG=C01 [
 X(C2H3Cl3)]\\@


 SLITHERY-DITHERY
 FRIEDRICH A. KEKULE
 DREAMT ON A BUS OF THINGS
 FREUD WOULD THINK KEEN.
 MOST OF THE TIME THEY WERE
 HERPETOLOGICAL
 BITING THEIR TAILS IN THE
 SHAPE OF BENZENE.
 Job cpu time:       0 days  0 hours  0 minutes 31.5 seconds.
 Elapsed time:       0 days  0 hours  0 minutes  3.2 seconds.
 File lengths (MBytes):  RWF=      6 Int=      0 D2E=      0 Chk=      5 Scr=      1
 Normal termination of Gaussian 16 at Tue Apr  8 22:28:23 2025.
