 Entering Gaussian System, Link 0=g16
 Input=BDE49_expt_1360_mol1.gjf
 Output=BDE49_expt_1360_mol1.log
 Initial command:
 /arc/software/Gaussian/g16.c01/l1.exe "/tmp/slurm/4841315/Gau-227070.inp" -scrdir="/tmp/slurm/4841315/"
 Entering Link 1 = /arc/software/Gaussian/g16.c01/l1.exe PID=    227073.
  
 Copyright (c) 1988-2019, Gaussian, Inc.  All Rights Reserved.
  
 This is part of the Gaussian(R) 16 program.  It is based on
 the Gaussian(R) 09 system (copyright 2009, Gaussian, Inc.),
 the Gaussian(R) 03 system (copyright 2003, Gaussian, Inc.),
 the Gaussian(R) 98 system (copyright 1998, Gaussian, Inc.),
 the Gaussian(R) 94 system (copyright 1995, Gaussian, Inc.),
 the Gaussian 92(TM) system (copyright 1992, Gaussian, Inc.),
 the Gaussian 90(TM) system (copyright 1990, Gaussian, Inc.),
 the Gaussian 88(TM) system (copyright 1988, Gaussian, Inc.),
 the Gaussian 86(TM) system (copyright 1986, Carnegie Mellon
 University), and the Gaussian 82(TM) system (copyright 1983,
 Carnegie Mellon University). Gaussian is a federally registered
 trademark of Gaussian, Inc.
  
 This software contains proprietary and confidential information,
 including trade secrets, belonging to Gaussian, Inc.
  
 This software is provided under written license and may be
 used, copied, transmitted, or stored only in accord with that
 written license.
  
 The following legend is applicable only to US Government
 contracts under FAR:
  
                    RESTRICTED RIGHTS LEGEND
  
 Use, reproduction and disclosure by the US Government is
 subject to restrictions as set forth in subparagraphs (a)
 and (c) of the Commercial Computer Software - Restricted
 Rights clause in FAR 52.227-19.
  
 Gaussian, Inc.
 340 Quinnipiac St., Bldg. 40, Wallingford CT 06492
  
  
 ---------------------------------------------------------------
 Warning -- This program may not be used in any manner that
 competes with the business of Gaussian, Inc. or will provide
 assistance to any competitor of Gaussian, Inc.  The licensee
 of this program is prohibited from giving any competitor of
 Gaussian, Inc. access to this program.  By using this program,
 the user acknowledges that Gaussian, Inc. is engaged in the
 business of creating and licensing software in the field of
 computational chemistry and represents and warrants to the
 licensee that it is not a competitor of Gaussian, Inc. and that
 it will not use this program in any manner prohibited above.
 ---------------------------------------------------------------
  

 Cite this work as:
 Gaussian 16, Revision C.01,
 M. J. Frisch, G. W. Trucks, H. B. Schlegel, G. E. Scuseria, 
 M. A. Robb, J. R. Cheeseman, G. Scalmani, V. Barone, 
 G. A. Petersson, H. Nakatsuji, X. Li, M. Caricato, A. V. Marenich, 
 J. Bloino, B. G. Janesko, R. Gomperts, B. Mennucci, H. P. Hratchian, 
 J. V. Ortiz, A. F. Izmaylov, J. L. Sonnenberg, D. Williams-Young, 
 F. Ding, F. Lipparini, F. Egidi, J. Goings, B. Peng, A. Petrone, 
 T. Henderson, D. Ranasinghe, V. G. Zakrzewski, J. Gao, N. Rega, 
 G. Zheng, W. Liang, M. Hada, M. Ehara, K. Toyota, R. Fukuda, 
 J. Hasegawa, M. Ishida, T. Nakajima, Y. Honda, O. Kitao, H. Nakai, 
 T. Vreven, K. Throssell, J. A. Montgomery, Jr., J. E. Peralta, 
 F. Ogliaro, M. J. Bearpark, J. J. Heyd, E. N. Brothers, K. N. Kudin, 
 V. N. Staroverov, T. A. Keith, R. Kobayashi, J. Normand, 
 K. Raghavachari, A. P. Rendell, J. C. Burant, S. S. Iyengar, 
 J. Tomasi, M. Cossi, J. M. Millam, M. Klene, C. Adamo, R. Cammi, 
 J. W. Ochterski, R. L. Martin, K. Morokuma, O. Farkas, 
 J. B. Foresman, and D. J. Fox, Gaussian, Inc., Wallingford CT, 2019.
 
 ******************************************
 Gaussian 16:  ES64L-G16RevC.01  3-Jul-2019
                 8-Apr-2025 
 ******************************************
 %nprocs=16
 Will use up to   16 processors via shared memory.
 %mem=30GB
 %chk=BDE49_expt_1360_mol1.chk
 ----------------------------------------------------------------------
 #t hf aug-cc-pvdz symm=none int=(grid=ultrafine) guess=(read,tcheck) s
 table=(opt,rrhf)
 ----------------------------------------------------------------------
 -----
 title
 -----
 Symbolic Z-matrix:
 Charge =  0 Multiplicity = 1
 C                     1.35613  -0.55537  0. 
 O                     0.01078  -0.71208  0. 
 C                    -0.79254   0.46992   0. 
 C                    -2.24733   0.04171   0. 
 C                     2.06222   0.57664   0. 
 H                     1.83702  -1.5278   0. 
 H                     1.61746   1.5621    0. 
 H                     3.14198   0.51716   0. 
 H                    -0.5553    1.07083  -0.88689 
 H                    -0.5553    1.07083   0.88689 
 H                    -2.47199  -0.55661  -0.88557 
 H                    -2.89901   0.91933   0. 
 H                    -2.47199  -0.55662   0.88557 
 
                    Distance matrix (angstroms):
                    1          2          3          4          5
     1  C    0.000000
     2  O    1.354445   0.000000
     3  C    2.380764   1.429150   0.000000
     4  C    3.652598   2.380608   1.516504   0.000000
     5  C    1.334168   2.422642   2.856759   4.342628   0.000000
     6  H    1.084844   2.000140   3.302354   4.375540   2.116459
     7  H    2.133530   2.784471   2.645931   4.153095   1.081174
     8  H    2.083162   3.363838   3.934804   5.410242   1.081392
     9  H    2.661702   2.070215   1.097246   2.169945   2.807523
    10  H    2.661702   2.070215   1.097246   2.169946   2.807523
    11  H    3.929220   2.640564   2.158369   1.092104   4.756846
    12  H    4.503442   3.335927   2.153873   1.093118   4.973053
    13  H    3.929221   2.640564   2.158369   1.092105   4.756846
                    6          7          8          9         10
     6  H    0.000000
     7  H    3.097691   0.000000
     8  H    2.425859   1.848253   0.000000
     9  H    3.641794   2.397659   3.842256   0.000000
    10  H    3.641795   2.397659   3.842256   1.773779   0.000000
    11  H    4.505004   4.690071   5.783932   2.514420   3.076347
    12  H    5.330901   4.561977   6.054359   2.510484   2.510484
    13  H    4.505004   4.690071   5.783932   3.076347   2.514420
                   11         12         13
    11  H    0.000000
    12  H    1.773413   0.000000
    13  H    1.771137   1.773413   0.000000
 Symmetry turned off by external request.
 Rotational constants (GHZ):          16.6121221           2.7808747           2.4553970
   187 basis functions,   303 primitive gaussians,   197 cartesian basis functions
    20 alpha electrons       20 beta electrons
       nuclear repulsion energy       176.4133803293 Hartrees.
 NAtoms=   13 NActive=   13 NUniq=   13 SFac= 1.00D+00 NAtFMM=   60 NAOKFM=F Big=F
 ExpMin= 2.97D-02 ExpMax= 1.17D+04 ExpMxC= 4.01D+02 IAcc=3 IRadAn=         5 AccDes= 0.00D+00
 Harris functional with IExCor=  205 and IRadAn=       5 diagonalized for initial guess.
 HarFok:  IExCor=  205 AccDes= 0.00D+00 IRadAn=         5 IDoV= 1 UseB2=F ITyADJ=14
 ICtDFT=  3500011 ScaDFX=  1.000000  1.000000  1.000000  1.000000
 FoFCou: FMM=F IPFlag=           0 FMFlag=      100000 FMFlg1=           0
         NFxFlg=           0 DoJE=T BraDBF=F KetDBF=T FulRan=T
         wScrn=  0.000000 ICntrl=       500 IOpCl=  0 I1Cent=   200000004 NGrid=           0
         NMat0=    1 NMatS0=      1 NMatT0=    0 NMatD0=    1 NMtDS0=    0 NMtDT0=    0
 Symmetry not used in FoFCou.
 SCF Done:  E(RHF) =  -230.987456819     A.U. after   13 cycles
            NFock= 13  Conv=0.51D-08     -V/T= 2.0014

 **********************************************************************

            Population analysis using the SCF Density.

 **********************************************************************

 Alpha  occ. eigenvalues --  -20.59216 -11.30052 -11.29181 -11.22878 -11.21809
 Alpha  occ. eigenvalues --   -1.41022  -1.05186  -1.00126  -0.87249  -0.77278
 Alpha  occ. eigenvalues --   -0.68796  -0.66563  -0.65229  -0.55714  -0.55372
 Alpha  occ. eigenvalues --   -0.54891  -0.51930  -0.49219  -0.47940  -0.34336
 Alpha virt. eigenvalues --    0.03642   0.04404   0.04573   0.05361   0.06385
 Alpha virt. eigenvalues --    0.06634   0.08055   0.08504   0.12085   0.12451
 Alpha virt. eigenvalues --    0.13086   0.13387   0.14415   0.15501   0.16660
 Alpha virt. eigenvalues --    0.16731   0.17365   0.17857   0.18006   0.18470
 Alpha virt. eigenvalues --    0.19691   0.22163   0.22487   0.23737   0.27437
 Alpha virt. eigenvalues --    0.28187   0.28223   0.29692   0.30329   0.33053
 Alpha virt. eigenvalues --    0.33770   0.34604   0.35649   0.37352   0.37427
 Alpha virt. eigenvalues --    0.38470   0.42114   0.42532   0.43027   0.43318
 Alpha virt. eigenvalues --    0.43841   0.44874   0.46136   0.46578   0.47110
 Alpha virt. eigenvalues --    0.48168   0.48808   0.51587   0.53510   0.54012
 Alpha virt. eigenvalues --    0.55547   0.55942   0.56578   0.57663   0.58649
 Alpha virt. eigenvalues --    0.60270   0.60666   0.61695   0.62494   0.63929
 Alpha virt. eigenvalues --    0.64172   0.65178   0.66227   0.66911   0.69004
 Alpha virt. eigenvalues --    0.70310   0.70389   0.72106   0.72471   0.73869
 Alpha virt. eigenvalues --    0.75586   0.77524   0.77919   0.80625   0.80789
 Alpha virt. eigenvalues --    0.82390   0.83003   0.84758   0.85399   0.89248
 Alpha virt. eigenvalues --    0.89871   0.91011   0.92925   0.95389   0.95860
 Alpha virt. eigenvalues --    0.98643   1.04359   1.06406   1.10173   1.11614
 Alpha virt. eigenvalues --    1.12435   1.16435   1.20276   1.22212   1.23621
 Alpha virt. eigenvalues --    1.28948   1.33732   1.35955   1.39403   1.40251
 Alpha virt. eigenvalues --    1.41401   1.51665   1.52411   1.53030   1.55830
 Alpha virt. eigenvalues --    1.57576   1.59010   1.64299   1.65422   1.69586
 Alpha virt. eigenvalues --    1.73347   1.74837   1.77940   1.82992   1.85749
 Alpha virt. eigenvalues --    1.85782   1.86663   1.90191   1.91824   1.95015
 Alpha virt. eigenvalues --    1.95823   1.98357   2.01633   2.06948   2.09584
 Alpha virt. eigenvalues --    2.09708   2.11485   2.12819   2.14722   2.17019
 Alpha virt. eigenvalues --    2.17900   2.19350   2.24043   2.26333   2.28429
 Alpha virt. eigenvalues --    2.29841   2.30238   2.31078   2.41121   2.42412
 Alpha virt. eigenvalues --    2.44341   2.48826   2.53217   2.55605   2.60442
 Alpha virt. eigenvalues --    2.61700   2.69923   2.71927   2.73266   2.76795
 Alpha virt. eigenvalues --    2.84247   2.87876   2.88818   2.95149   2.99976
 Alpha virt. eigenvalues --    3.04867   3.12263   3.13037   3.17155   3.32654
 Alpha virt. eigenvalues --    3.37730   3.62365   3.79989   3.87642   3.89836
 Alpha virt. eigenvalues --    4.11045   4.23305
          Condensed to atoms (all electrons):
 Mulliken charges:
               1
     1  C    0.740629
     2  O   -0.847197
     3  C    0.699375
     4  C    0.226413
     5  C    0.608250
     6  H   -0.365918
     7  H   -0.305963
     8  H   -0.273546
     9  H   -0.220470
    10  H   -0.220471
    11  H   -0.013689
    12  H   -0.013726
    13  H   -0.013688
 Sum of Mulliken charges =  -0.00000
 Mulliken charges with hydrogens summed into heavy atoms:
               1
     1  C    0.374711
     2  O   -0.847197
     3  C    0.258435
     4  C    0.185310
     5  C    0.028741
 Electronic spatial extent (au):  <R**2>=            531.3777
 Charge=             -0.0000 electrons
 Dipole moment (field-independent basis, Debye):
    X=             -0.5446    Y=              0.8997    Z=              0.0000  Tot=              1.0517
 NROrb=    187 NOA=    20 NOB=    20 NVA=   167 NVB=   167

 **** Warning!!: The largest alpha MO coefficient is  0.45861976D+02

    12 initial guesses have been made.
 Iteration     1 Dimension    12 NMult     0 NNew     12
 Iteration     2 Dimension    24 NMult    12 NNew     12
 Iteration     3 Dimension    27 NMult    24 NNew      3
 Iteration     4 Dimension    30 NMult    27 NNew      3
 Iteration     5 Dimension    33 NMult    30 NNew      3
 Iteration     6 Dimension    36 NMult    33 NNew      3
 ***********************************************************************
 Stability analysis using <AA,BB:AA,BB> singles matrix:
 ***********************************************************************
 Ground to excited state transition densities written to RWF  633

 Eigenvectors of the stability matrix:
 
 Excited state symmetry could not be determined.
 Eigenvector   1:      Singlet-?Sym  Eigenvalue= 0.2412341  <S**2>=0.000
      20 -> 21         0.49671
      20 -> 22         0.41576
      20 -> 34         0.14318
      20 -> 36        -0.19086
 The wavefunction is stable under the perturbations considered.
 The wavefunction is already stable.

 **********************************************************************

            Population analysis using the SCF Density.

 **********************************************************************

 Alpha  occ. eigenvalues --  -20.59216 -11.30052 -11.29181 -11.22878 -11.21809
 Alpha  occ. eigenvalues --   -1.41022  -1.05186  -1.00126  -0.87249  -0.77278
 Alpha  occ. eigenvalues --   -0.68796  -0.66563  -0.65229  -0.55714  -0.55372
 Alpha  occ. eigenvalues --   -0.54891  -0.51930  -0.49219  -0.47940  -0.34336
 Alpha virt. eigenvalues --    0.03642   0.04404   0.04573   0.05361   0.06385
 Alpha virt. eigenvalues --    0.06634   0.08055   0.08504   0.12085   0.12451
 Alpha virt. eigenvalues --    0.13086   0.13387   0.14415   0.15501   0.16660
 Alpha virt. eigenvalues --    0.16731   0.17365   0.17857   0.18006   0.18470
 Alpha virt. eigenvalues --    0.19691   0.22163   0.22487   0.23737   0.27437
 Alpha virt. eigenvalues --    0.28187   0.28223   0.29692   0.30329   0.33053
 Alpha virt. eigenvalues --    0.33770   0.34604   0.35649   0.37352   0.37427
 Alpha virt. eigenvalues --    0.38470   0.42114   0.42532   0.43027   0.43318
 Alpha virt. eigenvalues --    0.43841   0.44874   0.46136   0.46578   0.47110
 Alpha virt. eigenvalues --    0.48168   0.48808   0.51587   0.53510   0.54012
 Alpha virt. eigenvalues --    0.55547   0.55942   0.56578   0.57663   0.58649
 Alpha virt. eigenvalues --    0.60270   0.60666   0.61695   0.62494   0.63929
 Alpha virt. eigenvalues --    0.64172   0.65178   0.66227   0.66911   0.69004
 Alpha virt. eigenvalues --    0.70310   0.70389   0.72106   0.72471   0.73869
 Alpha virt. eigenvalues --    0.75586   0.77524   0.77919   0.80625   0.80789
 Alpha virt. eigenvalues --    0.82390   0.83003   0.84758   0.85399   0.89248
 Alpha virt. eigenvalues --    0.89871   0.91011   0.92925   0.95389   0.95860
 Alpha virt. eigenvalues --    0.98643   1.04359   1.06406   1.10173   1.11614
 Alpha virt. eigenvalues --    1.12435   1.16435   1.20276   1.22212   1.23621
 Alpha virt. eigenvalues --    1.28948   1.33732   1.35955   1.39403   1.40251
 Alpha virt. eigenvalues --    1.41401   1.51665   1.52411   1.53030   1.55830
 Alpha virt. eigenvalues --    1.57576   1.59010   1.64299   1.65422   1.69586
 Alpha virt. eigenvalues --    1.73347   1.74837   1.77940   1.82992   1.85749
 Alpha virt. eigenvalues --    1.85782   1.86663   1.90191   1.91824   1.95015
 Alpha virt. eigenvalues --    1.95823   1.98357   2.01633   2.06948   2.09584
 Alpha virt. eigenvalues --    2.09708   2.11485   2.12819   2.14722   2.17019
 Alpha virt. eigenvalues --    2.17900   2.19350   2.24043   2.26333   2.28429
 Alpha virt. eigenvalues --    2.29841   2.30238   2.31078   2.41121   2.42412
 Alpha virt. eigenvalues --    2.44341   2.48826   2.53217   2.55605   2.60442
 Alpha virt. eigenvalues --    2.61700   2.69923   2.71927   2.73266   2.76795
 Alpha virt. eigenvalues --    2.84247   2.87876   2.88818   2.95149   2.99976
 Alpha virt. eigenvalues --    3.04867   3.12263   3.13037   3.17155   3.32654
 Alpha virt. eigenvalues --    3.37730   3.62365   3.79989   3.87642   3.89836
 Alpha virt. eigenvalues --    4.11045   4.23305
          Condensed to atoms (all electrons):
 Mulliken charges:
               1
     1  C    0.740629
     2  O   -0.847197
     3  C    0.699375
     4  C    0.226413
     5  C    0.608250
     6  H   -0.365918
     7  H   -0.305963
     8  H   -0.273546
     9  H   -0.220470
    10  H   -0.220471
    11  H   -0.013689
    12  H   -0.013726
    13  H   -0.013688
 Sum of Mulliken charges =  -0.00000
 Mulliken charges with hydrogens summed into heavy atoms:
               1
     1  C    0.374711
     2  O   -0.847197
     3  C    0.258435
     4  C    0.185310
     5  C    0.028741
 Electronic spatial extent (au):  <R**2>=            531.3777
 Charge=             -0.0000 electrons
 Dipole moment (field-independent basis, Debye):
    X=             -0.5446    Y=              0.8997    Z=              0.0000  Tot=              1.0517
 Unable to Open any file for archive entry.
 1\1\GINC-SE082\Stability\RHF\Aug-CC-pVDZ\C4H8O1\OHZDE\08-Apr-2025\0\\#
 t hf aug-cc-pvdz symm=none int=(grid=ultrafine) guess=(read,tcheck) st
 able=(opt,rrhf)\\title\\0,1\C,0,1.356133,-0.555369,-0.000001\O,0,0.010
 784,-0.71208,-0.000001\C,0,-0.792544,0.469924,0.000001\C,0,-2.247334,0
 .041708,0.\C,0,2.062221,0.57664,0.000001\H,0,1.837024,-1.527804,-0.000
 002\H,0,1.617458,1.562096,0.000002\H,0,3.141976,0.517164,0.000001\H,0,
 -0.555295,1.070832,-0.886888\H,0,-0.555295,1.07083,0.886891\H,0,-2.471
 992,-0.556613,-0.885569\H,0,-2.899011,0.919332,0.000001\H,0,-2.471992,
 -0.556615,0.885568\\Version=ES64L-G16RevC.01\HF=-230.9874568\RMSD=5.13
 1e-09\Dipole=-0.2142479,0.3539824,0.0000006\Quadrupole=1.2019289,0.438
 5542,-1.6404832,-1.3640324,-0.000001,0.0000037\PG=Unknown\\@
 The archive entry for this job was punched.


 The best way to pay for a lovely moment is to enjoy it.
 -- Richard Bach
 Job cpu time:       0 days  0 hours  3 minutes 15.5 seconds.
 Elapsed time:       0 days  0 hours  0 minutes 14.8 seconds.
 File lengths (MBytes):  RWF=    161 Int=      0 D2E=      0 Chk=      5 Scr=      1
 Normal termination of Gaussian 16 at Tue Apr  8 22:39:35 2025.
 Initial command:
 /arc/software/Gaussian/g16.c01/l1.exe "/tmp/slurm/4841315/Gau-227070.inp" -scrdir="/tmp/slurm/4841315/"
 Entering Link 1 = /arc/software/Gaussian/g16.c01/l1.exe PID=    227658.
  
 Copyright (c) 1988-2019, Gaussian, Inc.  All Rights Reserved.
  
 This is part of the Gaussian(R) 16 program.  It is based on
 the Gaussian(R) 09 system (copyright 2009, Gaussian, Inc.),
 the Gaussian(R) 03 system (copyright 2003, Gaussian, Inc.),
 the Gaussian(R) 98 system (copyright 1998, Gaussian, Inc.),
 the Gaussian(R) 94 system (copyright 1995, Gaussian, Inc.),
 the Gaussian 92(TM) system (copyright 1992, Gaussian, Inc.),
 the Gaussian 90(TM) system (copyright 1990, Gaussian, Inc.),
 the Gaussian 88(TM) system (copyright 1988, Gaussian, Inc.),
 the Gaussian 86(TM) system (copyright 1986, Carnegie Mellon
 University), and the Gaussian 82(TM) system (copyright 1983,
 Carnegie Mellon University). Gaussian is a federally registered
 trademark of Gaussian, Inc.
  
 This software contains proprietary and confidential information,
 including trade secrets, belonging to Gaussian, Inc.
  
 This software is provided under written license and may be
 used, copied, transmitted, or stored only in accord with that
 written license.
  
 The following legend is applicable only to US Government
 contracts under FAR:
  
                    RESTRICTED RIGHTS LEGEND
  
 Use, reproduction and disclosure by the US Government is
 subject to restrictions as set forth in subparagraphs (a)
 and (c) of the Commercial Computer Software - Restricted
 Rights clause in FAR 52.227-19.
  
 Gaussian, Inc.
 340 Quinnipiac St., Bldg. 40, Wallingford CT 06492
  
  
 ---------------------------------------------------------------
 Warning -- This program may not be used in any manner that
 competes with the business of Gaussian, Inc. or will provide
 assistance to any competitor of Gaussian, Inc.  The licensee
 of this program is prohibited from giving any competitor of
 Gaussian, Inc. access to this program.  By using this program,
 the user acknowledges that Gaussian, Inc. is engaged in the
 business of creating and licensing software in the field of
 computational chemistry and represents and warrants to the
 licensee that it is not a competitor of Gaussian, Inc. and that
 it will not use this program in any manner prohibited above.
 ---------------------------------------------------------------
  

 Cite this work as:
 Gaussian 16, Revision C.01,
 M. J. Frisch, G. W. Trucks, H. B. Schlegel, G. E. Scuseria, 
 M. A. Robb, J. R. Cheeseman, G. Scalmani, V. Barone, 
 G. A. Petersson, H. Nakatsuji, X. Li, M. Caricato, A. V. Marenich, 
 J. Bloino, B. G. Janesko, R. Gomperts, B. Mennucci, H. P. Hratchian, 
 J. V. Ortiz, A. F. Izmaylov, J. L. Sonnenberg, D. Williams-Young, 
 F. Ding, F. Lipparini, F. Egidi, J. Goings, B. Peng, A. Petrone, 
 T. Henderson, D. Ranasinghe, V. G. Zakrzewski, J. Gao, N. Rega, 
 G. Zheng, W. Liang, M. Hada, M. Ehara, K. Toyota, R. Fukuda, 
 J. Hasegawa, M. Ishida, T. Nakajima, Y. Honda, O. Kitao, H. Nakai, 
 T. Vreven, K. Throssell, J. A. Montgomery, Jr., J. E. Peralta, 
 F. Ogliaro, M. J. Bearpark, J. J. Heyd, E. N. Brothers, K. N. Kudin, 
 V. N. Staroverov, T. A. Keith, R. Kobayashi, J. Normand, 
 K. Raghavachari, A. P. Rendell, J. C. Burant, S. S. Iyengar, 
 J. Tomasi, M. Cossi, J. M. Millam, M. Klene, C. Adamo, R. Cammi, 
 J. W. Ochterski, R. L. Martin, K. Morokuma, O. Farkas, 
 J. B. Foresman, and D. J. Fox, Gaussian, Inc., Wallingford CT, 2019.
 
 ******************************************
 Gaussian 16:  ES64L-G16RevC.01  3-Jul-2019
                 8-Apr-2025 
 ******************************************
 %nprocs=16
 Will use up to   16 processors via shared memory.
 %mem=30GB
 %chk=BDE49_expt_1360_mol1.chk
 ----------------------------------------------------------------------
 #t hf aug-cc-pvdz iop(5/13=1,5/36=2,99/5=2) pseudo=read geom=check gue
 ss=(read,tcheck) scf=(maxcycle=1)
 ----------------------------------------------------------------------
 -----
 title
 -----
 Structure from the checkpoint file:  "BDE49_expt_1360_mol1.chk"
 Charge =  0 Multiplicity = 1
 Z-Matrix found in chk file.
 C,0,1.356133,-0.555369,-0.000001
 O,0,0.010784,-0.71208,-0.000001
 C,0,-0.792544,0.469924,0.000001
 C,0,-2.247334,0.041708,0.
 C,0,2.062221,0.57664,0.000001
 H,0,1.837024,-1.527804,-0.000002
 H,0,1.617458,1.562096,0.000002
 H,0,3.141976,0.517164,0.000001
 H,0,-0.555295,1.070832,-0.886888
 H,0,-0.555295,1.07083,0.886891
 H,0,-2.471992,-0.556613,-0.885569
 H,0,-2.899011,0.919332,0.000001
 H,0,-2.471992,-0.556615,0.885568
 Recover connectivity data from disk.
                    Distance matrix (angstroms):
                    1          2          3          4          5
     1  C    0.000000
     2  O    1.354445   0.000000
     3  C    2.380764   1.429150   0.000000
     4  C    3.652598   2.380608   1.516504   0.000000
     5  C    1.334168   2.422642   2.856759   4.342628   0.000000
     6  H    1.084844   2.000140   3.302354   4.375540   2.116459
     7  H    2.133530   2.784471   2.645931   4.153095   1.081174
     8  H    2.083162   3.363838   3.934804   5.410242   1.081392
     9  H    2.661702   2.070215   1.097246   2.169945   2.807523
    10  H    2.661702   2.070215   1.097246   2.169946   2.807523
    11  H    3.929220   2.640564   2.158369   1.092104   4.756846
    12  H    4.503442   3.335927   2.153873   1.093118   4.973053
    13  H    3.929221   2.640564   2.158369   1.092105   4.756846
                    6          7          8          9         10
     6  H    0.000000
     7  H    3.097691   0.000000
     8  H    2.425859   1.848253   0.000000
     9  H    3.641794   2.397659   3.842256   0.000000
    10  H    3.641795   2.397659   3.842256   1.773779   0.000000
    11  H    4.505004   4.690071   5.783932   2.514420   3.076347
    12  H    5.330901   4.561977   6.054359   2.510484   2.510484
    13  H    4.505004   4.690071   5.783932   3.076347   2.514420
                   11         12         13
    11  H    0.000000
    12  H    1.773413   0.000000
    13  H    1.771137   1.773413   0.000000
 Framework group  C1[X(C4H8O)]
 Deg. of freedom    33
                         Standard orientation:                         
 ---------------------------------------------------------------------
 Center     Atomic      Atomic             Coordinates (Angstroms)
 Number     Number       Type             X           Y           Z
 ---------------------------------------------------------------------
      1          6           0        1.356133   -0.555369   -0.000001
      2          8           0        0.010784   -0.712080   -0.000001
      3          6           0       -0.792544    0.469924    0.000001
      4          6           0       -2.247334    0.041708   -0.000000
      5          6           0        2.062221    0.576640    0.000001
      6          1           0        1.837024   -1.527804   -0.000002
      7          1           0        1.617458    1.562096    0.000002
      8          1           0        3.141976    0.517164    0.000001
      9          1           0       -0.555295    1.070832   -0.886888
     10          1           0       -0.555295    1.070830    0.886891
     11          1           0       -2.471992   -0.556613   -0.885569
     12          1           0       -2.899011    0.919332    0.000001
     13          1           0       -2.471992   -0.556615    0.885568
 ---------------------------------------------------------------------
 Rotational constants (GHZ):          16.6121221           2.7808747           2.4553970
 ======================================================================================================
                                       Pseudopotential Parameters
 ======================================================================================================
  Center     Atomic      Valence      Angular      Power
  Number     Number     Electrons     Momentum     of R      Exponent        Coefficient   SO-Coeffient
 ======================================================================================================
    1          6            6
                                      G and up 
                                                     0        0.0000010       -0.00011185    0.00000000
                                                     2        0.1200000       -0.02301220    0.00000000
                                                     2        0.1400000        0.13317600    0.00000000
                                                     2        0.1600000       -0.19690668    0.00000000
                                                     2        0.2200000        0.23163694    0.00000000
                                                     2        0.3000000       -0.36920489    0.00000000
                                                     2        0.4000000        0.36389709    0.00000000
                                                     2        0.7000000       -0.38862160    0.00000000
                                                     2        1.3000000        0.80803421    0.00000000
                                      S - G
                                                     0        0.0000010        0.00312304    0.00000000
                                                     2        0.1200000       -0.00632892    0.00000000
                                                     2        0.2200000       -0.03780897    0.00000000
                                                     2        0.4000000        0.26269560    0.00000000
                                                     2        0.9000000       -0.28209514    0.00000000
                                                     2        1.5000000       -0.72686737    0.00000000
                                      P - G
                                                     0        0.0000010       -0.01465594    0.00000000
                                                     2        0.1200000        0.07908409    0.00000000
                                                     2        0.1800000       -0.30615861    0.00000000
                                                     2        0.2600000        0.41506950    0.00000000
                                                     2        0.5000000       -0.36252345    0.00000000
                                                     2        0.9000000        0.15124193    0.00000000
                                                     2        3.0000000       -0.80425677    0.00000000
                                      D - G
                                                     0        0.0000010        0.01149631    0.00000000
                                                     2        0.1200000       -0.04713561    0.00000000
                                                     2        0.1600000        0.10865096    0.00000000
                                                     2        0.2800000       -0.15816701    0.00000000
                                                     2        0.7000000        0.65478804    0.00000000
                                                     2        1.3000000       -1.73816624    0.00000000
                                      F - G
                                                     0        0.0000010        0.00481868    0.00000000
                                                     2        0.1200000       -0.04746842    0.00000000
                                                     2        0.1600000        0.09327889    0.00000000
                                                     2        0.4000000       -0.19693326    0.00000000
                                                     2        0.9000000        0.34938253    0.00000000
    2          8            8
                                      G and up 
                                                     0        0.0000010        0.00001165    0.00000000
                                                     2        0.1200000       -0.01744018    0.00000000
                                                     2        0.1400000        0.05401326    0.00000000
                                                     2        0.1800000       -0.08231208    0.00000000
                                                     2        0.2600000        0.11570222    0.00000000
                                                     2        0.4000000       -0.20630360    0.00000000
                                                     2        0.7000000        0.38074319    0.00000000
                                                     2        1.2000000       -0.17045091    0.00000000
                                                     2        2.0000000       -1.45433187    0.00000000
                                      S - G
                                                     0        0.0000010       -0.00117944    0.00000000
                                                     2        0.1400000        0.04368312    0.00000000
                                                     2        0.3000000       -0.33477926    0.00000000
                                                     2        0.6000000        1.52630657    0.00000000
                                                     2        1.5000000       -2.50804716    0.00000000
                                                     2        3.0000000        2.89751681    0.00000000
                                      P - G
                                                     0        0.0000010        0.06576007    0.00000000
                                                     2        0.1200000       -0.10329304    0.00000000
                                                     2        0.2000000        0.24891756    0.00000000
                                                     2        0.4000000       -0.50800022    0.00000000
                                                     2        0.9000000        0.81480796    0.00000000
                                      D - G
                                                     0        0.0000010       -0.14101855    0.00000000
                                                     2        0.1200000        0.22105937    0.00000000
                                                     2        0.1800000       -0.45814988    0.00000000
                                                     2        0.3000000        0.46029282    0.00000000
                                      F - G
                                                     0        0.0000010        0.07483044    0.00000000
                                                     2        0.1200000       -0.09134252    0.00000000
                                                     2        0.1400000        0.04125459    0.00000000
                                                     2        0.3000000        0.37914837    0.00000000
                                                     2        0.5000000       -0.86881279    0.00000000
    3          6            6
                                      G and up 
                                                     0        0.0000010       -0.00011185    0.00000000
                                                     2        0.1200000       -0.02301220    0.00000000
                                                     2        0.1400000        0.13317600    0.00000000
                                                     2        0.1600000       -0.19690668    0.00000000
                                                     2        0.2200000        0.23163694    0.00000000
                                                     2        0.3000000       -0.36920489    0.00000000
                                                     2        0.4000000        0.36389709    0.00000000
                                                     2        0.7000000       -0.38862160    0.00000000
                                                     2        1.3000000        0.80803421    0.00000000
                                      S - G
                                                     0        0.0000010        0.00312304    0.00000000
                                                     2        0.1200000       -0.00632892    0.00000000
                                                     2        0.2200000       -0.03780897    0.00000000
                                                     2        0.4000000        0.26269560    0.00000000
                                                     2        0.9000000       -0.28209514    0.00000000
                                                     2        1.5000000       -0.72686737    0.00000000
                                      P - G
                                                     0        0.0000010       -0.01465594    0.00000000
                                                     2        0.1200000        0.07908409    0.00000000
                                                     2        0.1800000       -0.30615861    0.00000000
                                                     2        0.2600000        0.41506950    0.00000000
                                                     2        0.5000000       -0.36252345    0.00000000
                                                     2        0.9000000        0.15124193    0.00000000
                                                     2        3.0000000       -0.80425677    0.00000000
                                      D - G
                                                     0        0.0000010        0.01149631    0.00000000
                                                     2        0.1200000       -0.04713561    0.00000000
                                                     2        0.1600000        0.10865096    0.00000000
                                                     2        0.2800000       -0.15816701    0.00000000
                                                     2        0.7000000        0.65478804    0.00000000
                                                     2        1.3000000       -1.73816624    0.00000000
                                      F - G
                                                     0        0.0000010        0.00481868    0.00000000
                                                     2        0.1200000       -0.04746842    0.00000000
                                                     2        0.1600000        0.09327889    0.00000000
                                                     2        0.4000000       -0.19693326    0.00000000
                                                     2        0.9000000        0.34938253    0.00000000
    4          6            6
                                      G and up 
                                                     0        0.0000010       -0.00011185    0.00000000
                                                     2        0.1200000       -0.02301220    0.00000000
                                                     2        0.1400000        0.13317600    0.00000000
                                                     2        0.1600000       -0.19690668    0.00000000
                                                     2        0.2200000        0.23163694    0.00000000
                                                     2        0.3000000       -0.36920489    0.00000000
                                                     2        0.4000000        0.36389709    0.00000000
                                                     2        0.7000000       -0.38862160    0.00000000
                                                     2        1.3000000        0.80803421    0.00000000
                                      S - G
                                                     0        0.0000010        0.00312304    0.00000000
                                                     2        0.1200000       -0.00632892    0.00000000
                                                     2        0.2200000       -0.03780897    0.00000000
                                                     2        0.4000000        0.26269560    0.00000000
                                                     2        0.9000000       -0.28209514    0.00000000
                                                     2        1.5000000       -0.72686737    0.00000000
                                      P - G
                                                     0        0.0000010       -0.01465594    0.00000000
                                                     2        0.1200000        0.07908409    0.00000000
                                                     2        0.1800000       -0.30615861    0.00000000
                                                     2        0.2600000        0.41506950    0.00000000
                                                     2        0.5000000       -0.36252345    0.00000000
                                                     2        0.9000000        0.15124193    0.00000000
                                                     2        3.0000000       -0.80425677    0.00000000
                                      D - G
                                                     0        0.0000010        0.01149631    0.00000000
                                                     2        0.1200000       -0.04713561    0.00000000
                                                     2        0.1600000        0.10865096    0.00000000
                                                     2        0.2800000       -0.15816701    0.00000000
                                                     2        0.7000000        0.65478804    0.00000000
                                                     2        1.3000000       -1.73816624    0.00000000
                                      F - G
                                                     0        0.0000010        0.00481868    0.00000000
                                                     2        0.1200000       -0.04746842    0.00000000
                                                     2        0.1600000        0.09327889    0.00000000
                                                     2        0.4000000       -0.19693326    0.00000000
                                                     2        0.9000000        0.34938253    0.00000000
    5          6            6
                                      G and up 
                                                     0        0.0000010       -0.00011185    0.00000000
                                                     2        0.1200000       -0.02301220    0.00000000
                                                     2        0.1400000        0.13317600    0.00000000
                                                     2        0.1600000       -0.19690668    0.00000000
                                                     2        0.2200000        0.23163694    0.00000000
                                                     2        0.3000000       -0.36920489    0.00000000
                                                     2        0.4000000        0.36389709    0.00000000
                                                     2        0.7000000       -0.38862160    0.00000000
                                                     2        1.3000000        0.80803421    0.00000000
                                      S - G
                                                     0        0.0000010        0.00312304    0.00000000
                                                     2        0.1200000       -0.00632892    0.00000000
                                                     2        0.2200000       -0.03780897    0.00000000
                                                     2        0.4000000        0.26269560    0.00000000
                                                     2        0.9000000       -0.28209514    0.00000000
                                                     2        1.5000000       -0.72686737    0.00000000
                                      P - G
                                                     0        0.0000010       -0.01465594    0.00000000
                                                     2        0.1200000        0.07908409    0.00000000
                                                     2        0.1800000       -0.30615861    0.00000000
                                                     2        0.2600000        0.41506950    0.00000000
                                                     2        0.5000000       -0.36252345    0.00000000
                                                     2        0.9000000        0.15124193    0.00000000
                                                     2        3.0000000       -0.80425677    0.00000000
                                      D - G
                                                     0        0.0000010        0.01149631    0.00000000
                                                     2        0.1200000       -0.04713561    0.00000000
                                                     2        0.1600000        0.10865096    0.00000000
                                                     2        0.2800000       -0.15816701    0.00000000
                                                     2        0.7000000        0.65478804    0.00000000
                                                     2        1.3000000       -1.73816624    0.00000000
                                      F - G
                                                     0        0.0000010        0.00481868    0.00000000
                                                     2        0.1200000       -0.04746842    0.00000000
                                                     2        0.1600000        0.09327889    0.00000000
                                                     2        0.4000000       -0.19693326    0.00000000
                                                     2        0.9000000        0.34938253    0.00000000
    6          1            1
                                      F and up 
                                                     0        0.0000010       -0.00000699    0.00000000
                                                     2        0.1200000        0.00123686    0.00000000
                                                     2        0.1800000       -0.00752022    0.00000000
                                                     2        0.2600000        0.02503380    0.00000000
                                                     2        0.4000000       -0.08702670    0.00000000
                                                     2        0.6000000        0.30134159    0.00000000
                                                     2        0.8000000       -0.50204959    0.00000000
                                                     2        1.2000000        0.52208372    0.00000000
                                      S - F
                                                     0        0.0000010       -0.01618346    0.00000000
                                                     2        0.1200000       -0.07880581    0.00000000
                                                     2        0.1600000        0.32040539    0.00000000
                                                     2        0.2400000       -0.47500956    0.00000000
                                                     2        0.5000000        0.54013668    0.00000000
                                                     2        1.5000000       -1.40434292    0.00000000
                                                     2        3.0000000        1.46283806    0.00000000
                                      P - F
                                                     0        0.0000010        0.00612970    0.00000000
                                                     2        0.1200000        0.02254406    0.00000000
                                                     2        0.1800000       -0.13874529    0.00000000
                                                     2        0.3000000        0.38299049    0.00000000
                                                     2        0.5000000       -0.57923512    0.00000000
                                                     2        1.0000000        0.63021625    0.00000000
                                                     2        2.0000000       -0.79201034    0.00000000
                                      D - F
                                                     0        0.0000010       -0.00296226    0.00000000
                                                     2        0.1200000       -0.00547344    0.00000000
                                                     2        0.1400000        0.01837884    0.00000000
                                                     2        0.2400000       -0.05565704    0.00000000
                                                     2        0.4000000        0.15376597    0.00000000
                                                     2        0.8000000       -0.32464795    0.00000000
    7          1            1
                                      F and up 
                                                     0        0.0000010       -0.00000699    0.00000000
                                                     2        0.1200000        0.00123686    0.00000000
                                                     2        0.1800000       -0.00752022    0.00000000
                                                     2        0.2600000        0.02503380    0.00000000
                                                     2        0.4000000       -0.08702670    0.00000000
                                                     2        0.6000000        0.30134159    0.00000000
                                                     2        0.8000000       -0.50204959    0.00000000
                                                     2        1.2000000        0.52208372    0.00000000
                                      S - F
                                                     0        0.0000010       -0.01618346    0.00000000
                                                     2        0.1200000       -0.07880581    0.00000000
                                                     2        0.1600000        0.32040539    0.00000000
                                                     2        0.2400000       -0.47500956    0.00000000
                                                     2        0.5000000        0.54013668    0.00000000
                                                     2        1.5000000       -1.40434292    0.00000000
                                                     2        3.0000000        1.46283806    0.00000000
                                      P - F
                                                     0        0.0000010        0.00612970    0.00000000
                                                     2        0.1200000        0.02254406    0.00000000
                                                     2        0.1800000       -0.13874529    0.00000000
                                                     2        0.3000000        0.38299049    0.00000000
                                                     2        0.5000000       -0.57923512    0.00000000
                                                     2        1.0000000        0.63021625    0.00000000
                                                     2        2.0000000       -0.79201034    0.00000000
                                      D - F
                                                     0        0.0000010       -0.00296226    0.00000000
                                                     2        0.1200000       -0.00547344    0.00000000
                                                     2        0.1400000        0.01837884    0.00000000
                                                     2        0.2400000       -0.05565704    0.00000000
                                                     2        0.4000000        0.15376597    0.00000000
                                                     2        0.8000000       -0.32464795    0.00000000
    8          1            1
                                      F and up 
                                                     0        0.0000010       -0.00000699    0.00000000
                                                     2        0.1200000        0.00123686    0.00000000
                                                     2        0.1800000       -0.00752022    0.00000000
                                                     2        0.2600000        0.02503380    0.00000000
                                                     2        0.4000000       -0.08702670    0.00000000
                                                     2        0.6000000        0.30134159    0.00000000
                                                     2        0.8000000       -0.50204959    0.00000000
                                                     2        1.2000000        0.52208372    0.00000000
                                      S - F
                                                     0        0.0000010       -0.01618346    0.00000000
                                                     2        0.1200000       -0.07880581    0.00000000
                                                     2        0.1600000        0.32040539    0.00000000
                                                     2        0.2400000       -0.47500956    0.00000000
                                                     2        0.5000000        0.54013668    0.00000000
                                                     2        1.5000000       -1.40434292    0.00000000
                                                     2        3.0000000        1.46283806    0.00000000
                                      P - F
                                                     0        0.0000010        0.00612970    0.00000000
                                                     2        0.1200000        0.02254406    0.00000000
                                                     2        0.1800000       -0.13874529    0.00000000
                                                     2        0.3000000        0.38299049    0.00000000
                                                     2        0.5000000       -0.57923512    0.00000000
                                                     2        1.0000000        0.63021625    0.00000000
                                                     2        2.0000000       -0.79201034    0.00000000
                                      D - F
                                                     0        0.0000010       -0.00296226    0.00000000
                                                     2        0.1200000       -0.00547344    0.00000000
                                                     2        0.1400000        0.01837884    0.00000000
                                                     2        0.2400000       -0.05565704    0.00000000
                                                     2        0.4000000        0.15376597    0.00000000
                                                     2        0.8000000       -0.32464795    0.00000000
    9          1            1
                                      F and up 
                                                     0        0.0000010       -0.00000699    0.00000000
                                                     2        0.1200000        0.00123686    0.00000000
                                                     2        0.1800000       -0.00752022    0.00000000
                                                     2        0.2600000        0.02503380    0.00000000
                                                     2        0.4000000       -0.08702670    0.00000000
                                                     2        0.6000000        0.30134159    0.00000000
                                                     2        0.8000000       -0.50204959    0.00000000
                                                     2        1.2000000        0.52208372    0.00000000
                                      S - F
                                                     0        0.0000010       -0.01618346    0.00000000
                                                     2        0.1200000       -0.07880581    0.00000000
                                                     2        0.1600000        0.32040539    0.00000000
                                                     2        0.2400000       -0.47500956    0.00000000
                                                     2        0.5000000        0.54013668    0.00000000
                                                     2        1.5000000       -1.40434292    0.00000000
                                                     2        3.0000000        1.46283806    0.00000000
                                      P - F
                                                     0        0.0000010        0.00612970    0.00000000
                                                     2        0.1200000        0.02254406    0.00000000
                                                     2        0.1800000       -0.13874529    0.00000000
                                                     2        0.3000000        0.38299049    0.00000000
                                                     2        0.5000000       -0.57923512    0.00000000
                                                     2        1.0000000        0.63021625    0.00000000
                                                     2        2.0000000       -0.79201034    0.00000000
                                      D - F
                                                     0        0.0000010       -0.00296226    0.00000000
                                                     2        0.1200000       -0.00547344    0.00000000
                                                     2        0.1400000        0.01837884    0.00000000
                                                     2        0.2400000       -0.05565704    0.00000000
                                                     2        0.4000000        0.15376597    0.00000000
                                                     2        0.8000000       -0.32464795    0.00000000
   10          1            1
                                      F and up 
                                                     0        0.0000010       -0.00000699    0.00000000
                                                     2        0.1200000        0.00123686    0.00000000
                                                     2        0.1800000       -0.00752022    0.00000000
                                                     2        0.2600000        0.02503380    0.00000000
                                                     2        0.4000000       -0.08702670    0.00000000
                                                     2        0.6000000        0.30134159    0.00000000
                                                     2        0.8000000       -0.50204959    0.00000000
                                                     2        1.2000000        0.52208372    0.00000000
                                      S - F
                                                     0        0.0000010       -0.01618346    0.00000000
                                                     2        0.1200000       -0.07880581    0.00000000
                                                     2        0.1600000        0.32040539    0.00000000
                                                     2        0.2400000       -0.47500956    0.00000000
                                                     2        0.5000000        0.54013668    0.00000000
                                                     2        1.5000000       -1.40434292    0.00000000
                                                     2        3.0000000        1.46283806    0.00000000
                                      P - F
                                                     0        0.0000010        0.00612970    0.00000000
                                                     2        0.1200000        0.02254406    0.00000000
                                                     2        0.1800000       -0.13874529    0.00000000
                                                     2        0.3000000        0.38299049    0.00000000
                                                     2        0.5000000       -0.57923512    0.00000000
                                                     2        1.0000000        0.63021625    0.00000000
                                                     2        2.0000000       -0.79201034    0.00000000
                                      D - F
                                                     0        0.0000010       -0.00296226    0.00000000
                                                     2        0.1200000       -0.00547344    0.00000000
                                                     2        0.1400000        0.01837884    0.00000000
                                                     2        0.2400000       -0.05565704    0.00000000
                                                     2        0.4000000        0.15376597    0.00000000
                                                     2        0.8000000       -0.32464795    0.00000000
   11          1            1
                                      F and up 
                                                     0        0.0000010       -0.00000699    0.00000000
                                                     2        0.1200000        0.00123686    0.00000000
                                                     2        0.1800000       -0.00752022    0.00000000
                                                     2        0.2600000        0.02503380    0.00000000
                                                     2        0.4000000       -0.08702670    0.00000000
                                                     2        0.6000000        0.30134159    0.00000000
                                                     2        0.8000000       -0.50204959    0.00000000
                                                     2        1.2000000        0.52208372    0.00000000
                                      S - F
                                                     0        0.0000010       -0.01618346    0.00000000
                                                     2        0.1200000       -0.07880581    0.00000000
                                                     2        0.1600000        0.32040539    0.00000000
                                                     2        0.2400000       -0.47500956    0.00000000
                                                     2        0.5000000        0.54013668    0.00000000
                                                     2        1.5000000       -1.40434292    0.00000000
                                                     2        3.0000000        1.46283806    0.00000000
                                      P - F
                                                     0        0.0000010        0.00612970    0.00000000
                                                     2        0.1200000        0.02254406    0.00000000
                                                     2        0.1800000       -0.13874529    0.00000000
                                                     2        0.3000000        0.38299049    0.00000000
                                                     2        0.5000000       -0.57923512    0.00000000
                                                     2        1.0000000        0.63021625    0.00000000
                                                     2        2.0000000       -0.79201034    0.00000000
                                      D - F
                                                     0        0.0000010       -0.00296226    0.00000000
                                                     2        0.1200000       -0.00547344    0.00000000
                                                     2        0.1400000        0.01837884    0.00000000
                                                     2        0.2400000       -0.05565704    0.00000000
                                                     2        0.4000000        0.15376597    0.00000000
                                                     2        0.8000000       -0.32464795    0.00000000
   12          1            1
                                      F and up 
                                                     0        0.0000010       -0.00000699    0.00000000
                                                     2        0.1200000        0.00123686    0.00000000
                                                     2        0.1800000       -0.00752022    0.00000000
                                                     2        0.2600000        0.02503380    0.00000000
                                                     2        0.4000000       -0.08702670    0.00000000
                                                     2        0.6000000        0.30134159    0.00000000
                                                     2        0.8000000       -0.50204959    0.00000000
                                                     2        1.2000000        0.52208372    0.00000000
                                      S - F
                                                     0        0.0000010       -0.01618346    0.00000000
                                                     2        0.1200000       -0.07880581    0.00000000
                                                     2        0.1600000        0.32040539    0.00000000
                                                     2        0.2400000       -0.47500956    0.00000000
                                                     2        0.5000000        0.54013668    0.00000000
                                                     2        1.5000000       -1.40434292    0.00000000
                                                     2        3.0000000        1.46283806    0.00000000
                                      P - F
                                                     0        0.0000010        0.00612970    0.00000000
                                                     2        0.1200000        0.02254406    0.00000000
                                                     2        0.1800000       -0.13874529    0.00000000
                                                     2        0.3000000        0.38299049    0.00000000
                                                     2        0.5000000       -0.57923512    0.00000000
                                                     2        1.0000000        0.63021625    0.00000000
                                                     2        2.0000000       -0.79201034    0.00000000
                                      D - F
                                                     0        0.0000010       -0.00296226    0.00000000
                                                     2        0.1200000       -0.00547344    0.00000000
                                                     2        0.1400000        0.01837884    0.00000000
                                                     2        0.2400000       -0.05565704    0.00000000
                                                     2        0.4000000        0.15376597    0.00000000
                                                     2        0.8000000       -0.32464795    0.00000000
   13          1            1
                                      F and up 
                                                     0        0.0000010       -0.00000699    0.00000000
                                                     2        0.1200000        0.00123686    0.00000000
                                                     2        0.1800000       -0.00752022    0.00000000
                                                     2        0.2600000        0.02503380    0.00000000
                                                     2        0.4000000       -0.08702670    0.00000000
                                                     2        0.6000000        0.30134159    0.00000000
                                                     2        0.8000000       -0.50204959    0.00000000
                                                     2        1.2000000        0.52208372    0.00000000
                                      S - F
                                                     0        0.0000010       -0.01618346    0.00000000
                                                     2        0.1200000       -0.07880581    0.00000000
                                                     2        0.1600000        0.32040539    0.00000000
                                                     2        0.2400000       -0.47500956    0.00000000
                                                     2        0.5000000        0.54013668    0.00000000
                                                     2        1.5000000       -1.40434292    0.00000000
                                                     2        3.0000000        1.46283806    0.00000000
                                      P - F
                                                     0        0.0000010        0.00612970    0.00000000
                                                     2        0.1200000        0.02254406    0.00000000
                                                     2        0.1800000       -0.13874529    0.00000000
                                                     2        0.3000000        0.38299049    0.00000000
                                                     2        0.5000000       -0.57923512    0.00000000
                                                     2        1.0000000        0.63021625    0.00000000
                                                     2        2.0000000       -0.79201034    0.00000000
                                      D - F
                                                     0        0.0000010       -0.00296226    0.00000000
                                                     2        0.1200000       -0.00547344    0.00000000
                                                     2        0.1400000        0.01837884    0.00000000
                                                     2        0.2400000       -0.05565704    0.00000000
                                                     2        0.4000000        0.15376597    0.00000000
                                                     2        0.8000000       -0.32464795    0.00000000
 ======================================================================================================
   187 basis functions,   303 primitive gaussians,   197 cartesian basis functions
    20 alpha electrons       20 beta electrons
       nuclear repulsion energy       176.4133803293 Hartrees.
 NAtoms=   13 NActive=   13 NUniq=   13 SFac= 1.00D+00 NAtFMM=   60 NAOKFM=F Big=F
   1 Symmetry operations used in ECPInt.
 ECPInt:  NShTT=    3655 NPrTT=   14955 LenC2=    3653 LenP2D=   12416.
 LDataN:  DoStor=T MaxTD1= 6 Len=  172
 Initial guess from the checkpoint file:  "BDE49_expt_1360_mol1.chk"
 B after Tr=    -0.000000    0.000000   -0.000000
         Rot=    1.000000   -0.000000    0.000000    0.000000 Ang=   0.00 deg.
 >>>>>>>>>> Convergence criterion not met.
 SCF Done:  E(RHF) =  -231.064312991     A.U. after    2 cycles
            NFock=  1  Conv=0.45D-02     -V/T= 1.9996

 **********************************************************************

            Population analysis using the SCF Density.

 **********************************************************************

 Orbital symmetries:
       Occupied  (A) (A) (A) (A) (A) (A) (A) (A) (A) (A) (A) (A)
                 (A) (A) (A) (A) (A) (A) (A) (A)
       Virtual   (A) (A) (A) (A) (A) (A) (A) (A) (A) (A) (A) (A)
                 (A) (A) (A) (A) (A) (A) (A) (A) (A) (A) (A) (A)
                 (A) (A) (A) (A) (A) (A) (A) (A) (A) (A) (A) (A)
                 (A) (A) (A) (A) (A) (A) (A) (A) (A) (A) (A) (A)
                 (A) (A) (A) (A) (A) (A) (A) (A) (A) (A) (A) (A)
                 (A) (A) (A) (A) (A) (A) (A) (A) (A) (A) (A) (A)
                 (A) (A) (A) (A) (A) (A) (A) (A) (A) (A) (A) (A)
                 (A) (A) (A) (A) (A) (A) (A) (A) (A) (A) (A) (A)
                 (A) (A) (A) (A) (A) (A) (A) (A) (A) (A) (A) (A)
                 (A) (A) (A) (A) (A) (A) (A) (A) (A) (A) (A) (A)
                 (A) (A) (A) (A) (A) (A) (A) (A) (A) (A) (A) (A)
                 (A) (A) (A) (A) (A) (A) (A) (A) (A) (A) (A) (A)
                 (A) (A) (A) (A) (A) (A) (A) (A) (A) (A) (A) (A)
                 (A) (A) (A) (A) (A) (A) (A) (A) (A) (A) (A)
 The electronic state is 1-A.
 Alpha  occ. eigenvalues --  -20.59665 -11.30517 -11.29605 -11.23230 -11.22178
 Alpha  occ. eigenvalues --   -1.36594  -1.04698  -0.99482  -0.87462  -0.77608
 Alpha  occ. eigenvalues --   -0.69589  -0.67491  -0.65996  -0.56247  -0.56171
 Alpha  occ. eigenvalues --   -0.55521  -0.52502  -0.50111  -0.48552  -0.35001
 Alpha virt. eigenvalues --    0.03543   0.04416   0.04602   0.05390   0.06313
 Alpha virt. eigenvalues --    0.06584   0.07973   0.08500   0.12079   0.12382
 Alpha virt. eigenvalues --    0.13087   0.13318   0.14445   0.15519   0.16672
 Alpha virt. eigenvalues --    0.16719   0.17300   0.17841   0.17950   0.18408
 Alpha virt. eigenvalues --    0.19686   0.22150   0.22228   0.23695   0.27413
 Alpha virt. eigenvalues --    0.28073   0.28130   0.29505   0.30222   0.32881
 Alpha virt. eigenvalues --    0.33672   0.34492   0.35573   0.37265   0.37420
 Alpha virt. eigenvalues --    0.38229   0.42017   0.42410   0.42980   0.43205
 Alpha virt. eigenvalues --    0.43782   0.44805   0.46102   0.46440   0.46952
 Alpha virt. eigenvalues --    0.47960   0.48739   0.51520   0.53427   0.53665
 Alpha virt. eigenvalues --    0.55559   0.55869   0.56284   0.57634   0.58571
 Alpha virt. eigenvalues --    0.60028   0.60565   0.61724   0.62453   0.63853
 Alpha virt. eigenvalues --    0.64126   0.65104   0.66175   0.66862   0.68877
 Alpha virt. eigenvalues --    0.70178   0.70244   0.71993   0.72492   0.73790
 Alpha virt. eigenvalues --    0.75396   0.77514   0.77710   0.80597   0.80708
 Alpha virt. eigenvalues --    0.82329   0.82641   0.84489   0.85304   0.88721
 Alpha virt. eigenvalues --    0.89588   0.90872   0.92539   0.95007   0.95461
 Alpha virt. eigenvalues --    0.98549   1.04309   1.06076   1.09454   1.11089
 Alpha virt. eigenvalues --    1.12129   1.16297   1.19738   1.21487   1.23106
 Alpha virt. eigenvalues --    1.28867   1.33208   1.35547   1.38757   1.40126
 Alpha virt. eigenvalues --    1.40923   1.51134   1.51671   1.52760   1.55191
 Alpha virt. eigenvalues --    1.57044   1.58705   1.63434   1.64729   1.68665
 Alpha virt. eigenvalues --    1.72587   1.73979   1.76848   1.82050   1.84665
 Alpha virt. eigenvalues --    1.84968   1.85758   1.90304   1.90944   1.93856
 Alpha virt. eigenvalues --    1.94848   1.97198   2.00447   2.05899   2.08495
 Alpha virt. eigenvalues --    2.09185   2.10479   2.12098   2.14099   2.15928
 Alpha virt. eigenvalues --    2.17243   2.18739   2.23108   2.25288   2.27532
 Alpha virt. eigenvalues --    2.29164   2.29257   2.30397   2.40175   2.40711
 Alpha virt. eigenvalues --    2.42974   2.46922   2.52376   2.53740   2.59275
 Alpha virt. eigenvalues --    2.60437   2.68459   2.70716   2.72019   2.74817
 Alpha virt. eigenvalues --    2.82260   2.86130   2.88155   2.93057   2.97816
 Alpha virt. eigenvalues --    3.02653   3.10064   3.10873   3.16406   3.29940
 Alpha virt. eigenvalues --    3.36890   3.60508   3.64403   3.73616   3.73966
 Alpha virt. eigenvalues --    3.95976   4.08862
          Condensed to atoms (all electrons):
 Mulliken charges:
               1
     1  C    0.548966
     2  O   -0.562934
     3  C    0.615725
     4  C    0.184003
     5  C    0.660500
     6  H   -0.394283
     7  H   -0.310579
     8  H   -0.272460
     9  H   -0.219641
    10  H   -0.219642
    11  H   -0.012214
    12  H   -0.005228
    13  H   -0.012213
 Sum of Mulliken charges =  -0.00000
 Mulliken charges with hydrogens summed into heavy atoms:
               1
     1  C    0.154683
     2  O   -0.562934
     3  C    0.176441
     4  C    0.154348
     5  C    0.077461
 Electronic spatial extent (au):  <R**2>=            530.4143
 Charge=             -0.0000 electrons
 Dipole moment (field-independent basis, Debye):
    X=             -0.4868    Y=              1.0023    Z=              0.0000  Tot=              1.1143

 Test job not archived.
 1\1\GINC-SE082\SP\RHF\Aug-CC-pVDZ\C4H8O1\OHZDE\08-Apr-2025\0\\#t hf au
 g-cc-pvdz iop(5/13=1,5/36=2,99/5=2) pseudo=read geom=check guess=(read
 ,tcheck) scf=(maxcycle=1)\\title\\0,1\C,0,1.356133,-0.555369,-0.000001
 \O,0,0.010784,-0.71208,-0.000001\C,0,-0.792544,0.469924,0.000001\C,0,-
 2.247334,0.041708,0.\C,0,2.062221,0.57664,0.000001\H,0,1.837024,-1.527
 804,-0.000002\H,0,1.617458,1.562096,0.000002\H,0,3.141976,0.517164,0.0
 00001\H,0,-0.555295,1.070832,-0.886888\H,0,-0.555295,1.07083,0.886891\
 H,0,-2.471992,-0.556613,-0.885569\H,0,-2.899011,0.919332,0.000001\H,0,
 -2.471992,-0.556615,0.885568\\Version=ES64L-G16RevC.01\State=1-A\HF=-2
 31.064313\RMSD=4.474e-03\Dipole=-0.19151,0.3943362,0.0000006\Quadrupol
 e=1.3206559,0.3777771,-1.698433,-1.3752544,-0.000001,0.0000037\PG=C01 
 [X(C4H8O1)]\\@


 AND THIS OUR LIFE, EXEMPT FROM PUBLIC HAUNT,
 FINDS TONGUES IN TREES, BOOKS IN THE RUNNING BROOKS,
 SERMONS IN STONES, AND GOOD IN EVERYTHING.
 I WOULD NOT CHANGE IT. -- W. SHAKESPEARE
 AS YOU LIKE IT, ACT II, SCENE 1.
 Job cpu time:       0 days  0 hours  0 minutes 35.3 seconds.
 Elapsed time:       0 days  0 hours  0 minutes  3.0 seconds.
 File lengths (MBytes):  RWF=     10 Int=      0 D2E=      0 Chk=      5 Scr=      1
 Normal termination of Gaussian 16 at Tue Apr  8 22:39:38 2025.
