 Entering Gaussian System, Link 0=g16
 Input=BDE49_expt_143_mol2.gjf
 Output=BDE49_expt_143_mol2.log
 Initial command:
 /arc/software/Gaussian/g16.c01/l1.exe "/tmp/slurm/4841455/Gau-3522447.inp" -scrdir="/tmp/slurm/4841455/"
 Entering Link 1 = /arc/software/Gaussian/g16.c01/l1.exe PID=   3522448.
  
 Copyright (c) 1988-2019, Gaussian, Inc.  All Rights Reserved.
  
 This is part of the Gaussian(R) 16 program.  It is based on
 the Gaussian(R) 09 system (copyright 2009, Gaussian, Inc.),
 the Gaussian(R) 03 system (copyright 2003, Gaussian, Inc.),
 the Gaussian(R) 98 system (copyright 1998, Gaussian, Inc.),
 the Gaussian(R) 94 system (copyright 1995, Gaussian, Inc.),
 the Gaussian 92(TM) system (copyright 1992, Gaussian, Inc.),
 the Gaussian 90(TM) system (copyright 1990, Gaussian, Inc.),
 the Gaussian 88(TM) system (copyright 1988, Gaussian, Inc.),
 the Gaussian 86(TM) system (copyright 1986, Carnegie Mellon
 University), and the Gaussian 82(TM) system (copyright 1983,
 Carnegie Mellon University). Gaussian is a federally registered
 trademark of Gaussian, Inc.
  
 This software contains proprietary and confidential information,
 including trade secrets, belonging to Gaussian, Inc.
  
 This software is provided under written license and may be
 used, copied, transmitted, or stored only in accord with that
 written license.
  
 The following legend is applicable only to US Government
 contracts under FAR:
  
                    RESTRICTED RIGHTS LEGEND
  
 Use, reproduction and disclosure by the US Government is
 subject to restrictions as set forth in subparagraphs (a)
 and (c) of the Commercial Computer Software - Restricted
 Rights clause in FAR 52.227-19.
  
 Gaussian, Inc.
 340 Quinnipiac St., Bldg. 40, Wallingford CT 06492
  
  
 ---------------------------------------------------------------
 Warning -- This program may not be used in any manner that
 competes with the business of Gaussian, Inc. or will provide
 assistance to any competitor of Gaussian, Inc.  The licensee
 of this program is prohibited from giving any competitor of
 Gaussian, Inc. access to this program.  By using this program,
 the user acknowledges that Gaussian, Inc. is engaged in the
 business of creating and licensing software in the field of
 computational chemistry and represents and warrants to the
 licensee that it is not a competitor of Gaussian, Inc. and that
 it will not use this program in any manner prohibited above.
 ---------------------------------------------------------------
  

 Cite this work as:
 Gaussian 16, Revision C.01,
 M. J. Frisch, G. W. Trucks, H. B. Schlegel, G. E. Scuseria, 
 M. A. Robb, J. R. Cheeseman, G. Scalmani, V. Barone, 
 G. A. Petersson, H. Nakatsuji, X. Li, M. Caricato, A. V. Marenich, 
 J. Bloino, B. G. Janesko, R. Gomperts, B. Mennucci, H. P. Hratchian, 
 J. V. Ortiz, A. F. Izmaylov, J. L. Sonnenberg, D. Williams-Young, 
 F. Ding, F. Lipparini, F. Egidi, J. Goings, B. Peng, A. Petrone, 
 T. Henderson, D. Ranasinghe, V. G. Zakrzewski, J. Gao, N. Rega, 
 G. Zheng, W. Liang, M. Hada, M. Ehara, K. Toyota, R. Fukuda, 
 J. Hasegawa, M. Ishida, T. Nakajima, Y. Honda, O. Kitao, H. Nakai, 
 T. Vreven, K. Throssell, J. A. Montgomery, Jr., J. E. Peralta, 
 F. Ogliaro, M. J. Bearpark, J. J. Heyd, E. N. Brothers, K. N. Kudin, 
 V. N. Staroverov, T. A. Keith, R. Kobayashi, J. Normand, 
 K. Raghavachari, A. P. Rendell, J. C. Burant, S. S. Iyengar, 
 J. Tomasi, M. Cossi, J. M. Millam, M. Klene, C. Adamo, R. Cammi, 
 J. W. Ochterski, R. L. Martin, K. Morokuma, O. Farkas, 
 J. B. Foresman, and D. J. Fox, Gaussian, Inc., Wallingford CT, 2019.
 
 ******************************************
 Gaussian 16:  ES64L-G16RevC.01  3-Jul-2019
                 8-Apr-2025 
 ******************************************
 %nprocs=16
 Will use up to   16 processors via shared memory.
 %mem=30GB
 %chk=BDE49_expt_143_mol2.chk
 ----------------------------------------------------------------------
 #t hf aug-cc-pvdz symm=none int=(grid=ultrafine) guess=(read,tcheck) s
 table=opt
 ----------------------------------------------------------------------
 -----
 title
 -----
 Symbolic Z-matrix:
 Charge =  0 Multiplicity = 2
 C                     1.17771   0.19734  -0.103 
 C                    -0.1925   -0.49058   0.12572 
 F                     1.2752    1.31113   0.62978 
 F                     1.31609   0.51816  -1.39649 
 F                     2.16253  -0.63368   0.24269 
 C                    -1.37072   0.32804  -0.35812 
 F                    -0.30117  -0.76227   1.4589 
 F                    -0.19319  -1.66559  -0.54281 
 F                    -1.48078   1.5331    0.18202 
 F                    -2.52167  -0.32406  -0.35047 
 
                    Distance matrix (angstroms):
                    1          2          3          4          5
     1  C    0.000000
     2  C    1.550159   0.000000
     3  F    1.336788   2.377892   0.000000
     4  F    1.339845   2.368644   2.176288   0.000000
     5  F    1.334154   2.362262   2.172434   2.174883   0.000000
     6  C    2.564496   1.514082   2.990538   2.886739   3.710754
     7  F    2.355307   1.364920   2.733387   3.522538   2.750546
     8  F    2.354420   1.351885   3.520229   2.788447   2.689094
     9  F    2.988822   2.399610   2.800929   3.368125   4.239376
    10  F    3.744129   2.383180   4.248647   4.065939   4.731745
                    6          7          8          9         10
     6  C    0.000000
     7  F    2.373663   0.000000
     8  F    2.322771   2.198751   0.000000
     9  F    1.325159   2.879345   3.523484   0.000000
    10  F    1.322871   2.897667   2.694171   2.194552   0.000000
 Symmetry turned off by external request.
 Rotational constants (GHZ):           1.9665614           1.1138162           0.9763711
   230 basis functions,   430 primitive gaussians,   250 cartesian basis functions
    41 alpha electrons       40 beta electrons
       nuclear repulsion energy       645.3607356276 Hartrees.
 NAtoms=   10 NActive=   10 NUniq=   10 SFac= 1.00D+00 NAtFMM=   60 NAOKFM=F Big=F
 ExpMin= 4.04D-02 ExpMax= 1.47D+04 ExpMxC= 5.03D+02 IAcc=3 IRadAn=         5 AccDes= 0.00D+00
 Harris functional with IExCor=  205 and IRadAn=       5 diagonalized for initial guess.
 HarFok:  IExCor=  205 AccDes= 0.00D+00 IRadAn=         5 IDoV= 1 UseB2=F ITyADJ=14
 ICtDFT=  3500011 ScaDFX=  1.000000  1.000000  1.000000  1.000000
 FoFCou: FMM=F IPFlag=           0 FMFlag=      100000 FMFlg1=           0
         NFxFlg=           0 DoJE=T BraDBF=F KetDBF=T FulRan=T
         wScrn=  0.000000 ICntrl=       500 IOpCl=  0 I1Cent=   200000004 NGrid=           0
         NMat0=    1 NMatS0=      1 NMatT0=    0 NMatD0=    1 NMtDS0=    0 NMtDT0=    0
 Symmetry not used in FoFCou.
 Initial guess <Sx>= 0.0000 <Sy>= 0.0000 <Sz>= 0.5000 <S**2>= 0.7500 S= 0.5000
 SCF Done:  E(UHF) =  -809.720020817     A.U. after   16 cycles
            NFock= 16  Conv=0.46D-08     -V/T= 2.0012
 <Sx>= 0.0000 <Sy>= 0.0000 <Sz>= 0.5000 <S**2>= 0.7568 S= 0.5034
 <L.S>=  0.00000000000    
 Annihilation of the first spin contaminant:
 S**2 before annihilation     0.7568,   after     0.7500

 **********************************************************************

            Population analysis using the SCF Density.

 **********************************************************************

 Alpha  occ. eigenvalues --  -26.39355 -26.39335 -26.39183 -26.39149 -26.39037
 Alpha  occ. eigenvalues --  -26.38643 -26.38289 -11.56786 -11.50422 -11.48369
 Alpha  occ. eigenvalues --   -1.77876  -1.74808  -1.72400  -1.68396  -1.68126
 Alpha  occ. eigenvalues --   -1.67948  -1.66470  -1.13908  -1.03201  -0.95109
 Alpha  occ. eigenvalues --   -0.89287  -0.87811  -0.87237  -0.84697  -0.84252
 Alpha  occ. eigenvalues --   -0.82485  -0.80156  -0.76054  -0.75219  -0.74480
 Alpha  occ. eigenvalues --   -0.73866  -0.73517  -0.72427  -0.70521  -0.70138
 Alpha  occ. eigenvalues --   -0.69278  -0.68652  -0.68271  -0.66476  -0.59049
 Alpha  occ. eigenvalues --   -0.47474
 Alpha virt. eigenvalues --    0.06568   0.07337   0.07804   0.08613   0.10799
 Alpha virt. eigenvalues --    0.11099   0.11433   0.12541   0.13580   0.14994
 Alpha virt. eigenvalues --    0.19706   0.20550   0.21542   0.22797   0.25137
 Alpha virt. eigenvalues --    0.26636   0.27315   0.28328   0.29433   0.29623
 Alpha virt. eigenvalues --    0.31827   0.32932   0.33296   0.33348   0.34152
 Alpha virt. eigenvalues --    0.34972   0.35679   0.36083   0.36582   0.37620
 Alpha virt. eigenvalues --    0.38200   0.38594   0.38902   0.39003   0.39920
 Alpha virt. eigenvalues --    0.40405   0.41269   0.42448   0.43353   0.44452
 Alpha virt. eigenvalues --    0.46446   0.47345   0.48273   0.49558   0.50877
 Alpha virt. eigenvalues --    0.51931   0.52614   0.57296   0.57937   0.61386
 Alpha virt. eigenvalues --    0.64700   0.67038   0.68602   0.71749   0.73630
 Alpha virt. eigenvalues --    0.75826   0.77154   0.79036   0.80886   0.81931
 Alpha virt. eigenvalues --    0.82465   0.85448   0.86166   0.89554   0.93249
 Alpha virt. eigenvalues --    0.96333   0.98939   1.02242   1.05575   1.06065
 Alpha virt. eigenvalues --    1.12249   1.15629   1.20254   1.26738   1.28350
 Alpha virt. eigenvalues --    1.31939   1.34427   1.35840   1.37656   1.39180
 Alpha virt. eigenvalues --    1.40389   1.42286   1.42956   1.44450   1.47288
 Alpha virt. eigenvalues --    1.48984   1.50338   1.51107   1.52051   1.52980
 Alpha virt. eigenvalues --    1.54503   1.55130   1.56961   1.57575   1.59074
 Alpha virt. eigenvalues --    1.61518   1.63183   1.64312   1.66968   1.67703
 Alpha virt. eigenvalues --    1.69767   1.72063   1.73042   1.73767   1.76083
 Alpha virt. eigenvalues --    1.78506   1.79709   1.80388   1.85306   1.86342
 Alpha virt. eigenvalues --    1.89772   1.91325   1.91440   1.92893   1.94463
 Alpha virt. eigenvalues --    1.97741   1.98605   2.00866   2.03403   2.06144
 Alpha virt. eigenvalues --    2.07544   2.09100   2.12977   2.14958   2.18888
 Alpha virt. eigenvalues --    2.20998   2.28065   2.30809   2.33022   2.38275
 Alpha virt. eigenvalues --    2.40367   2.45595   2.46557   2.50398   2.51976
 Alpha virt. eigenvalues --    2.57291   2.58082   2.62471   2.64457   2.71053
 Alpha virt. eigenvalues --    2.72711   2.76374   2.82893   2.83720   2.88553
 Alpha virt. eigenvalues --    2.92471   3.00093   3.50912   3.54735   3.65859
 Alpha virt. eigenvalues --    3.68519   3.70498   3.78201   3.95593   4.81656
 Alpha virt. eigenvalues --    4.86117   4.87923   4.88503   4.89009   4.90870
 Alpha virt. eigenvalues --    4.91495   4.92119   4.93856   4.94738   4.95926
 Alpha virt. eigenvalues --    4.97229   4.97915   4.98891   4.99378   5.00244
 Alpha virt. eigenvalues --    5.01561   5.02558   5.04106   5.04444   5.05498
 Alpha virt. eigenvalues --    5.06584   5.07187   5.07638   5.09425   5.11756
 Alpha virt. eigenvalues --    5.12676   5.14389   5.16180   5.17421   5.21080
 Alpha virt. eigenvalues --    5.22235   5.24292   5.28573   5.30556
  Beta  occ. eigenvalues --  -26.39341 -26.39145 -26.39046 -26.38891 -26.38736
  Beta  occ. eigenvalues --  -26.38665 -26.38060 -11.56798 -11.50412 -11.45471
  Beta  occ. eigenvalues --   -1.77845  -1.73513  -1.71891  -1.68252  -1.68020
  Beta  occ. eigenvalues --   -1.67029  -1.66096  -1.12269  -1.01016  -0.93845
  Beta  occ. eigenvalues --   -0.88404  -0.87599  -0.87055  -0.84236  -0.82624
  Beta  occ. eigenvalues --   -0.80646  -0.76026  -0.75475  -0.74895  -0.74413
  Beta  occ. eigenvalues --   -0.73466  -0.72125  -0.70679  -0.70037  -0.69720
  Beta  occ. eigenvalues --   -0.69057  -0.68530  -0.68155  -0.65403  -0.58131
  Beta virt. eigenvalues --    0.04940   0.07341   0.07789   0.07967   0.09702
  Beta virt. eigenvalues --    0.10958   0.11241   0.11525   0.12578   0.13949
  Beta virt. eigenvalues --    0.15112   0.19928   0.21254   0.22033   0.23687
  Beta virt. eigenvalues --    0.25720   0.27236   0.28201   0.28553   0.29651
  Beta virt. eigenvalues --    0.30112   0.32100   0.33059   0.33582   0.34175
  Beta virt. eigenvalues --    0.34511   0.35141   0.36172   0.36233   0.37257
  Beta virt. eigenvalues --    0.38003   0.38429   0.38931   0.39153   0.39508
  Beta virt. eigenvalues --    0.40101   0.40496   0.42116   0.42619   0.44488
  Beta virt. eigenvalues --    0.45061   0.46942   0.47443   0.49351   0.50259
  Beta virt. eigenvalues --    0.51543   0.52841   0.53518   0.57889   0.58117
  Beta virt. eigenvalues --    0.62409   0.65477   0.68468   0.69140   0.72421
  Beta virt. eigenvalues --    0.74235   0.76813   0.78333   0.79845   0.81091
  Beta virt. eigenvalues --    0.82073   0.82811   0.85835   0.89072   0.90440
  Beta virt. eigenvalues --    0.93671   0.96728   0.99695   1.03043   1.06139
  Beta virt. eigenvalues --    1.06476   1.12467   1.15831   1.20576   1.27006
  Beta virt. eigenvalues --    1.28537   1.32036   1.35062   1.36531   1.38235
  Beta virt. eigenvalues --    1.39563   1.41038   1.42743   1.44414   1.44744
  Beta virt. eigenvalues --    1.47545   1.49153   1.50444   1.51565   1.52373
  Beta virt. eigenvalues --    1.53074   1.54644   1.55262   1.57077   1.57798
  Beta virt. eigenvalues --    1.59587   1.61966   1.63547   1.64816   1.67846
  Beta virt. eigenvalues --    1.68347   1.69935   1.72689   1.73288   1.74199
  Beta virt. eigenvalues --    1.76313   1.79109   1.80636   1.81537   1.85993
  Beta virt. eigenvalues --    1.87221   1.90116   1.91838   1.92545   1.93214
  Beta virt. eigenvalues --    1.94760   1.98221   1.99151   2.01630   2.04201
  Beta virt. eigenvalues --    2.06260   2.07957   2.09608   2.13363   2.15871
  Beta virt. eigenvalues --    2.19973   2.22134   2.28660   2.31295   2.34320
  Beta virt. eigenvalues --    2.38933   2.40706   2.45783   2.47228   2.50727
  Beta virt. eigenvalues --    2.52415   2.57961   2.58530   2.62969   2.64837
  Beta virt. eigenvalues --    2.71147   2.73013   2.77171   2.83273   2.84347
  Beta virt. eigenvalues --    2.89011   2.93565   3.00296   3.51292   3.55116
  Beta virt. eigenvalues --    3.65920   3.68617   3.70570   3.78422   3.95953
  Beta virt. eigenvalues --    4.82051   4.86395   4.88403   4.88795   4.89224
  Beta virt. eigenvalues --    4.91080   4.91590   4.92231   4.94040   4.95105
  Beta virt. eigenvalues --    4.96391   4.97481   4.98198   4.99002   4.99984
  Beta virt. eigenvalues --    5.00638   5.01812   5.02806   5.04242   5.04594
  Beta virt. eigenvalues --    5.05686   5.06768   5.07296   5.07774   5.09631
  Beta virt. eigenvalues --    5.11894   5.12728   5.14523   5.16238   5.17597
  Beta virt. eigenvalues --    5.21353   5.22479   5.24345   5.28632   5.30627
          Condensed to atoms (all electrons):
          Atomic-Atomic Spin Densities.
 Mulliken charges and spin densities:
               1          2
     1  C    1.938156  -0.006007
     2  C    1.236580  -0.090997
     3  F   -0.597578   0.000340
     4  F   -0.599770  -0.001162
     5  F   -0.594316  -0.000827
     6  C    1.122746   1.035618
     7  F   -0.680445   0.022061
     8  F   -0.684984  -0.004844
     9  F   -0.567370   0.023417
    10  F   -0.573019   0.022402
 Sum of Mulliken charges =  -0.00000   1.00000
 Mulliken charges and spin densities with hydrogens summed into heavy atoms:
               1          2
     1  C    1.938156  -0.006007
     2  C    1.236580  -0.090997
     3  F   -0.597578   0.000340
     4  F   -0.599770  -0.001162
     5  F   -0.594316  -0.000827
     6  C    1.122746   1.035618
     7  F   -0.680445   0.022061
     8  F   -0.684984  -0.004844
     9  F   -0.567370   0.023417
    10  F   -0.573019   0.022402
 Electronic spatial extent (au):  <R**2>=           1162.9997
 Charge=              0.0000 electrons
 Dipole moment (field-independent basis, Debye):
    X=             -0.1210    Y=              0.3081    Z=             -0.5696  Tot=              0.6588
                          Isotropic Fermi Contact Couplings
        Atom                 a.u.       MegaHertz       Gauss      10(-4) cm-1
     1  C(13)             -0.00280      -3.14672      -1.12283      -1.04963
     2  C(13)              0.01936      21.76470       7.76619       7.25992
     3  F(19)              0.00044       1.85931       0.66345       0.62020
     4  F(19)              0.00317      13.34300       4.76111       4.45074
     5  F(19)             -0.00137      -5.77921      -2.06217      -1.92774
     6  C(13)              0.45440     510.83144     182.27736     170.39503
     7  F(19)              0.03258     137.06066      48.90665      45.71851
     8  F(19)             -0.00402     -16.92333      -6.03867      -5.64502
     9  F(19)              0.06812     286.62484     102.27487      95.60775
    10  F(19)              0.06878     289.37942     103.25777      96.52658
 --------------------------------------------------------
       Center         ----  Spin Dipole Couplings  ----
                      3XX-RR        3YY-RR        3ZZ-RR
 --------------------------------------------------------
     1   Atom        0.014172     -0.009488     -0.004684
     2   Atom        0.038721      0.008138     -0.046858
     3   Atom        0.006587     -0.002136     -0.004451
     4   Atom        0.025449     -0.014034     -0.011415
     5   Atom       -0.006131      0.003106      0.003025
     6   Atom       -0.538948     -0.495470      1.034418
     7   Atom       -0.086559     -0.035490      0.122050
     8   Atom       -0.006814     -0.000125      0.006939
     9   Atom       -0.256715     -0.420827      0.677542
    10   Atom       -0.335743     -0.217491      0.553234
 --------------------------------------------------------
                        XY            XZ            YZ
 --------------------------------------------------------
     1   Atom       -0.005854      0.006241      0.000186
     2   Atom       -0.039067     -0.010630      0.011896
     3   Atom        0.006930      0.005537      0.002620
     4   Atom       -0.001446     -0.001581     -0.000494
     5   Atom       -0.000648      0.000850     -0.000931
     6   Atom        0.039825     -0.204983     -0.348380
     7   Atom       -0.063412      0.116758     -0.152139
     8   Atom        0.014285     -0.007100     -0.006992
     9   Atom        0.010240     -0.088905     -0.092480
    10   Atom       -0.000813     -0.236422     -0.286274
 --------------------------------------------------------


 ---------------------------------------------------------------------------------
              Anisotropic Spin Dipole Couplings in Principal Axis System
 ---------------------------------------------------------------------------------

       Atom             a.u.   MegaHertz   Gauss  10(-4) cm-1        Axes

              Baa    -0.0113    -1.522    -0.543    -0.508  0.2806  0.9154 -0.2886
     1 C(13)  Bbb    -0.0059    -0.788    -0.281    -0.263 -0.1851  0.3467  0.9195
              Bcc     0.0172     2.310     0.824     0.770  0.9418 -0.2046  0.2667
 
              Baa    -0.0494    -6.632    -2.366    -2.212  0.0408 -0.1756  0.9836
     2 C(13)  Bbb    -0.0181    -2.423    -0.865    -0.808  0.5779  0.8072  0.1201
              Bcc     0.0675     9.056     3.231     3.021  0.8151 -0.5635 -0.1344
 
              Baa    -0.0068    -3.415    -1.218    -1.139 -0.4607  0.1987  0.8650
     3 F(19)  Bbb    -0.0058    -2.917    -1.041    -0.973 -0.3213  0.8712 -0.3712
              Bcc     0.0126     6.331     2.259     2.112  0.8274  0.4489  0.3375
 
              Baa    -0.0142    -7.131    -2.544    -2.379  0.0436  0.9791  0.1984
     4 F(19)  Bbb    -0.0114    -5.710    -2.037    -1.905  0.0342 -0.2000  0.9792
              Bcc     0.0256    12.841     4.582     4.283  0.9985 -0.0359 -0.0422
 
              Baa    -0.0062    -3.136    -1.119    -1.046  0.9945  0.0604 -0.0852
     5 F(19)  Bbb     0.0021     1.073     0.383     0.358  0.0187  0.6991  0.7147
              Bcc     0.0041     2.062     0.736     0.688 -0.1027  0.7124 -0.6942
 
              Baa    -0.5735   -76.954   -27.459   -25.669  0.4656  0.8508  0.2437
     6 C(13)  Bbb    -0.5626   -75.491   -26.937   -25.181  0.8763 -0.4817  0.0074
              Bcc     1.1360   152.445    54.396    50.850 -0.1237 -0.2101  0.9698
 
              Baa    -0.1398   -70.229   -25.060   -23.426  0.8320 -0.2302 -0.5047
     7 F(19)  Bbb    -0.1249   -62.733   -22.385   -20.926  0.4275  0.8459  0.3190
              Bcc     0.2647   132.963    47.444    44.352  0.3535 -0.4812  0.8022
 
              Baa    -0.0182    -9.145    -3.263    -3.050  0.7939 -0.6055  0.0558
     8 F(19)  Bbb    -0.0010    -0.499    -0.178    -0.167  0.3475  0.5270  0.7755
              Bcc     0.0192     9.644     3.441     3.217 -0.4990 -0.5963  0.6288
 
              Baa    -0.4286  -215.257   -76.809   -71.802 -0.0170  0.9965  0.0819
     9 F(19)  Bbb    -0.2651  -133.133   -47.505   -44.409  0.9955  0.0092  0.0948
              Bcc     0.6937   348.390   124.314   116.211 -0.0937 -0.0832  0.9921
 
              Baa    -0.4301  -216.009   -77.077   -72.053  0.8310  0.4477  0.3301
    10 F(19)  Bbb    -0.2668  -133.980   -47.807   -44.691 -0.5137  0.8453  0.1470
              Bcc     0.6969   349.988   124.885   116.744 -0.2133 -0.2917  0.9324
 

 ---------------------------------------------------------------------------------

 NROrb=    230 NOA=    41 NOB=    40 NVA=   189 NVB=   190

 **** Warning!!: The largest alpha MO coefficient is  0.35431700D+02


 **** Warning!!: The largest beta MO coefficient is  0.34382998D+02

    12 initial guesses have been made.
 Iteration     1 Dimension    12 NMult     0 NNew     12
 Iteration     2 Dimension    24 NMult    12 NNew     12
 Iteration     3 Dimension    27 NMult    24 NNew      3
 Iteration     4 Dimension    30 NMult    27 NNew      3
 Iteration     5 Dimension    33 NMult    30 NNew      3
 Iteration     6 Dimension    36 NMult    33 NNew      3
 Iteration     7 Dimension    39 NMult    36 NNew      3
 Iteration     8 Dimension    42 NMult    39 NNew      3
 Iteration     9 Dimension    45 NMult    42 NNew      3
 ***********************************************************************
 Stability analysis using <AA,BB:AA,BB> singles matrix:
 ***********************************************************************
 Ground to excited state transition densities written to RWF  633

 Eigenvectors of the stability matrix:
 
 Excited state symmetry could not be determined.
 Eigenvector   1:  2.335-?Sym  Eigenvalue= 0.3022627  <S**2>=1.113
     41A -> 42A       -0.22631
     41A -> 53A        0.25754
     41A -> 55A        0.17766
     41A -> 56A        0.15870
     41A -> 58A       -0.13992
     39B -> 41B        0.28651
     39B -> 44B       -0.15706
     39B -> 45B       -0.19565
     40B -> 41B        0.44167
     40B -> 43B        0.15964
     40B -> 44B       -0.24242
     40B -> 45B       -0.28193
     40B -> 50B       -0.12011
     40B -> 53B       -0.12178
 The wavefunction is stable under the perturbations considered.
 The wavefunction is already stable.

 **********************************************************************

            Population analysis using the SCF Density.

 **********************************************************************

 Alpha  occ. eigenvalues --  -26.39355 -26.39335 -26.39183 -26.39149 -26.39037
 Alpha  occ. eigenvalues --  -26.38643 -26.38289 -11.56786 -11.50422 -11.48369
 Alpha  occ. eigenvalues --   -1.77876  -1.74808  -1.72400  -1.68396  -1.68126
 Alpha  occ. eigenvalues --   -1.67948  -1.66470  -1.13908  -1.03201  -0.95109
 Alpha  occ. eigenvalues --   -0.89287  -0.87811  -0.87237  -0.84697  -0.84252
 Alpha  occ. eigenvalues --   -0.82485  -0.80156  -0.76054  -0.75219  -0.74480
 Alpha  occ. eigenvalues --   -0.73866  -0.73517  -0.72427  -0.70521  -0.70138
 Alpha  occ. eigenvalues --   -0.69278  -0.68652  -0.68271  -0.66476  -0.59049
 Alpha  occ. eigenvalues --   -0.47474
 Alpha virt. eigenvalues --    0.06568   0.07337   0.07804   0.08613   0.10799
 Alpha virt. eigenvalues --    0.11099   0.11433   0.12541   0.13580   0.14994
 Alpha virt. eigenvalues --    0.19706   0.20550   0.21542   0.22797   0.25137
 Alpha virt. eigenvalues --    0.26636   0.27315   0.28328   0.29433   0.29623
 Alpha virt. eigenvalues --    0.31827   0.32932   0.33296   0.33348   0.34152
 Alpha virt. eigenvalues --    0.34972   0.35679   0.36083   0.36582   0.37620
 Alpha virt. eigenvalues --    0.38200   0.38594   0.38902   0.39003   0.39920
 Alpha virt. eigenvalues --    0.40405   0.41269   0.42448   0.43353   0.44452
 Alpha virt. eigenvalues --    0.46446   0.47345   0.48273   0.49558   0.50877
 Alpha virt. eigenvalues --    0.51931   0.52614   0.57296   0.57937   0.61386
 Alpha virt. eigenvalues --    0.64700   0.67038   0.68602   0.71749   0.73630
 Alpha virt. eigenvalues --    0.75826   0.77154   0.79036   0.80886   0.81931
 Alpha virt. eigenvalues --    0.82465   0.85448   0.86166   0.89554   0.93249
 Alpha virt. eigenvalues --    0.96333   0.98939   1.02242   1.05575   1.06065
 Alpha virt. eigenvalues --    1.12249   1.15629   1.20254   1.26738   1.28350
 Alpha virt. eigenvalues --    1.31939   1.34427   1.35840   1.37656   1.39180
 Alpha virt. eigenvalues --    1.40389   1.42286   1.42956   1.44450   1.47288
 Alpha virt. eigenvalues --    1.48984   1.50338   1.51107   1.52051   1.52980
 Alpha virt. eigenvalues --    1.54503   1.55130   1.56961   1.57575   1.59074
 Alpha virt. eigenvalues --    1.61518   1.63183   1.64312   1.66968   1.67703
 Alpha virt. eigenvalues --    1.69767   1.72063   1.73042   1.73767   1.76083
 Alpha virt. eigenvalues --    1.78506   1.79709   1.80388   1.85306   1.86342
 Alpha virt. eigenvalues --    1.89772   1.91325   1.91440   1.92893   1.94463
 Alpha virt. eigenvalues --    1.97741   1.98605   2.00866   2.03403   2.06144
 Alpha virt. eigenvalues --    2.07544   2.09100   2.12977   2.14958   2.18888
 Alpha virt. eigenvalues --    2.20998   2.28065   2.30809   2.33022   2.38275
 Alpha virt. eigenvalues --    2.40367   2.45595   2.46557   2.50398   2.51976
 Alpha virt. eigenvalues --    2.57291   2.58082   2.62471   2.64457   2.71053
 Alpha virt. eigenvalues --    2.72711   2.76374   2.82893   2.83720   2.88553
 Alpha virt. eigenvalues --    2.92471   3.00093   3.50912   3.54735   3.65859
 Alpha virt. eigenvalues --    3.68519   3.70498   3.78201   3.95593   4.81656
 Alpha virt. eigenvalues --    4.86117   4.87923   4.88503   4.89009   4.90870
 Alpha virt. eigenvalues --    4.91495   4.92119   4.93856   4.94738   4.95926
 Alpha virt. eigenvalues --    4.97229   4.97915   4.98891   4.99378   5.00244
 Alpha virt. eigenvalues --    5.01561   5.02558   5.04106   5.04444   5.05498
 Alpha virt. eigenvalues --    5.06584   5.07187   5.07638   5.09425   5.11756
 Alpha virt. eigenvalues --    5.12676   5.14389   5.16180   5.17421   5.21080
 Alpha virt. eigenvalues --    5.22235   5.24292   5.28573   5.30556
  Beta  occ. eigenvalues --  -26.39341 -26.39145 -26.39046 -26.38891 -26.38736
  Beta  occ. eigenvalues --  -26.38665 -26.38060 -11.56798 -11.50412 -11.45471
  Beta  occ. eigenvalues --   -1.77845  -1.73513  -1.71891  -1.68252  -1.68020
  Beta  occ. eigenvalues --   -1.67029  -1.66096  -1.12269  -1.01016  -0.93845
  Beta  occ. eigenvalues --   -0.88404  -0.87599  -0.87055  -0.84236  -0.82624
  Beta  occ. eigenvalues --   -0.80646  -0.76026  -0.75475  -0.74895  -0.74413
  Beta  occ. eigenvalues --   -0.73466  -0.72125  -0.70679  -0.70037  -0.69720
  Beta  occ. eigenvalues --   -0.69057  -0.68530  -0.68155  -0.65403  -0.58131
  Beta virt. eigenvalues --    0.04940   0.07341   0.07789   0.07967   0.09702
  Beta virt. eigenvalues --    0.10958   0.11241   0.11525   0.12578   0.13949
  Beta virt. eigenvalues --    0.15112   0.19928   0.21254   0.22033   0.23687
  Beta virt. eigenvalues --    0.25720   0.27236   0.28201   0.28553   0.29651
  Beta virt. eigenvalues --    0.30112   0.32100   0.33059   0.33582   0.34175
  Beta virt. eigenvalues --    0.34511   0.35141   0.36172   0.36233   0.37257
  Beta virt. eigenvalues --    0.38003   0.38429   0.38931   0.39153   0.39508
  Beta virt. eigenvalues --    0.40101   0.40496   0.42116   0.42619   0.44488
  Beta virt. eigenvalues --    0.45061   0.46942   0.47443   0.49351   0.50259
  Beta virt. eigenvalues --    0.51543   0.52841   0.53518   0.57889   0.58117
  Beta virt. eigenvalues --    0.62409   0.65477   0.68468   0.69140   0.72421
  Beta virt. eigenvalues --    0.74235   0.76813   0.78333   0.79845   0.81091
  Beta virt. eigenvalues --    0.82073   0.82811   0.85835   0.89072   0.90440
  Beta virt. eigenvalues --    0.93671   0.96728   0.99695   1.03043   1.06139
  Beta virt. eigenvalues --    1.06476   1.12467   1.15831   1.20576   1.27006
  Beta virt. eigenvalues --    1.28537   1.32036   1.35062   1.36531   1.38235
  Beta virt. eigenvalues --    1.39563   1.41038   1.42743   1.44414   1.44744
  Beta virt. eigenvalues --    1.47545   1.49153   1.50444   1.51565   1.52373
  Beta virt. eigenvalues --    1.53074   1.54644   1.55262   1.57077   1.57798
  Beta virt. eigenvalues --    1.59587   1.61966   1.63547   1.64816   1.67846
  Beta virt. eigenvalues --    1.68347   1.69935   1.72689   1.73288   1.74199
  Beta virt. eigenvalues --    1.76313   1.79109   1.80636   1.81537   1.85993
  Beta virt. eigenvalues --    1.87221   1.90116   1.91838   1.92545   1.93214
  Beta virt. eigenvalues --    1.94760   1.98221   1.99151   2.01630   2.04201
  Beta virt. eigenvalues --    2.06260   2.07957   2.09608   2.13363   2.15871
  Beta virt. eigenvalues --    2.19973   2.22134   2.28660   2.31295   2.34320
  Beta virt. eigenvalues --    2.38933   2.40706   2.45783   2.47228   2.50727
  Beta virt. eigenvalues --    2.52415   2.57961   2.58530   2.62969   2.64837
  Beta virt. eigenvalues --    2.71147   2.73013   2.77171   2.83273   2.84347
  Beta virt. eigenvalues --    2.89011   2.93565   3.00296   3.51292   3.55116
  Beta virt. eigenvalues --    3.65920   3.68617   3.70570   3.78422   3.95953
  Beta virt. eigenvalues --    4.82051   4.86395   4.88403   4.88795   4.89224
  Beta virt. eigenvalues --    4.91080   4.91590   4.92231   4.94040   4.95105
  Beta virt. eigenvalues --    4.96391   4.97481   4.98198   4.99002   4.99984
  Beta virt. eigenvalues --    5.00638   5.01812   5.02806   5.04242   5.04594
  Beta virt. eigenvalues --    5.05686   5.06768   5.07296   5.07774   5.09631
  Beta virt. eigenvalues --    5.11894   5.12728   5.14523   5.16238   5.17597
  Beta virt. eigenvalues --    5.21353   5.22479   5.24345   5.28632   5.30627
          Condensed to atoms (all electrons):
          Atomic-Atomic Spin Densities.
 Mulliken charges and spin densities:
               1          2
     1  C    1.938156  -0.006007
     2  C    1.236580  -0.090997
     3  F   -0.597578   0.000340
     4  F   -0.599770  -0.001162
     5  F   -0.594316  -0.000827
     6  C    1.122746   1.035618
     7  F   -0.680445   0.022061
     8  F   -0.684984  -0.004844
     9  F   -0.567370   0.023417
    10  F   -0.573019   0.022402
 Sum of Mulliken charges =  -0.00000   1.00000
 Mulliken charges and spin densities with hydrogens summed into heavy atoms:
               1          2
     1  C    1.938156  -0.006007
     2  C    1.236580  -0.090997
     3  F   -0.597578   0.000340
     4  F   -0.599770  -0.001162
     5  F   -0.594316  -0.000827
     6  C    1.122746   1.035618
     7  F   -0.680445   0.022061
     8  F   -0.684984  -0.004844
     9  F   -0.567370   0.023417
    10  F   -0.573019   0.022402
 Electronic spatial extent (au):  <R**2>=           1162.9997
 Charge=              0.0000 electrons
 Dipole moment (field-independent basis, Debye):
    X=             -0.1210    Y=              0.3081    Z=             -0.5696  Tot=              0.6588
                          Isotropic Fermi Contact Couplings
        Atom                 a.u.       MegaHertz       Gauss      10(-4) cm-1
     1  C(13)             -0.00280      -3.14672      -1.12283      -1.04963
     2  C(13)              0.01936      21.76470       7.76619       7.25992
     3  F(19)              0.00044       1.85931       0.66345       0.62020
     4  F(19)              0.00317      13.34300       4.76111       4.45074
     5  F(19)             -0.00137      -5.77921      -2.06217      -1.92774
     6  C(13)              0.45440     510.83144     182.27736     170.39503
     7  F(19)              0.03258     137.06066      48.90665      45.71851
     8  F(19)             -0.00402     -16.92333      -6.03867      -5.64502
     9  F(19)              0.06812     286.62484     102.27487      95.60775
    10  F(19)              0.06878     289.37942     103.25777      96.52658
 --------------------------------------------------------
       Center         ----  Spin Dipole Couplings  ----
                      3XX-RR        3YY-RR        3ZZ-RR
 --------------------------------------------------------
     1   Atom        0.014172     -0.009488     -0.004684
     2   Atom        0.038721      0.008138     -0.046858
     3   Atom        0.006587     -0.002136     -0.004451
     4   Atom        0.025449     -0.014034     -0.011415
     5   Atom       -0.006131      0.003106      0.003025
     6   Atom       -0.538948     -0.495470      1.034418
     7   Atom       -0.086559     -0.035490      0.122050
     8   Atom       -0.006814     -0.000125      0.006939
     9   Atom       -0.256715     -0.420827      0.677542
    10   Atom       -0.335743     -0.217491      0.553234
 --------------------------------------------------------
                        XY            XZ            YZ
 --------------------------------------------------------
     1   Atom       -0.005854      0.006241      0.000186
     2   Atom       -0.039067     -0.010630      0.011896
     3   Atom        0.006930      0.005537      0.002620
     4   Atom       -0.001446     -0.001581     -0.000494
     5   Atom       -0.000648      0.000850     -0.000931
     6   Atom        0.039825     -0.204983     -0.348380
     7   Atom       -0.063412      0.116758     -0.152139
     8   Atom        0.014285     -0.007100     -0.006992
     9   Atom        0.010240     -0.088905     -0.092480
    10   Atom       -0.000813     -0.236422     -0.286274
 --------------------------------------------------------


 ---------------------------------------------------------------------------------
              Anisotropic Spin Dipole Couplings in Principal Axis System
 ---------------------------------------------------------------------------------

       Atom             a.u.   MegaHertz   Gauss  10(-4) cm-1        Axes

              Baa    -0.0113    -1.522    -0.543    -0.508  0.2806  0.9154 -0.2886
     1 C(13)  Bbb    -0.0059    -0.788    -0.281    -0.263 -0.1851  0.3467  0.9195
              Bcc     0.0172     2.310     0.824     0.770  0.9418 -0.2046  0.2667
 
              Baa    -0.0494    -6.632    -2.366    -2.212  0.0408 -0.1756  0.9836
     2 C(13)  Bbb    -0.0181    -2.423    -0.865    -0.808  0.5779  0.8072  0.1201
              Bcc     0.0675     9.056     3.231     3.021  0.8151 -0.5635 -0.1344
 
              Baa    -0.0068    -3.415    -1.218    -1.139 -0.4607  0.1987  0.8650
     3 F(19)  Bbb    -0.0058    -2.917    -1.041    -0.973 -0.3213  0.8712 -0.3712
              Bcc     0.0126     6.331     2.259     2.112  0.8274  0.4489  0.3375
 
              Baa    -0.0142    -7.131    -2.544    -2.379  0.0436  0.9791  0.1984
     4 F(19)  Bbb    -0.0114    -5.710    -2.037    -1.905  0.0342 -0.2000  0.9792
              Bcc     0.0256    12.841     4.582     4.283  0.9985 -0.0359 -0.0422
 
              Baa    -0.0062    -3.136    -1.119    -1.046  0.9945  0.0604 -0.0852
     5 F(19)  Bbb     0.0021     1.073     0.383     0.358  0.0187  0.6991  0.7147
              Bcc     0.0041     2.062     0.736     0.688 -0.1027  0.7124 -0.6942
 
              Baa    -0.5735   -76.954   -27.459   -25.669  0.4656  0.8508  0.2437
     6 C(13)  Bbb    -0.5626   -75.491   -26.937   -25.181  0.8763 -0.4817  0.0074
              Bcc     1.1360   152.445    54.396    50.850 -0.1237 -0.2101  0.9698
 
              Baa    -0.1398   -70.229   -25.060   -23.426  0.8320 -0.2302 -0.5047
     7 F(19)  Bbb    -0.1249   -62.733   -22.385   -20.926  0.4275  0.8459  0.3190
              Bcc     0.2647   132.963    47.444    44.352  0.3535 -0.4812  0.8022
 
              Baa    -0.0182    -9.145    -3.263    -3.050  0.7939 -0.6055  0.0558
     8 F(19)  Bbb    -0.0010    -0.499    -0.178    -0.167  0.3475  0.5270  0.7755
              Bcc     0.0192     9.644     3.441     3.217 -0.4990 -0.5963  0.6288
 
              Baa    -0.4286  -215.257   -76.809   -71.802 -0.0170  0.9965  0.0819
     9 F(19)  Bbb    -0.2651  -133.133   -47.505   -44.409  0.9955  0.0092  0.0948
              Bcc     0.6937   348.390   124.314   116.211 -0.0937 -0.0832  0.9921
 
              Baa    -0.4301  -216.009   -77.077   -72.053  0.8310  0.4477  0.3301
    10 F(19)  Bbb    -0.2668  -133.980   -47.807   -44.691 -0.5137  0.8453  0.1470
              Bcc     0.6969   349.988   124.885   116.744 -0.2133 -0.2917  0.9324
 

 ---------------------------------------------------------------------------------

 Unable to Open any file for archive entry.
 1\1\GINC-SE094\Stability\UHF\Aug-CC-pVDZ\C3F7\OHZDE\08-Apr-2025\0\\#t 
 hf aug-cc-pvdz symm=none int=(grid=ultrafine) guess=(read,tcheck) stab
 le=opt\\title\\0,2\C,0,1.177707,0.19734,-0.103003\C,0,-0.192495,-0.490
 576,0.125715\F,0,1.275204,1.311132,0.629775\F,0,1.316085,0.51816,-1.39
 6491\F,0,2.162525,-0.633681,0.242691\C,0,-1.370718,0.328041,-0.358124\
 F,0,-0.301173,-0.762269,1.458899\F,0,-0.193185,-1.665592,-0.542813\F,0
 ,-1.48078,1.533104,0.182021\F,0,-2.521672,-0.324058,-0.350473\\Version
 =ES64L-G16RevC.01\HF=-809.7200208\S2=0.756819\S2-1=0.\S2A=0.750034\RMS
 D=4.634e-09\Dipole=-0.0475984,0.1212081,-0.2240986\Quadrupole=-0.21373
 28,-0.4927792,0.7065121,-0.1205068,0.3678385,-0.3358777\PG=Unknown\\@
 The archive entry for this job was punched.


 ... UNTIL SCIENCE IS MIXED WITH EMOTION AND APPEALS TO THE HEART AND
 IMAGINATION , IT IS LIKE DEAD INORGANIC MATTER; AND WHEN IT IS SO MIXED
 AND SO TRANSFORMED IT IS LITERATURE.

                                  -- JOHN BURROUGHS
 Job cpu time:       0 days  0 hours  5 minutes 35.4 seconds.
 Elapsed time:       0 days  0 hours  0 minutes 43.1 seconds.
 File lengths (MBytes):  RWF=    330 Int=      0 D2E=      0 Chk=     10 Scr=      1
 Normal termination of Gaussian 16 at Tue Apr  8 22:42:06 2025.
 Initial command:
 /arc/software/Gaussian/g16.c01/l1.exe "/tmp/slurm/4841455/Gau-3522447.inp" -scrdir="/tmp/slurm/4841455/"
 Entering Link 1 = /arc/software/Gaussian/g16.c01/l1.exe PID=   3522669.
  
 Copyright (c) 1988-2019, Gaussian, Inc.  All Rights Reserved.
  
 This is part of the Gaussian(R) 16 program.  It is based on
 the Gaussian(R) 09 system (copyright 2009, Gaussian, Inc.),
 the Gaussian(R) 03 system (copyright 2003, Gaussian, Inc.),
 the Gaussian(R) 98 system (copyright 1998, Gaussian, Inc.),
 the Gaussian(R) 94 system (copyright 1995, Gaussian, Inc.),
 the Gaussian 92(TM) system (copyright 1992, Gaussian, Inc.),
 the Gaussian 90(TM) system (copyright 1990, Gaussian, Inc.),
 the Gaussian 88(TM) system (copyright 1988, Gaussian, Inc.),
 the Gaussian 86(TM) system (copyright 1986, Carnegie Mellon
 University), and the Gaussian 82(TM) system (copyright 1983,
 Carnegie Mellon University). Gaussian is a federally registered
 trademark of Gaussian, Inc.
  
 This software contains proprietary and confidential information,
 including trade secrets, belonging to Gaussian, Inc.
  
 This software is provided under written license and may be
 used, copied, transmitted, or stored only in accord with that
 written license.
  
 The following legend is applicable only to US Government
 contracts under FAR:
  
                    RESTRICTED RIGHTS LEGEND
  
 Use, reproduction and disclosure by the US Government is
 subject to restrictions as set forth in subparagraphs (a)
 and (c) of the Commercial Computer Software - Restricted
 Rights clause in FAR 52.227-19.
  
 Gaussian, Inc.
 340 Quinnipiac St., Bldg. 40, Wallingford CT 06492
  
  
 ---------------------------------------------------------------
 Warning -- This program may not be used in any manner that
 competes with the business of Gaussian, Inc. or will provide
 assistance to any competitor of Gaussian, Inc.  The licensee
 of this program is prohibited from giving any competitor of
 Gaussian, Inc. access to this program.  By using this program,
 the user acknowledges that Gaussian, Inc. is engaged in the
 business of creating and licensing software in the field of
 computational chemistry and represents and warrants to the
 licensee that it is not a competitor of Gaussian, Inc. and that
 it will not use this program in any manner prohibited above.
 ---------------------------------------------------------------
  

 Cite this work as:
 Gaussian 16, Revision C.01,
 M. J. Frisch, G. W. Trucks, H. B. Schlegel, G. E. Scuseria, 
 M. A. Robb, J. R. Cheeseman, G. Scalmani, V. Barone, 
 G. A. Petersson, H. Nakatsuji, X. Li, M. Caricato, A. V. Marenich, 
 J. Bloino, B. G. Janesko, R. Gomperts, B. Mennucci, H. P. Hratchian, 
 J. V. Ortiz, A. F. Izmaylov, J. L. Sonnenberg, D. Williams-Young, 
 F. Ding, F. Lipparini, F. Egidi, J. Goings, B. Peng, A. Petrone, 
 T. Henderson, D. Ranasinghe, V. G. Zakrzewski, J. Gao, N. Rega, 
 G. Zheng, W. Liang, M. Hada, M. Ehara, K. Toyota, R. Fukuda, 
 J. Hasegawa, M. Ishida, T. Nakajima, Y. Honda, O. Kitao, H. Nakai, 
 T. Vreven, K. Throssell, J. A. Montgomery, Jr., J. E. Peralta, 
 F. Ogliaro, M. J. Bearpark, J. J. Heyd, E. N. Brothers, K. N. Kudin, 
 V. N. Staroverov, T. A. Keith, R. Kobayashi, J. Normand, 
 K. Raghavachari, A. P. Rendell, J. C. Burant, S. S. Iyengar, 
 J. Tomasi, M. Cossi, J. M. Millam, M. Klene, C. Adamo, R. Cammi, 
 J. W. Ochterski, R. L. Martin, K. Morokuma, O. Farkas, 
 J. B. Foresman, and D. J. Fox, Gaussian, Inc., Wallingford CT, 2019.
 
 ******************************************
 Gaussian 16:  ES64L-G16RevC.01  3-Jul-2019
                 8-Apr-2025 
 ******************************************
 %nprocs=16
 Will use up to   16 processors via shared memory.
 %mem=30GB
 %chk=BDE49_expt_143_mol2.chk
 ----------------------------------------------------------------------
 #t hf aug-cc-pvdz iop(5/13=1,5/36=2,99/5=2) pseudo=read geom=check gue
 ss=(read,tcheck) scf=(maxcycle=1)
 ----------------------------------------------------------------------
 -----
 title
 -----
 Structure from the checkpoint file:  "BDE49_expt_143_mol2.chk"
 Charge =  0 Multiplicity = 2
 Z-Matrix found in chk file.
 C,0,1.177707,0.19734,-0.103003
 C,0,-0.192495,-0.490576,0.125715
 F,0,1.275204,1.311132,0.629775
 F,0,1.316085,0.51816,-1.396491
 F,0,2.162525,-0.633681,0.242691
 C,0,-1.370718,0.328041,-0.358124
 F,0,-0.301173,-0.762269,1.458899
 F,0,-0.193185,-1.665592,-0.542813
 F,0,-1.48078,1.533104,0.182021
 F,0,-2.521672,-0.324058,-0.350473
 Recover connectivity data from disk.
                    Distance matrix (angstroms):
                    1          2          3          4          5
     1  C    0.000000
     2  C    1.550159   0.000000
     3  F    1.336788   2.377892   0.000000
     4  F    1.339845   2.368644   2.176288   0.000000
     5  F    1.334154   2.362262   2.172434   2.174883   0.000000
     6  C    2.564496   1.514082   2.990538   2.886739   3.710754
     7  F    2.355307   1.364920   2.733387   3.522538   2.750546
     8  F    2.354420   1.351885   3.520229   2.788447   2.689094
     9  F    2.988822   2.399610   2.800929   3.368125   4.239376
    10  F    3.744129   2.383180   4.248647   4.065939   4.731745
                    6          7          8          9         10
     6  C    0.000000
     7  F    2.373663   0.000000
     8  F    2.322771   2.198751   0.000000
     9  F    1.325159   2.879345   3.523484   0.000000
    10  F    1.322871   2.897667   2.694171   2.194552   0.000000
 Framework group  C1[X(C3F7)]
 Deg. of freedom    24
                         Standard orientation:                         
 ---------------------------------------------------------------------
 Center     Atomic      Atomic             Coordinates (Angstroms)
 Number     Number       Type             X           Y           Z
 ---------------------------------------------------------------------
      1          6           0        1.177707    0.197340   -0.103003
      2          6           0       -0.192495   -0.490576    0.125715
      3          9           0        1.275204    1.311132    0.629775
      4          9           0        1.316085    0.518160   -1.396491
      5          9           0        2.162525   -0.633681    0.242691
      6          6           0       -1.370718    0.328041   -0.358124
      7          9           0       -0.301173   -0.762269    1.458899
      8          9           0       -0.193185   -1.665592   -0.542813
      9          9           0       -1.480780    1.533104    0.182021
     10          9           0       -2.521672   -0.324058   -0.350473
 ---------------------------------------------------------------------
 Rotational constants (GHZ):           1.9665614           1.1138162           0.9763711
 ======================================================================================================
                                       Pseudopotential Parameters
 ======================================================================================================
  Center     Atomic      Valence      Angular      Power
  Number     Number     Electrons     Momentum     of R      Exponent        Coefficient   SO-Coeffient
 ======================================================================================================
    1          6            6
                                      G and up 
                                                     0        0.0000010       -0.00011185    0.00000000
                                                     2        0.1200000       -0.02301220    0.00000000
                                                     2        0.1400000        0.13317600    0.00000000
                                                     2        0.1600000       -0.19690668    0.00000000
                                                     2        0.2200000        0.23163694    0.00000000
                                                     2        0.3000000       -0.36920489    0.00000000
                                                     2        0.4000000        0.36389709    0.00000000
                                                     2        0.7000000       -0.38862160    0.00000000
                                                     2        1.3000000        0.80803421    0.00000000
                                      S - G
                                                     0        0.0000010        0.00312304    0.00000000
                                                     2        0.1200000       -0.00632892    0.00000000
                                                     2        0.2200000       -0.03780897    0.00000000
                                                     2        0.4000000        0.26269560    0.00000000
                                                     2        0.9000000       -0.28209514    0.00000000
                                                     2        1.5000000       -0.72686737    0.00000000
                                      P - G
                                                     0        0.0000010       -0.01465594    0.00000000
                                                     2        0.1200000        0.07908409    0.00000000
                                                     2        0.1800000       -0.30615861    0.00000000
                                                     2        0.2600000        0.41506950    0.00000000
                                                     2        0.5000000       -0.36252345    0.00000000
                                                     2        0.9000000        0.15124193    0.00000000
                                                     2        3.0000000       -0.80425677    0.00000000
                                      D - G
                                                     0        0.0000010        0.01149631    0.00000000
                                                     2        0.1200000       -0.04713561    0.00000000
                                                     2        0.1600000        0.10865096    0.00000000
                                                     2        0.2800000       -0.15816701    0.00000000
                                                     2        0.7000000        0.65478804    0.00000000
                                                     2        1.3000000       -1.73816624    0.00000000
                                      F - G
                                                     0        0.0000010        0.00481868    0.00000000
                                                     2        0.1200000       -0.04746842    0.00000000
                                                     2        0.1600000        0.09327889    0.00000000
                                                     2        0.4000000       -0.19693326    0.00000000
                                                     2        0.9000000        0.34938253    0.00000000
    2          6            6
                                      G and up 
                                                     0        0.0000010       -0.00011185    0.00000000
                                                     2        0.1200000       -0.02301220    0.00000000
                                                     2        0.1400000        0.13317600    0.00000000
                                                     2        0.1600000       -0.19690668    0.00000000
                                                     2        0.2200000        0.23163694    0.00000000
                                                     2        0.3000000       -0.36920489    0.00000000
                                                     2        0.4000000        0.36389709    0.00000000
                                                     2        0.7000000       -0.38862160    0.00000000
                                                     2        1.3000000        0.80803421    0.00000000
                                      S - G
                                                     0        0.0000010        0.00312304    0.00000000
                                                     2        0.1200000       -0.00632892    0.00000000
                                                     2        0.2200000       -0.03780897    0.00000000
                                                     2        0.4000000        0.26269560    0.00000000
                                                     2        0.9000000       -0.28209514    0.00000000
                                                     2        1.5000000       -0.72686737    0.00000000
                                      P - G
                                                     0        0.0000010       -0.01465594    0.00000000
                                                     2        0.1200000        0.07908409    0.00000000
                                                     2        0.1800000       -0.30615861    0.00000000
                                                     2        0.2600000        0.41506950    0.00000000
                                                     2        0.5000000       -0.36252345    0.00000000
                                                     2        0.9000000        0.15124193    0.00000000
                                                     2        3.0000000       -0.80425677    0.00000000
                                      D - G
                                                     0        0.0000010        0.01149631    0.00000000
                                                     2        0.1200000       -0.04713561    0.00000000
                                                     2        0.1600000        0.10865096    0.00000000
                                                     2        0.2800000       -0.15816701    0.00000000
                                                     2        0.7000000        0.65478804    0.00000000
                                                     2        1.3000000       -1.73816624    0.00000000
                                      F - G
                                                     0        0.0000010        0.00481868    0.00000000
                                                     2        0.1200000       -0.04746842    0.00000000
                                                     2        0.1600000        0.09327889    0.00000000
                                                     2        0.4000000       -0.19693326    0.00000000
                                                     2        0.9000000        0.34938253    0.00000000
    3          9            9
                                      G and up 
                                                     0        0.0000010        0.00013061    0.00000000
                                                     2        0.1200000        0.06713281    0.00000000
                                                     2        0.1400000       -0.24167382    0.00000000
                                                     2        0.1800000        0.63223557    0.00000000
                                                     2        0.2200000       -0.82578269    0.00000000
                                                     2        0.3000000        0.62544157    0.00000000
                                                     2        0.5000000       -0.74972011    0.00000000
                                                     2        0.8000000        1.07821461    0.00000000
                                                     2        2.5000000       -1.10703579    0.00000000
                                      S - G
                                                     0        0.0000010        0.01584301    0.00000000
                                                     2        0.1200000        0.08016155    0.00000000
                                                     2        0.1800000       -0.34633115    0.00000000
                                                     2        0.3000000        0.65132194    0.00000000
                                                     2        2.5000000       -2.36634383    0.00000000
                                      P - G
                                                     0        0.0000010        0.01590244    0.00000000
                                                     2        0.1200000       -0.11156199    0.00000000
                                                     2        0.1600000        0.22434929    0.00000000
                                                     2        0.3000000       -0.27751209    0.00000000
                                      D - G
                                                     0        0.0000010       -0.03628923    0.00000000
                                                     2        0.1200000        0.04690238    0.00000000
                                                     2        0.2600000       -0.08720270    0.00000000
                                      F - G
                                                     0        0.0000010        0.01127523    0.00000000
                                                     2        0.1400000       -0.04328550    0.00000000
                                                     2        0.2400000        0.03116441    0.00000000
                                                     2        0.4000000        0.20516616    0.00000000
    4          9            9
                                      G and up 
                                                     0        0.0000010        0.00013061    0.00000000
                                                     2        0.1200000        0.06713281    0.00000000
                                                     2        0.1400000       -0.24167382    0.00000000
                                                     2        0.1800000        0.63223557    0.00000000
                                                     2        0.2200000       -0.82578269    0.00000000
                                                     2        0.3000000        0.62544157    0.00000000
                                                     2        0.5000000       -0.74972011    0.00000000
                                                     2        0.8000000        1.07821461    0.00000000
                                                     2        2.5000000       -1.10703579    0.00000000
                                      S - G
                                                     0        0.0000010        0.01584301    0.00000000
                                                     2        0.1200000        0.08016155    0.00000000
                                                     2        0.1800000       -0.34633115    0.00000000
                                                     2        0.3000000        0.65132194    0.00000000
                                                     2        2.5000000       -2.36634383    0.00000000
                                      P - G
                                                     0        0.0000010        0.01590244    0.00000000
                                                     2        0.1200000       -0.11156199    0.00000000
                                                     2        0.1600000        0.22434929    0.00000000
                                                     2        0.3000000       -0.27751209    0.00000000
                                      D - G
                                                     0        0.0000010       -0.03628923    0.00000000
                                                     2        0.1200000        0.04690238    0.00000000
                                                     2        0.2600000       -0.08720270    0.00000000
                                      F - G
                                                     0        0.0000010        0.01127523    0.00000000
                                                     2        0.1400000       -0.04328550    0.00000000
                                                     2        0.2400000        0.03116441    0.00000000
                                                     2        0.4000000        0.20516616    0.00000000
    5          9            9
                                      G and up 
                                                     0        0.0000010        0.00013061    0.00000000
                                                     2        0.1200000        0.06713281    0.00000000
                                                     2        0.1400000       -0.24167382    0.00000000
                                                     2        0.1800000        0.63223557    0.00000000
                                                     2        0.2200000       -0.82578269    0.00000000
                                                     2        0.3000000        0.62544157    0.00000000
                                                     2        0.5000000       -0.74972011    0.00000000
                                                     2        0.8000000        1.07821461    0.00000000
                                                     2        2.5000000       -1.10703579    0.00000000
                                      S - G
                                                     0        0.0000010        0.01584301    0.00000000
                                                     2        0.1200000        0.08016155    0.00000000
                                                     2        0.1800000       -0.34633115    0.00000000
                                                     2        0.3000000        0.65132194    0.00000000
                                                     2        2.5000000       -2.36634383    0.00000000
                                      P - G
                                                     0        0.0000010        0.01590244    0.00000000
                                                     2        0.1200000       -0.11156199    0.00000000
                                                     2        0.1600000        0.22434929    0.00000000
                                                     2        0.3000000       -0.27751209    0.00000000
                                      D - G
                                                     0        0.0000010       -0.03628923    0.00000000
                                                     2        0.1200000        0.04690238    0.00000000
                                                     2        0.2600000       -0.08720270    0.00000000
                                      F - G
                                                     0        0.0000010        0.01127523    0.00000000
                                                     2        0.1400000       -0.04328550    0.00000000
                                                     2        0.2400000        0.03116441    0.00000000
                                                     2        0.4000000        0.20516616    0.00000000
    6          6            6
                                      G and up 
                                                     0        0.0000010       -0.00011185    0.00000000
                                                     2        0.1200000       -0.02301220    0.00000000
                                                     2        0.1400000        0.13317600    0.00000000
                                                     2        0.1600000       -0.19690668    0.00000000
                                                     2        0.2200000        0.23163694    0.00000000
                                                     2        0.3000000       -0.36920489    0.00000000
                                                     2        0.4000000        0.36389709    0.00000000
                                                     2        0.7000000       -0.38862160    0.00000000
                                                     2        1.3000000        0.80803421    0.00000000
                                      S - G
                                                     0        0.0000010        0.00312304    0.00000000
                                                     2        0.1200000       -0.00632892    0.00000000
                                                     2        0.2200000       -0.03780897    0.00000000
                                                     2        0.4000000        0.26269560    0.00000000
                                                     2        0.9000000       -0.28209514    0.00000000
                                                     2        1.5000000       -0.72686737    0.00000000
                                      P - G
                                                     0        0.0000010       -0.01465594    0.00000000
                                                     2        0.1200000        0.07908409    0.00000000
                                                     2        0.1800000       -0.30615861    0.00000000
                                                     2        0.2600000        0.41506950    0.00000000
                                                     2        0.5000000       -0.36252345    0.00000000
                                                     2        0.9000000        0.15124193    0.00000000
                                                     2        3.0000000       -0.80425677    0.00000000
                                      D - G
                                                     0        0.0000010        0.01149631    0.00000000
                                                     2        0.1200000       -0.04713561    0.00000000
                                                     2        0.1600000        0.10865096    0.00000000
                                                     2        0.2800000       -0.15816701    0.00000000
                                                     2        0.7000000        0.65478804    0.00000000
                                                     2        1.3000000       -1.73816624    0.00000000
                                      F - G
                                                     0        0.0000010        0.00481868    0.00000000
                                                     2        0.1200000       -0.04746842    0.00000000
                                                     2        0.1600000        0.09327889    0.00000000
                                                     2        0.4000000       -0.19693326    0.00000000
                                                     2        0.9000000        0.34938253    0.00000000
    7          9            9
                                      G and up 
                                                     0        0.0000010        0.00013061    0.00000000
                                                     2        0.1200000        0.06713281    0.00000000
                                                     2        0.1400000       -0.24167382    0.00000000
                                                     2        0.1800000        0.63223557    0.00000000
                                                     2        0.2200000       -0.82578269    0.00000000
                                                     2        0.3000000        0.62544157    0.00000000
                                                     2        0.5000000       -0.74972011    0.00000000
                                                     2        0.8000000        1.07821461    0.00000000
                                                     2        2.5000000       -1.10703579    0.00000000
                                      S - G
                                                     0        0.0000010        0.01584301    0.00000000
                                                     2        0.1200000        0.08016155    0.00000000
                                                     2        0.1800000       -0.34633115    0.00000000
                                                     2        0.3000000        0.65132194    0.00000000
                                                     2        2.5000000       -2.36634383    0.00000000
                                      P - G
                                                     0        0.0000010        0.01590244    0.00000000
                                                     2        0.1200000       -0.11156199    0.00000000
                                                     2        0.1600000        0.22434929    0.00000000
                                                     2        0.3000000       -0.27751209    0.00000000
                                      D - G
                                                     0        0.0000010       -0.03628923    0.00000000
                                                     2        0.1200000        0.04690238    0.00000000
                                                     2        0.2600000       -0.08720270    0.00000000
                                      F - G
                                                     0        0.0000010        0.01127523    0.00000000
                                                     2        0.1400000       -0.04328550    0.00000000
                                                     2        0.2400000        0.03116441    0.00000000
                                                     2        0.4000000        0.20516616    0.00000000
    8          9            9
                                      G and up 
                                                     0        0.0000010        0.00013061    0.00000000
                                                     2        0.1200000        0.06713281    0.00000000
                                                     2        0.1400000       -0.24167382    0.00000000
                                                     2        0.1800000        0.63223557    0.00000000
                                                     2        0.2200000       -0.82578269    0.00000000
                                                     2        0.3000000        0.62544157    0.00000000
                                                     2        0.5000000       -0.74972011    0.00000000
                                                     2        0.8000000        1.07821461    0.00000000
                                                     2        2.5000000       -1.10703579    0.00000000
                                      S - G
                                                     0        0.0000010        0.01584301    0.00000000
                                                     2        0.1200000        0.08016155    0.00000000
                                                     2        0.1800000       -0.34633115    0.00000000
                                                     2        0.3000000        0.65132194    0.00000000
                                                     2        2.5000000       -2.36634383    0.00000000
                                      P - G
                                                     0        0.0000010        0.01590244    0.00000000
                                                     2        0.1200000       -0.11156199    0.00000000
                                                     2        0.1600000        0.22434929    0.00000000
                                                     2        0.3000000       -0.27751209    0.00000000
                                      D - G
                                                     0        0.0000010       -0.03628923    0.00000000
                                                     2        0.1200000        0.04690238    0.00000000
                                                     2        0.2600000       -0.08720270    0.00000000
                                      F - G
                                                     0        0.0000010        0.01127523    0.00000000
                                                     2        0.1400000       -0.04328550    0.00000000
                                                     2        0.2400000        0.03116441    0.00000000
                                                     2        0.4000000        0.20516616    0.00000000
    9          9            9
                                      G and up 
                                                     0        0.0000010        0.00013061    0.00000000
                                                     2        0.1200000        0.06713281    0.00000000
                                                     2        0.1400000       -0.24167382    0.00000000
                                                     2        0.1800000        0.63223557    0.00000000
                                                     2        0.2200000       -0.82578269    0.00000000
                                                     2        0.3000000        0.62544157    0.00000000
                                                     2        0.5000000       -0.74972011    0.00000000
                                                     2        0.8000000        1.07821461    0.00000000
                                                     2        2.5000000       -1.10703579    0.00000000
                                      S - G
                                                     0        0.0000010        0.01584301    0.00000000
                                                     2        0.1200000        0.08016155    0.00000000
                                                     2        0.1800000       -0.34633115    0.00000000
                                                     2        0.3000000        0.65132194    0.00000000
                                                     2        2.5000000       -2.36634383    0.00000000
                                      P - G
                                                     0        0.0000010        0.01590244    0.00000000
                                                     2        0.1200000       -0.11156199    0.00000000
                                                     2        0.1600000        0.22434929    0.00000000
                                                     2        0.3000000       -0.27751209    0.00000000
                                      D - G
                                                     0        0.0000010       -0.03628923    0.00000000
                                                     2        0.1200000        0.04690238    0.00000000
                                                     2        0.2600000       -0.08720270    0.00000000
                                      F - G
                                                     0        0.0000010        0.01127523    0.00000000
                                                     2        0.1400000       -0.04328550    0.00000000
                                                     2        0.2400000        0.03116441    0.00000000
                                                     2        0.4000000        0.20516616    0.00000000
   10          9            9
                                      G and up 
                                                     0        0.0000010        0.00013061    0.00000000
                                                     2        0.1200000        0.06713281    0.00000000
                                                     2        0.1400000       -0.24167382    0.00000000
                                                     2        0.1800000        0.63223557    0.00000000
                                                     2        0.2200000       -0.82578269    0.00000000
                                                     2        0.3000000        0.62544157    0.00000000
                                                     2        0.5000000       -0.74972011    0.00000000
                                                     2        0.8000000        1.07821461    0.00000000
                                                     2        2.5000000       -1.10703579    0.00000000
                                      S - G
                                                     0        0.0000010        0.01584301    0.00000000
                                                     2        0.1200000        0.08016155    0.00000000
                                                     2        0.1800000       -0.34633115    0.00000000
                                                     2        0.3000000        0.65132194    0.00000000
                                                     2        2.5000000       -2.36634383    0.00000000
                                      P - G
                                                     0        0.0000010        0.01590244    0.00000000
                                                     2        0.1200000       -0.11156199    0.00000000
                                                     2        0.1600000        0.22434929    0.00000000
                                                     2        0.3000000       -0.27751209    0.00000000
                                      D - G
                                                     0        0.0000010       -0.03628923    0.00000000
                                                     2        0.1200000        0.04690238    0.00000000
                                                     2        0.2600000       -0.08720270    0.00000000
                                      F - G
                                                     0        0.0000010        0.01127523    0.00000000
                                                     2        0.1400000       -0.04328550    0.00000000
                                                     2        0.2400000        0.03116441    0.00000000
                                                     2        0.4000000        0.20516616    0.00000000
 ======================================================================================================
   230 basis functions,   430 primitive gaussians,   250 cartesian basis functions
    41 alpha electrons       40 beta electrons
       nuclear repulsion energy       645.3607356276 Hartrees.
 NAtoms=   10 NActive=   10 NUniq=   10 SFac= 1.00D+00 NAtFMM=   60 NAOKFM=F Big=F
   1 Symmetry operations used in ECPInt.
 ECPInt:  NShTT=    4095 NPrTT=   27015 LenC2=    4050 LenP2D=   17556.
 LDataN:  DoStor=T MaxTD1= 6 Len=  172
 Initial guess from the checkpoint file:  "BDE49_expt_143_mol2.chk"
 B after Tr=    -0.000000    0.000000   -0.000000
         Rot=    1.000000    0.000000   -0.000000   -0.000000 Ang=   0.00 deg.
 Initial guess <Sx>= 0.0000 <Sy>= 0.0000 <Sz>= 0.5000 <S**2>= 0.7568 S= 0.5034
 >>>>>>>>>> Convergence criterion not met.
 SCF Done:  E(UHF) =  -810.010540296     A.U. after    2 cycles
            NFock=  1  Conv=0.68D-02     -V/T= 1.9885
 <Sx>= 0.0000 <Sy>= 0.0000 <Sz>= 0.5000 <S**2>= 0.7565 S= 0.5033
 <L.S>=  0.00000000000    
 Annihilation of the first spin contaminant:
 S**2 before annihilation     0.7565,   after     0.7500

 **********************************************************************

            Population analysis using the SCF Density.

 **********************************************************************

 Orbital symmetries:
 Alpha Orbitals:
       Occupied  (A) (A) (A) (A) (A) (A) (A) (A) (A) (A) (A) (A)
                 (A) (A) (A) (A) (A) (A) (A) (A) (A) (A) (A) (A)
                 (A) (A) (A) (A) (A) (A) (A) (A) (A) (A) (A) (A)
                 (A) (A) (A) (A) (A)
       Virtual   (A) (A) (A) (A) (A) (A) (A) (A) (A) (A) (A) (A)
                 (A) (A) (A) (A) (A) (A) (A) (A) (A) (A) (A) (A)
                 (A) (A) (A) (A) (A) (A) (A) (A) (A) (A) (A) (A)
                 (A) (A) (A) (A) (A) (A) (A) (A) (A) (A) (A) (A)
                 (A) (A) (A) (A) (A) (A) (A) (A) (A) (A) (A) (A)
                 (A) (A) (A) (A) (A) (A) (A) (A) (A) (A) (A) (A)
                 (A) (A) (A) (A) (A) (A) (A) (A) (A) (A) (A) (A)
                 (A) (A) (A) (A) (A) (A) (A) (A) (A) (A) (A) (A)
                 (A) (A) (A) (A) (A) (A) (A) (A) (A) (A) (A) (A)
                 (A) (A) (A) (A) (A) (A) (A) (A) (A) (A) (A) (A)
                 (A) (A) (A) (A) (A) (A) (A) (A) (A) (A) (A) (A)
                 (A) (A) (A) (A) (A) (A) (A) (A) (A) (A) (A) (A)
                 (A) (A) (A) (A) (A) (A) (A) (A) (A) (A) (A) (A)
                 (A) (A) (A) (A) (A) (A) (A) (A) (A) (A) (A) (A)
                 (A) (A) (A) (A) (A) (A) (A) (A) (A) (A) (A) (A)
                 (A) (A) (A) (A) (A) (A) (A) (A) (A)
 Beta  Orbitals:
       Occupied  (A) (A) (A) (A) (A) (A) (A) (A) (A) (A) (A) (A)
                 (A) (A) (A) (A) (A) (A) (A) (A) (A) (A) (A) (A)
                 (A) (A) (A) (A) (A) (A) (A) (A) (A) (A) (A) (A)
                 (A) (A) (A) (A)
       Virtual   (A) (A) (A) (A) (A) (A) (A) (A) (A) (A) (A) (A)
                 (A) (A) (A) (A) (A) (A) (A) (A) (A) (A) (A) (A)
                 (A) (A) (A) (A) (A) (A) (A) (A) (A) (A) (A) (A)
                 (A) (A) (A) (A) (A) (A) (A) (A) (A) (A) (A) (A)
                 (A) (A) (A) (A) (A) (A) (A) (A) (A) (A) (A) (A)
                 (A) (A) (A) (A) (A) (A) (A) (A) (A) (A) (A) (A)
                 (A) (A) (A) (A) (A) (A) (A) (A) (A) (A) (A) (A)
                 (A) (A) (A) (A) (A) (A) (A) (A) (A) (A) (A) (A)
                 (A) (A) (A) (A) (A) (A) (A) (A) (A) (A) (A) (A)
                 (A) (A) (A) (A) (A) (A) (A) (A) (A) (A) (A) (A)
                 (A) (A) (A) (A) (A) (A) (A) (A) (A) (A) (A) (A)
                 (A) (A) (A) (A) (A) (A) (A) (A) (A) (A) (A) (A)
                 (A) (A) (A) (A) (A) (A) (A) (A) (A) (A) (A) (A)
                 (A) (A) (A) (A) (A) (A) (A) (A) (A) (A) (A) (A)
                 (A) (A) (A) (A) (A) (A) (A) (A) (A) (A) (A) (A)
                 (A) (A) (A) (A) (A) (A) (A) (A) (A) (A)
 The electronic state is 2-A.
 Alpha  occ. eigenvalues --  -26.20637 -26.20632 -26.20483 -26.20431 -26.20321
 Alpha  occ. eigenvalues --  -26.19917 -26.19563 -11.57510 -11.51000 -11.48961
 Alpha  occ. eigenvalues --   -1.80480  -1.78145  -1.76133  -1.73416  -1.73234
 Alpha  occ. eigenvalues --   -1.73060  -1.71668  -1.16507  -1.07442  -1.00374
 Alpha  occ. eigenvalues --   -0.93800  -0.93079  -0.92739  -0.89951  -0.89555
 Alpha  occ. eigenvalues --   -0.87937  -0.85838  -0.82135  -0.81444  -0.80699
 Alpha  occ. eigenvalues --   -0.80287  -0.79872  -0.78792  -0.76949  -0.76615
 Alpha  occ. eigenvalues --   -0.75936  -0.75376  -0.74962  -0.71379  -0.62856
 Alpha  occ. eigenvalues --   -0.49757
 Alpha virt. eigenvalues --    0.06596   0.07338   0.07718   0.08430   0.10645
 Alpha virt. eigenvalues --    0.10946   0.11291   0.12429   0.13462   0.14914
 Alpha virt. eigenvalues --    0.19038   0.19849   0.20318   0.22051   0.24383
 Alpha virt. eigenvalues --    0.26319   0.26938   0.28055   0.29032   0.29160
 Alpha virt. eigenvalues --    0.31154   0.32155   0.32664   0.33099   0.33677
 Alpha virt. eigenvalues --    0.34312   0.34887   0.35507   0.35808   0.37081
 Alpha virt. eigenvalues --    0.37139   0.37569   0.37877   0.38475   0.38825
 Alpha virt. eigenvalues --    0.39753   0.40281   0.42049   0.42455   0.42796
 Alpha virt. eigenvalues --    0.45593   0.45766   0.46805   0.48781   0.49640
 Alpha virt. eigenvalues --    0.51185   0.52154   0.56826   0.57271   0.60726
 Alpha virt. eigenvalues --    0.64323   0.66537   0.67886   0.70717   0.72348
 Alpha virt. eigenvalues --    0.75072   0.76248   0.77997   0.79707   0.80763
 Alpha virt. eigenvalues --    0.81723   0.84337   0.85479   0.89044   0.92869
 Alpha virt. eigenvalues --    0.96131   0.97938   1.02659   1.05748   1.06573
 Alpha virt. eigenvalues --    1.12765   1.16362   1.19520   1.25973   1.28407
 Alpha virt. eigenvalues --    1.32025   1.34447   1.35950   1.37470   1.39153
 Alpha virt. eigenvalues --    1.40302   1.42115   1.42890   1.44307   1.47044
 Alpha virt. eigenvalues --    1.48175   1.49700   1.50480   1.51102   1.51856
 Alpha virt. eigenvalues --    1.52665   1.53593   1.54431   1.55131   1.57631
 Alpha virt. eigenvalues --    1.60534   1.61378   1.62120   1.64843   1.65856
 Alpha virt. eigenvalues --    1.67690   1.69840   1.71798   1.72592   1.74042
 Alpha virt. eigenvalues --    1.76463   1.77450   1.78125   1.82742   1.85121
 Alpha virt. eigenvalues --    1.87341   1.88057   1.89826   1.90556   1.92048
 Alpha virt. eigenvalues --    1.94414   1.95692   1.97498   2.00338   2.02875
 Alpha virt. eigenvalues --    2.03762   2.05074   2.09555   2.11967   2.15750
 Alpha virt. eigenvalues --    2.18864   2.25032   2.28536   2.31188   2.35327
 Alpha virt. eigenvalues --    2.38215   2.43067   2.44072   2.47885   2.49799
 Alpha virt. eigenvalues --    2.53780   2.55446   2.59861   2.62208   2.70327
 Alpha virt. eigenvalues --    2.71765   2.75564   2.81790   2.82583   2.87236
 Alpha virt. eigenvalues --    2.91168   3.00644   3.42727   3.46128   3.56775
 Alpha virt. eigenvalues --    3.59579   3.61868   3.69958   3.87715   4.80095
 Alpha virt. eigenvalues --    4.84488   4.86278   4.86847   4.87337   4.89118
 Alpha virt. eigenvalues --    4.89766   4.90392   4.92098   4.92965   4.94139
 Alpha virt. eigenvalues --    4.95431   4.96079   4.97084   4.97558   4.98417
 Alpha virt. eigenvalues --    4.99708   5.00702   5.02209   5.02541   5.03573
 Alpha virt. eigenvalues --    5.04609   5.05223   5.05698   5.07483   5.09676
 Alpha virt. eigenvalues --    5.10597   5.12278   5.14153   5.15261   5.18854
 Alpha virt. eigenvalues --    5.20037   5.22081   5.26113   5.28103
  Beta  occ. eigenvalues --  -26.20623 -26.20427 -26.20330 -26.20175 -26.20022
  Beta  occ. eigenvalues --  -26.19940 -26.19326 -11.57521 -11.50990 -11.46055
  Beta  occ. eigenvalues --   -1.80453  -1.76837  -1.75684  -1.73276  -1.73091
  Beta  occ. eigenvalues --   -1.72100  -1.71249  -1.15044  -1.05419  -0.99024
  Beta  occ. eigenvalues --   -0.93221  -0.92918  -0.92574  -0.89405  -0.88229
  Beta  occ. eigenvalues --   -0.86281  -0.81960  -0.81388  -0.81035  -0.80628
  Beta  occ. eigenvalues --   -0.79746  -0.78445  -0.77061  -0.76525  -0.76178
  Beta  occ. eigenvalues --   -0.75673  -0.75250  -0.74835  -0.70136  -0.61802
  Beta virt. eigenvalues --    0.04253   0.07333   0.07599   0.07773   0.09375
  Beta virt. eigenvalues --    0.10784   0.11112   0.11383   0.12470   0.13755
  Beta virt. eigenvalues --    0.15002   0.19421   0.20719   0.20748   0.23328
  Beta virt. eigenvalues --    0.25041   0.26788   0.27565   0.28285   0.29252
  Beta virt. eigenvalues --    0.29390   0.31657   0.32611   0.33160   0.33614
  Beta virt. eigenvalues --    0.33906   0.34654   0.35369   0.35692   0.36327
  Beta virt. eigenvalues --    0.37161   0.37391   0.37949   0.38404   0.38805
  Beta virt. eigenvalues --    0.39296   0.39923   0.41105   0.42207   0.42943
  Beta virt. eigenvalues --    0.43776   0.45957   0.46328   0.47723   0.49524
  Beta virt. eigenvalues --    0.50514   0.52142   0.52471   0.57291   0.57435
  Beta virt. eigenvalues --    0.61692   0.65170   0.67749   0.68406   0.71315
  Beta virt. eigenvalues --    0.73022   0.76081   0.77398   0.78828   0.79929
  Beta virt. eigenvalues --    0.81000   0.82012   0.84831   0.88483   0.89806
  Beta virt. eigenvalues --    0.93283   0.96597   0.98839   1.03425   1.06291
  Beta virt. eigenvalues --    1.06820   1.12993   1.16555   1.19854   1.26235
  Beta virt. eigenvalues --    1.28597   1.32125   1.35109   1.36623   1.38114
  Beta virt. eigenvalues --    1.39523   1.40912   1.42814   1.44050   1.44630
  Beta virt. eigenvalues --    1.47314   1.48308   1.49830   1.50945   1.51208
  Beta virt. eigenvalues --    1.52149   1.52835   1.53742   1.54576   1.55234
  Beta virt. eigenvalues --    1.58129   1.60829   1.61675   1.62701   1.65558
  Beta virt. eigenvalues --    1.66658   1.67962   1.70430   1.72224   1.72859
  Beta virt. eigenvalues --    1.74210   1.77575   1.77937   1.79423   1.83281
  Beta virt. eigenvalues --    1.85777   1.88114   1.88872   1.90219   1.90666
  Beta virt. eigenvalues --    1.92471   1.94673   1.96258   1.98134   2.01069
  Beta virt. eigenvalues --    2.03001   2.04259   2.05545   2.09948   2.12848
  Beta virt. eigenvalues --    2.16729   2.20061   2.25682   2.29245   2.32389
  Beta virt. eigenvalues --    2.35928   2.38689   2.43280   2.44693   2.48146
  Beta virt. eigenvalues --    2.50290   2.54396   2.55965   2.60454   2.62604
  Beta virt. eigenvalues --    2.70420   2.72109   2.76253   2.82126   2.83194
  Beta virt. eigenvalues --    2.87680   2.92372   3.00846   3.43073   3.46479
  Beta virt. eigenvalues --    3.56832   3.59672   3.61929   3.70165   3.88090
  Beta virt. eigenvalues --    4.80489   4.84764   4.86758   4.87146   4.87545
  Beta virt. eigenvalues --    4.89338   4.89853   4.90503   4.92281   4.93332
  Beta virt. eigenvalues --    4.94608   4.95681   4.96368   4.97199   4.98158
  Beta virt. eigenvalues --    4.98799   4.99959   5.00952   5.02337   5.02696
  Beta virt. eigenvalues --    5.03761   5.04789   5.05331   5.05833   5.07689
  Beta virt. eigenvalues --    5.09817   5.10647   5.12413   5.14207   5.15435
  Beta virt. eigenvalues --    5.19129   5.20274   5.22133   5.26177   5.28172
          Condensed to atoms (all electrons):
          Atomic-Atomic Spin Densities.
 Mulliken charges and spin densities:
               1          2
     1  C    0.914239  -0.000859
     2  C    0.704449  -0.072755
     3  F   -0.281184   0.000331
     4  F   -0.288385  -0.001273
     5  F   -0.263922  -0.000903
     6  C    0.535045   1.011478
     7  F   -0.378522   0.020912
     8  F   -0.354797  -0.003961
     9  F   -0.300486   0.023906
    10  F   -0.286439   0.023124
 Sum of Mulliken charges =  -0.00000   1.00000
 Mulliken charges and spin densities with hydrogens summed into heavy atoms:
               1          2
     1  C    0.914239  -0.000859
     2  C    0.704449  -0.072755
     3  F   -0.281184   0.000331
     4  F   -0.288385  -0.001273
     5  F   -0.263922  -0.000903
     6  C    0.535045   1.011478
     7  F   -0.378522   0.020912
     8  F   -0.354797  -0.003961
     9  F   -0.300486   0.023906
    10  F   -0.286439   0.023124
 Electronic spatial extent (au):  <R**2>=           1159.8036
 Charge=              0.0000 electrons
 Dipole moment (field-independent basis, Debye):
    X=             -0.0927    Y=              0.3545    Z=             -0.7212  Tot=              0.8089
                          Isotropic Fermi Contact Couplings
        Atom                 a.u.       MegaHertz       Gauss      10(-4) cm-1
     1  C(13)             -0.00306      -3.44422      -1.22898      -1.14887
     2  C(13)              0.02067      23.23283       8.29005       7.74964
     3  F(19)              0.00046       1.94084       0.69254       0.64740
     4  F(19)              0.00319      13.40496       4.78322       4.47141
     5  F(19)             -0.00147      -6.20200      -2.21303      -2.06876
     6  C(13)              0.47771     537.03322     191.62681     179.13500
     7  F(19)              0.03539     148.89999      53.13122      49.66769
     8  F(19)             -0.00421     -17.69600      -6.31437      -5.90275
     9  F(19)              0.06808     286.44142     102.20942      95.54657
    10  F(19)              0.06869     289.01980     103.12945      96.40663
 --------------------------------------------------------
       Center         ----  Spin Dipole Couplings  ----
                      3XX-RR        3YY-RR        3ZZ-RR
 --------------------------------------------------------
     1   Atom        0.014368     -0.009646     -0.004722
     2   Atom        0.038784      0.008058     -0.046842
     3   Atom        0.006558     -0.002094     -0.004463
     4   Atom        0.025169     -0.013903     -0.011266
     5   Atom       -0.006461      0.003254      0.003207
     6   Atom       -0.543292     -0.497027      1.040319
     7   Atom       -0.091935     -0.038972      0.130908
     8   Atom       -0.006185     -0.001474      0.007659
     9   Atom       -0.254030     -0.422385      0.676416
    10   Atom       -0.328289     -0.211253      0.539542
 --------------------------------------------------------
                        XY            XZ            YZ
 --------------------------------------------------------
     1   Atom       -0.005954      0.006262      0.000246
     2   Atom       -0.039201     -0.013149      0.013229
     3   Atom        0.007020      0.005627      0.002695
     4   Atom       -0.001199     -0.002054     -0.000434
     5   Atom       -0.000411      0.000778     -0.000868
     6   Atom        0.038853     -0.200045     -0.353900
     7   Atom       -0.062891      0.118562     -0.156734
     8   Atom        0.014868     -0.006898     -0.007345
     9   Atom        0.008188     -0.087487     -0.077317
    10   Atom        0.003084     -0.245616     -0.290644
 --------------------------------------------------------


 ---------------------------------------------------------------------------------
              Anisotropic Spin Dipole Couplings in Principal Axis System
 ---------------------------------------------------------------------------------

       Atom             a.u.   MegaHertz   Gauss  10(-4) cm-1        Axes

              Baa    -0.0115    -1.550    -0.553    -0.517  0.2803  0.9150 -0.2901
     1 C(13)  Bbb    -0.0059    -0.788    -0.281    -0.263 -0.1824  0.3475  0.9198
              Bcc     0.0174     2.337     0.834     0.780  0.9424 -0.2049  0.2643
 
              Baa    -0.0501    -6.728    -2.401    -2.244  0.0666 -0.1783  0.9817
     2 C(13)  Bbb    -0.0183    -2.456    -0.876    -0.819  0.5795  0.8079  0.1075
              Bcc     0.0684     9.184     3.277     3.063  0.8122 -0.5618 -0.1571
 
              Baa    -0.0069    -3.453    -1.232    -1.152 -0.4625  0.1911  0.8658
     3 F(19)  Bbb    -0.0059    -2.942    -1.050    -0.981 -0.3264  0.8712 -0.3666
              Bcc     0.0127     6.395     2.282     2.133  0.8243  0.4522  0.3406
 
              Baa    -0.0140    -7.047    -2.515    -2.351  0.0397  0.9822  0.1835
     4 F(19)  Bbb    -0.0113    -5.669    -2.023    -1.891  0.0492 -0.1853  0.9814
              Bcc     0.0253    12.716     4.537     4.242  0.9980 -0.0299 -0.0557
 
              Baa    -0.0065    -3.282    -1.171    -1.095  0.9965  0.0351 -0.0764
     5 F(19)  Bbb     0.0024     1.190     0.425     0.397  0.0293  0.7071  0.7065
              Bcc     0.0042     2.092     0.746     0.698 -0.0788  0.7062 -0.7036
 
              Baa    -0.5771   -77.444   -27.634   -25.833  0.4616  0.8530  0.2437
     6 C(13)  Bbb    -0.5654   -75.868   -27.071   -25.307  0.8790 -0.4769  0.0044
              Bcc     1.1425   153.312    54.706    51.139 -0.1200 -0.2122  0.9698
 
              Baa    -0.1443   -72.488   -25.865   -24.179  0.8347 -0.2395 -0.4959
     7 F(19)  Bbb    -0.1291   -64.836   -23.135   -21.627  0.4297  0.8465  0.3143
              Bcc     0.2734   137.324    49.001    45.806  0.3445 -0.4755  0.8095
 
              Baa    -0.0189    -9.488    -3.386    -3.165  0.7647 -0.6441  0.0205
     8 F(19)  Bbb    -0.0008    -0.388    -0.138    -0.129  0.4020  0.5017  0.7660
              Bcc     0.0197     9.876     3.524     3.294 -0.5036 -0.5775  0.6426
 
              Baa    -0.4278  -214.864   -76.669   -71.671 -0.0123  0.9975  0.0689
     9 F(19)  Bbb    -0.2622  -131.673   -46.984   -43.921  0.9956  0.0059  0.0933
              Bcc     0.6900   346.538   123.653   115.592 -0.0927 -0.0697  0.9933
 
              Baa    -0.4289  -215.381   -76.853   -71.843  0.8257  0.4473  0.3437
    10 F(19)  Bbb    -0.2637  -132.449   -47.261   -44.180 -0.5177  0.8429  0.1467
              Bcc     0.6926   347.830   124.114   116.024 -0.2241 -0.2990  0.9276
 

 ---------------------------------------------------------------------------------


 Test job not archived.
 1\1\GINC-SE094\SP\UHF\Aug-CC-pVDZ\C3F7(2)\OHZDE\08-Apr-2025\0\\#t hf a
 ug-cc-pvdz iop(5/13=1,5/36=2,99/5=2) pseudo=read geom=check guess=(rea
 d,tcheck) scf=(maxcycle=1)\\title\\0,2\C,0,1.177707,0.19734,-0.103003\
 C,0,-0.192495,-0.490576,0.125715\F,0,1.275204,1.311132,0.629775\F,0,1.
 316085,0.51816,-1.396491\F,0,2.162525,-0.633681,0.242691\C,0,-1.370718
 ,0.328041,-0.358124\F,0,-0.301173,-0.762269,1.458899\F,0,-0.193185,-1.
 665592,-0.542813\F,0,-1.48078,1.533104,0.182021\F,0,-2.521672,-0.32405
 8,-0.350473\\Version=ES64L-G16RevC.01\State=2-A\HF=-810.0105403\S2=0.7
 56515\S2-1=0.\S2A=0.750031\RMSD=6.818e-03\Dipole=-0.0364836,0.1394569,
 -0.2837444\Quadrupole=-0.3911491,-0.5395236,0.9306727,-0.1243881,0.450
 2016,-0.392978\PG=C01 [X(C3F7)]\\@


 ALL MY ATTEMPTS TO ADAPT THE THEORETICAL FOUNDATIONS OF PHYSICS
 TO THESE NEW NOTIONS FAILED COMPLETELY. IT WAS AS IF THE GROUND HAD
 BEEN PULLED OUT FROM UNDER ONE WITH NO FIRM FOUNDATION TO BE SEEN ANYWHERE,
 UPON WHICH ONE COULD HAVE BUILT.  -- A.EINSTEIN
 Job cpu time:       0 days  0 hours  1 minutes  3.6 seconds.
 Elapsed time:       0 days  0 hours  0 minutes  6.2 seconds.
 File lengths (MBytes):  RWF=     14 Int=      0 D2E=      0 Chk=     10 Scr=      1
 Normal termination of Gaussian 16 at Tue Apr  8 22:42:12 2025.
