 Entering Gaussian System, Link 0=g16
 Input=BDE49_nonexpt_2623_mol2.gjf
 Output=BDE49_nonexpt_2623_mol2.log
 Initial command:
 /arc/software/Gaussian/g16.c01/l1.exe "/tmp/slurm/4852851/Gau-579141.inp" -scrdir="/tmp/slurm/4852851/"
 Entering Link 1 = /arc/software/Gaussian/g16.c01/l1.exe PID=    579142.
  
 Copyright (c) 1988-2019, Gaussian, Inc.  All Rights Reserved.
  
 This is part of the Gaussian(R) 16 program.  It is based on
 the Gaussian(R) 09 system (copyright 2009, Gaussian, Inc.),
 the Gaussian(R) 03 system (copyright 2003, Gaussian, Inc.),
 the Gaussian(R) 98 system (copyright 1998, Gaussian, Inc.),
 the Gaussian(R) 94 system (copyright 1995, Gaussian, Inc.),
 the Gaussian 92(TM) system (copyright 1992, Gaussian, Inc.),
 the Gaussian 90(TM) system (copyright 1990, Gaussian, Inc.),
 the Gaussian 88(TM) system (copyright 1988, Gaussian, Inc.),
 the Gaussian 86(TM) system (copyright 1986, Carnegie Mellon
 University), and the Gaussian 82(TM) system (copyright 1983,
 Carnegie Mellon University). Gaussian is a federally registered
 trademark of Gaussian, Inc.
  
 This software contains proprietary and confidential information,
 including trade secrets, belonging to Gaussian, Inc.
  
 This software is provided under written license and may be
 used, copied, transmitted, or stored only in accord with that
 written license.
  
 The following legend is applicable only to US Government
 contracts under FAR:
  
                    RESTRICTED RIGHTS LEGEND
  
 Use, reproduction and disclosure by the US Government is
 subject to restrictions as set forth in subparagraphs (a)
 and (c) of the Commercial Computer Software - Restricted
 Rights clause in FAR 52.227-19.
  
 Gaussian, Inc.
 340 Quinnipiac St., Bldg. 40, Wallingford CT 06492
  
  
 ---------------------------------------------------------------
 Warning -- This program may not be used in any manner that
 competes with the business of Gaussian, Inc. or will provide
 assistance to any competitor of Gaussian, Inc.  The licensee
 of this program is prohibited from giving any competitor of
 Gaussian, Inc. access to this program.  By using this program,
 the user acknowledges that Gaussian, Inc. is engaged in the
 business of creating and licensing software in the field of
 computational chemistry and represents and warrants to the
 licensee that it is not a competitor of Gaussian, Inc. and that
 it will not use this program in any manner prohibited above.
 ---------------------------------------------------------------
  

 Cite this work as:
 Gaussian 16, Revision C.01,
 M. J. Frisch, G. W. Trucks, H. B. Schlegel, G. E. Scuseria, 
 M. A. Robb, J. R. Cheeseman, G. Scalmani, V. Barone, 
 G. A. Petersson, H. Nakatsuji, X. Li, M. Caricato, A. V. Marenich, 
 J. Bloino, B. G. Janesko, R. Gomperts, B. Mennucci, H. P. Hratchian, 
 J. V. Ortiz, A. F. Izmaylov, J. L. Sonnenberg, D. Williams-Young, 
 F. Ding, F. Lipparini, F. Egidi, J. Goings, B. Peng, A. Petrone, 
 T. Henderson, D. Ranasinghe, V. G. Zakrzewski, J. Gao, N. Rega, 
 G. Zheng, W. Liang, M. Hada, M. Ehara, K. Toyota, R. Fukuda, 
 J. Hasegawa, M. Ishida, T. Nakajima, Y. Honda, O. Kitao, H. Nakai, 
 T. Vreven, K. Throssell, J. A. Montgomery, Jr., J. E. Peralta, 
 F. Ogliaro, M. J. Bearpark, J. J. Heyd, E. N. Brothers, K. N. Kudin, 
 V. N. Staroverov, T. A. Keith, R. Kobayashi, J. Normand, 
 K. Raghavachari, A. P. Rendell, J. C. Burant, S. S. Iyengar, 
 J. Tomasi, M. Cossi, J. M. Millam, M. Klene, C. Adamo, R. Cammi, 
 J. W. Ochterski, R. L. Martin, K. Morokuma, O. Farkas, 
 J. B. Foresman, and D. J. Fox, Gaussian, Inc., Wallingford CT, 2019.
 
 ******************************************
 Gaussian 16:  ES64L-G16RevC.01  3-Jul-2019
                 9-Apr-2025 
 ******************************************
 %nprocs=16
 Will use up to   16 processors via shared memory.
 %mem=30GB
 %chk=BDE49_nonexpt_2623_mol2.chk
 ----------------------------------------------------------------------
 #t hf aug-cc-pvdz symm=none int=(grid=ultrafine) guess=(read,tcheck) s
 table=opt
 ----------------------------------------------------------------------
 -----
 title
 -----
 Symbolic Z-matrix:
 Charge =  0 Multiplicity = 2
 S                     1.35514  0.        -0.05592 
 C                    -0.40259  0.         0.34848 
 F                    -1.04346   1.09307  -0.14652 
 F                    -1.04347  -1.09307  -0.14653 
 H                    -0.48426  0.         1.44121 
 
                    Distance matrix (angstroms):
                    1          2          3          4          5
     1  S    0.000000
     2  C    1.803644   0.000000
     3  F    2.637480   1.360355   0.000000
     4  F    2.637482   1.360354   2.186145   0.000000
     5  H    2.371657   1.095775   2.007093   2.007093   0.000000
 Symmetry turned off by external request.
 Rotational constants (GHZ):          10.1440988           4.7380253           3.4229979
   105 basis functions,   221 primitive gaussians,   113 cartesian basis functions
    21 alpha electrons       20 beta electrons
       nuclear repulsion energy       158.7814113027 Hartrees.
 NAtoms=    5 NActive=    5 NUniq=    5 SFac= 1.00D+00 NAtFMM=   60 NAOKFM=F Big=F
 ExpMin= 2.97D-02 ExpMax= 1.11D+05 ExpMxC= 1.07D+03 IAcc=3 IRadAn=         5 AccDes= 0.00D+00
 Harris functional with IExCor=  205 and IRadAn=       5 diagonalized for initial guess.
 HarFok:  IExCor=  205 AccDes= 0.00D+00 IRadAn=         5 IDoV= 1 UseB2=F ITyADJ=14
 ICtDFT=  3500011 ScaDFX=  1.000000  1.000000  1.000000  1.000000
 FoFCou: FMM=F IPFlag=           0 FMFlag=      100000 FMFlg1=           0
         NFxFlg=           0 DoJE=T BraDBF=F KetDBF=T FulRan=T
         wScrn=  0.000000 ICntrl=       500 IOpCl=  0 I1Cent=   200000004 NGrid=           0
         NMat0=    1 NMatS0=      1 NMatT0=    0 NMatD0=    1 NMtDS0=    0 NMtDT0=    0
 Symmetry not used in FoFCou.
 Initial guess <Sx>= 0.0000 <Sy>= 0.0000 <Sz>= 0.5000 <S**2>= 0.7500 S= 0.5000
 SCF Done:  E(UHF) =  -634.855082803     A.U. after   14 cycles
            NFock= 14  Conv=0.99D-08     -V/T= 2.0005
 <Sx>= 0.0000 <Sy>= 0.0000 <Sz>= 0.5000 <S**2>= 0.7617 S= 0.5058
 <L.S>=  0.00000000000    
 Annihilation of the first spin contaminant:
 S**2 before annihilation     0.7617,   after     0.7500

 **********************************************************************

            Population analysis using the SCF Density.

 **********************************************************************

 Alpha  occ. eigenvalues --  -92.01355 -26.34409 -26.34407 -11.46480  -9.01574
 Alpha  occ. eigenvalues --   -6.71134  -6.69338  -6.69025  -1.68728  -1.62429
 Alpha  occ. eigenvalues --   -1.07833  -0.91788  -0.80202  -0.77826  -0.74129
 Alpha  occ. eigenvalues --   -0.68406  -0.64887  -0.63553  -0.51758  -0.47998
 Alpha  occ. eigenvalues --   -0.42217
 Alpha virt. eigenvalues --    0.03597   0.06648   0.09630   0.10069   0.11225
 Alpha virt. eigenvalues --    0.12395   0.12796   0.15735   0.21654   0.23567
 Alpha virt. eigenvalues --    0.24290   0.24907   0.27742   0.28935   0.30683
 Alpha virt. eigenvalues --    0.32777   0.33950   0.35874   0.36289   0.37111
 Alpha virt. eigenvalues --    0.38049   0.44207   0.46341   0.48766   0.51530
 Alpha virt. eigenvalues --    0.51622   0.56838   0.57884   0.58915   0.61892
 Alpha virt. eigenvalues --    0.68286   0.75391   0.76851   0.77042   0.85953
 Alpha virt. eigenvalues --    0.87464   0.88904   0.90759   0.96875   1.02717
 Alpha virt. eigenvalues --    1.08309   1.09568   1.12001   1.17421   1.20553
 Alpha virt. eigenvalues --    1.22428   1.35910   1.40331   1.48421   1.49320
 Alpha virt. eigenvalues --    1.50165   1.54672   1.56432   1.61782   1.68903
 Alpha virt. eigenvalues --    1.71761   1.74175   1.81074   1.81504   1.91361
 Alpha virt. eigenvalues --    1.95597   2.00281   2.06830   2.18319   2.19143
 Alpha virt. eigenvalues --    2.22035   2.31656   2.42523   2.43292   2.61310
 Alpha virt. eigenvalues --    2.65836   2.79786   3.42240   3.57036   4.93313
 Alpha virt. eigenvalues --    4.93712   4.93995   4.96548   4.98627   5.03907
 Alpha virt. eigenvalues --    5.05848   5.07065   5.08014   5.21673
  Beta  occ. eigenvalues --  -92.00437 -26.34382 -26.34381 -11.46622  -9.00566
  Beta  occ. eigenvalues --   -6.68825  -6.68487  -6.67075  -1.68636  -1.62334
  Beta  occ. eigenvalues --   -1.03645  -0.87548  -0.79725  -0.77681  -0.72517
  Beta  occ. eigenvalues --   -0.68425  -0.64829  -0.62602  -0.50433  -0.39859
  Beta virt. eigenvalues --   -0.01971   0.03671   0.06844   0.10122   0.10307
  Beta virt. eigenvalues --    0.11656   0.12880   0.14039   0.16041   0.22925
  Beta virt. eigenvalues --    0.23913   0.24958   0.25300   0.27856   0.30967
  Beta virt. eigenvalues --    0.31463   0.33302   0.34582   0.36336   0.36569
  Beta virt. eigenvalues --    0.40309   0.40507   0.44352   0.47101   0.50323
  Beta virt. eigenvalues --    0.51935   0.52542   0.57703   0.58166   0.60351
  Beta virt. eigenvalues --    0.62852   0.68482   0.75725   0.77334   0.78706
  Beta virt. eigenvalues --    0.86596   0.89587   0.90952   0.92835   0.97031
  Beta virt. eigenvalues --    1.04168   1.10908   1.14579   1.15278   1.21084
  Beta virt. eigenvalues --    1.21490   1.23984   1.36321   1.40350   1.49111
  Beta virt. eigenvalues --    1.49348   1.50214   1.55308   1.56729   1.61809
  Beta virt. eigenvalues --    1.68966   1.71823   1.74426   1.81193   1.81668
  Beta virt. eigenvalues --    1.91423   1.95619   2.00278   2.07213   2.18351
  Beta virt. eigenvalues --    2.19273   2.22427   2.31824   2.42594   2.43550
  Beta virt. eigenvalues --    2.61339   2.65902   2.79986   3.42302   3.57101
  Beta virt. eigenvalues --    4.93321   4.93768   4.93996   4.96555   4.98645
  Beta virt. eigenvalues --    5.03963   5.05917   5.07136   5.08088   5.21739
          Condensed to atoms (all electrons):
          Atomic-Atomic Spin Densities.
 Mulliken charges and spin densities:
               1          2
     1  S    0.228422   1.072532
     2  C    0.944043  -0.085140
     3  F   -0.523608   0.000065
     4  F   -0.523608   0.000065
     5  H   -0.125249   0.012478
 Sum of Mulliken charges =  -0.00000   1.00000
 Mulliken charges and spin densities with hydrogens summed into heavy atoms:
               1          2
     1  S    0.228422   1.072532
     2  C    0.818794  -0.072662
     3  F   -0.523608   0.000065
     4  F   -0.523608   0.000065
 Electronic spatial extent (au):  <R**2>=            333.5725
 Charge=             -0.0000 electrons
 Dipole moment (field-independent basis, Debye):
    X=              0.8139    Y=             -0.0000    Z=              1.4777  Tot=              1.6870
                          Isotropic Fermi Contact Couplings
        Atom                 a.u.       MegaHertz       Gauss      10(-4) cm-1
     1  S(33)              0.19322      66.36720      23.68147      22.13771
     2  C(13)             -0.02513     -28.24742     -10.07938      -9.42233
     3  F(19)              0.00528      22.20933       7.92484       7.40824
     4  F(19)              0.00528      22.20840       7.92451       7.40792
     5  H(1)               0.00919      41.09233      14.66277      13.70693
 --------------------------------------------------------
       Center         ----  Spin Dipole Couplings  ----
                      3XX-RR        3YY-RR        3ZZ-RR
 --------------------------------------------------------
     1   Atom       -1.798412     -1.953851      3.752263
     2   Atom        0.001447     -0.003177      0.001730
     3   Atom       -0.003333      0.022955     -0.019623
     4   Atom       -0.003333      0.022955     -0.019622
     5   Atom        0.011905     -0.010201     -0.001704
 --------------------------------------------------------
                        XY            XZ            YZ
 --------------------------------------------------------
     1   Atom       -0.000005      1.083006     -0.000028
     2   Atom        0.000000      0.001477      0.000000
     3   Atom       -0.035195      0.012328     -0.016115
     4   Atom        0.035195      0.012328      0.016115
     5   Atom       -0.000000     -0.007126     -0.000000
 --------------------------------------------------------


 ---------------------------------------------------------------------------------
              Anisotropic Spin Dipole Couplings in Principal Axis System
 ---------------------------------------------------------------------------------

       Atom             a.u.   MegaHertz   Gauss  10(-4) cm-1        Axes

              Baa    -2.0022   -82.090   -29.292   -27.382  0.9827 -0.0000 -0.1850
     1 S(33)  Bbb    -1.9539   -80.106   -28.584   -26.721  0.0000  1.0000  0.0000
              Bcc     3.9561   162.196    57.876    54.103  0.1850 -0.0000  0.9827
 
              Baa    -0.0032    -0.426    -0.152    -0.142 -0.0000  1.0000  0.0000
     2 C(13)  Bbb     0.0001     0.014     0.005     0.005  0.7401  0.0000 -0.6725
              Bcc     0.0031     0.412     0.147     0.138  0.6725  0.0000  0.7401
 
              Baa    -0.0281   -14.089    -5.027    -4.700  0.8269  0.4760 -0.2992
     3 F(19)  Bbb    -0.0250   -12.546    -4.477    -4.185  0.1083  0.3873  0.9156
              Bcc     0.0530    26.636     9.504     8.885 -0.5517  0.7895 -0.2687
 
              Baa    -0.0281   -14.089    -5.027    -4.700  0.8269 -0.4760 -0.2993
     4 F(19)  Bbb    -0.0250   -12.546    -4.477    -4.185  0.1083 -0.3873  0.9155
              Bcc     0.0530    26.635     9.504     8.885  0.5517  0.7895  0.2687
 
              Baa    -0.0102    -5.443    -1.942    -1.816  0.0000  1.0000  0.0000
     5 H(1)   Bbb    -0.0048    -2.536    -0.905    -0.846  0.3933 -0.0000  0.9194
              Bcc     0.0150     7.979     2.847     2.661  0.9194 -0.0000 -0.3933
 

 ---------------------------------------------------------------------------------

 NROrb=    105 NOA=    21 NOB=    20 NVA=    84 NVB=    85

 **** Warning!!: The largest alpha MO coefficient is  0.14910688D+02


 **** Warning!!: The largest beta MO coefficient is  0.13413156D+02

    12 initial guesses have been made.
 Iteration     1 Dimension    12 NMult     0 NNew     12
 Iteration     2 Dimension    24 NMult    12 NNew     12
 Iteration     3 Dimension    27 NMult    24 NNew      3
 Iteration     4 Dimension    30 NMult    27 NNew      3
 Iteration     5 Dimension    33 NMult    30 NNew      3
 ***********************************************************************
 Stability analysis using <AA,BB:AA,BB> singles matrix:
 ***********************************************************************
 Ground to excited state transition densities written to RWF  633

 Eigenvectors of the stability matrix:
 
 Excited state symmetry could not be determined.
 Eigenvector   1:  2.037-?Sym  Eigenvalue= 0.0034904  <S**2>=0.787
     20B -> 21B        0.94637
     20B -> 25B       -0.12675
     20B -> 28B       -0.22722
 The wavefunction is stable under the perturbations considered.
 The wavefunction is already stable.

 **********************************************************************

            Population analysis using the SCF Density.

 **********************************************************************

 Alpha  occ. eigenvalues --  -92.01355 -26.34409 -26.34407 -11.46480  -9.01574
 Alpha  occ. eigenvalues --   -6.71134  -6.69338  -6.69025  -1.68728  -1.62429
 Alpha  occ. eigenvalues --   -1.07833  -0.91788  -0.80202  -0.77826  -0.74129
 Alpha  occ. eigenvalues --   -0.68406  -0.64887  -0.63553  -0.51758  -0.47998
 Alpha  occ. eigenvalues --   -0.42217
 Alpha virt. eigenvalues --    0.03597   0.06648   0.09630   0.10069   0.11225
 Alpha virt. eigenvalues --    0.12395   0.12796   0.15735   0.21654   0.23567
 Alpha virt. eigenvalues --    0.24290   0.24907   0.27742   0.28935   0.30683
 Alpha virt. eigenvalues --    0.32777   0.33950   0.35874   0.36289   0.37111
 Alpha virt. eigenvalues --    0.38049   0.44207   0.46341   0.48766   0.51530
 Alpha virt. eigenvalues --    0.51622   0.56838   0.57884   0.58915   0.61892
 Alpha virt. eigenvalues --    0.68286   0.75391   0.76851   0.77042   0.85953
 Alpha virt. eigenvalues --    0.87464   0.88904   0.90759   0.96875   1.02717
 Alpha virt. eigenvalues --    1.08309   1.09568   1.12001   1.17421   1.20553
 Alpha virt. eigenvalues --    1.22428   1.35910   1.40331   1.48421   1.49320
 Alpha virt. eigenvalues --    1.50165   1.54672   1.56432   1.61782   1.68903
 Alpha virt. eigenvalues --    1.71761   1.74175   1.81074   1.81504   1.91361
 Alpha virt. eigenvalues --    1.95597   2.00281   2.06830   2.18319   2.19143
 Alpha virt. eigenvalues --    2.22035   2.31656   2.42523   2.43292   2.61310
 Alpha virt. eigenvalues --    2.65836   2.79786   3.42240   3.57036   4.93313
 Alpha virt. eigenvalues --    4.93712   4.93995   4.96548   4.98627   5.03907
 Alpha virt. eigenvalues --    5.05848   5.07065   5.08014   5.21673
  Beta  occ. eigenvalues --  -92.00437 -26.34382 -26.34381 -11.46622  -9.00566
  Beta  occ. eigenvalues --   -6.68825  -6.68487  -6.67075  -1.68636  -1.62334
  Beta  occ. eigenvalues --   -1.03645  -0.87548  -0.79725  -0.77681  -0.72517
  Beta  occ. eigenvalues --   -0.68425  -0.64829  -0.62602  -0.50433  -0.39859
  Beta virt. eigenvalues --   -0.01971   0.03671   0.06844   0.10122   0.10307
  Beta virt. eigenvalues --    0.11656   0.12880   0.14039   0.16041   0.22925
  Beta virt. eigenvalues --    0.23913   0.24958   0.25300   0.27856   0.30967
  Beta virt. eigenvalues --    0.31463   0.33302   0.34582   0.36336   0.36569
  Beta virt. eigenvalues --    0.40309   0.40507   0.44352   0.47101   0.50323
  Beta virt. eigenvalues --    0.51935   0.52542   0.57703   0.58166   0.60351
  Beta virt. eigenvalues --    0.62852   0.68482   0.75725   0.77334   0.78706
  Beta virt. eigenvalues --    0.86596   0.89587   0.90952   0.92835   0.97031
  Beta virt. eigenvalues --    1.04168   1.10908   1.14579   1.15278   1.21084
  Beta virt. eigenvalues --    1.21490   1.23984   1.36321   1.40350   1.49111
  Beta virt. eigenvalues --    1.49348   1.50214   1.55308   1.56729   1.61809
  Beta virt. eigenvalues --    1.68966   1.71823   1.74426   1.81193   1.81668
  Beta virt. eigenvalues --    1.91423   1.95619   2.00278   2.07213   2.18351
  Beta virt. eigenvalues --    2.19273   2.22427   2.31824   2.42594   2.43550
  Beta virt. eigenvalues --    2.61339   2.65902   2.79986   3.42302   3.57101
  Beta virt. eigenvalues --    4.93321   4.93768   4.93996   4.96555   4.98645
  Beta virt. eigenvalues --    5.03963   5.05917   5.07136   5.08088   5.21739
          Condensed to atoms (all electrons):
          Atomic-Atomic Spin Densities.
 Mulliken charges and spin densities:
               1          2
     1  S    0.228422   1.072532
     2  C    0.944043  -0.085140
     3  F   -0.523608   0.000065
     4  F   -0.523608   0.000065
     5  H   -0.125249   0.012478
 Sum of Mulliken charges =  -0.00000   1.00000
 Mulliken charges and spin densities with hydrogens summed into heavy atoms:
               1          2
     1  S    0.228422   1.072532
     2  C    0.818794  -0.072662
     3  F   -0.523608   0.000065
     4  F   -0.523608   0.000065
 Electronic spatial extent (au):  <R**2>=            333.5725
 Charge=             -0.0000 electrons
 Dipole moment (field-independent basis, Debye):
    X=              0.8139    Y=             -0.0000    Z=              1.4777  Tot=              1.6870
                          Isotropic Fermi Contact Couplings
        Atom                 a.u.       MegaHertz       Gauss      10(-4) cm-1
     1  S(33)              0.19322      66.36720      23.68147      22.13771
     2  C(13)             -0.02513     -28.24742     -10.07938      -9.42233
     3  F(19)              0.00528      22.20933       7.92484       7.40824
     4  F(19)              0.00528      22.20840       7.92451       7.40792
     5  H(1)               0.00919      41.09233      14.66277      13.70693
 --------------------------------------------------------
       Center         ----  Spin Dipole Couplings  ----
                      3XX-RR        3YY-RR        3ZZ-RR
 --------------------------------------------------------
     1   Atom       -1.798412     -1.953851      3.752263
     2   Atom        0.001447     -0.003177      0.001730
     3   Atom       -0.003333      0.022955     -0.019623
     4   Atom       -0.003333      0.022955     -0.019622
     5   Atom        0.011905     -0.010201     -0.001704
 --------------------------------------------------------
                        XY            XZ            YZ
 --------------------------------------------------------
     1   Atom       -0.000005      1.083006     -0.000028
     2   Atom        0.000000      0.001477      0.000000
     3   Atom       -0.035195      0.012328     -0.016115
     4   Atom        0.035195      0.012328      0.016115
     5   Atom       -0.000000     -0.007126     -0.000000
 --------------------------------------------------------


 ---------------------------------------------------------------------------------
              Anisotropic Spin Dipole Couplings in Principal Axis System
 ---------------------------------------------------------------------------------

       Atom             a.u.   MegaHertz   Gauss  10(-4) cm-1        Axes

              Baa    -2.0022   -82.090   -29.292   -27.382  0.9827 -0.0000 -0.1850
     1 S(33)  Bbb    -1.9539   -80.106   -28.584   -26.721  0.0000  1.0000  0.0000
              Bcc     3.9561   162.196    57.876    54.103  0.1850 -0.0000  0.9827
 
              Baa    -0.0032    -0.426    -0.152    -0.142 -0.0000  1.0000  0.0000
     2 C(13)  Bbb     0.0001     0.014     0.005     0.005  0.7401  0.0000 -0.6725
              Bcc     0.0031     0.412     0.147     0.138  0.6725  0.0000  0.7401
 
              Baa    -0.0281   -14.089    -5.027    -4.700  0.8269  0.4760 -0.2992
     3 F(19)  Bbb    -0.0250   -12.546    -4.477    -4.185  0.1083  0.3873  0.9156
              Bcc     0.0530    26.636     9.504     8.885 -0.5517  0.7895 -0.2687
 
              Baa    -0.0281   -14.089    -5.027    -4.700  0.8269 -0.4760 -0.2993
     4 F(19)  Bbb    -0.0250   -12.546    -4.477    -4.185  0.1083 -0.3873  0.9155
              Bcc     0.0530    26.635     9.504     8.885  0.5517  0.7895  0.2687
 
              Baa    -0.0102    -5.443    -1.942    -1.816  0.0000  1.0000  0.0000
     5 H(1)   Bbb    -0.0048    -2.536    -0.905    -0.846  0.3933 -0.0000  0.9194
              Bcc     0.0150     7.979     2.847     2.661  0.9194 -0.0000 -0.3933
 

 ---------------------------------------------------------------------------------

 Unable to Open any file for archive entry.
 1\1\GINC-SE102\Stability\UHF\Aug-CC-pVDZ\C1H1F2S1\OHZDE\09-Apr-2025\0\
 \#t hf aug-cc-pvdz symm=none int=(grid=ultrafine) guess=(read,tcheck) 
 stable=opt\\title\\0,2\S,0,1.355136,-0.000001,-0.055917\C,0,-0.402588,
 -0.000001,0.348483\F,0,-1.043463,1.093074,-0.146524\F,0,-1.043468,-1.0
 93071,-0.146525\H,0,-0.484257,-0.000001,1.44121\\Version=ES64L-G16RevC
 .01\HF=-634.8550828\S2=0.761681\S2-1=0.\S2A=0.750035\RMSD=9.894e-09\Di
 pole=0.3202055,-0.0000032,0.5813745\Quadrupole=-0.4680148,-2.3968194,2
 .8648342,0.0000039,-0.8506042,-0.0000107\PG=Unknown\\@
 The archive entry for this job was punched.


 HICKORY, DICKORY, DOCK
 TWO MICE RAN UP THE CLOCK
 THE CLOCK STRUCK ONE...
 THE OTHER ESCAPED WITH MINOR INJURIES.
 Job cpu time:       0 days  0 hours  0 minutes 31.5 seconds.
 Elapsed time:       0 days  0 hours  0 minutes  3.7 seconds.
 File lengths (MBytes):  RWF=     99 Int=      0 D2E=      0 Chk=      3 Scr=      1
 Normal termination of Gaussian 16 at Wed Apr  9 00:19:05 2025.
 Initial command:
 /arc/software/Gaussian/g16.c01/l1.exe "/tmp/slurm/4852851/Gau-579141.inp" -scrdir="/tmp/slurm/4852851/"
 Entering Link 1 = /arc/software/Gaussian/g16.c01/l1.exe PID=    579355.
  
 Copyright (c) 1988-2019, Gaussian, Inc.  All Rights Reserved.
  
 This is part of the Gaussian(R) 16 program.  It is based on
 the Gaussian(R) 09 system (copyright 2009, Gaussian, Inc.),
 the Gaussian(R) 03 system (copyright 2003, Gaussian, Inc.),
 the Gaussian(R) 98 system (copyright 1998, Gaussian, Inc.),
 the Gaussian(R) 94 system (copyright 1995, Gaussian, Inc.),
 the Gaussian 92(TM) system (copyright 1992, Gaussian, Inc.),
 the Gaussian 90(TM) system (copyright 1990, Gaussian, Inc.),
 the Gaussian 88(TM) system (copyright 1988, Gaussian, Inc.),
 the Gaussian 86(TM) system (copyright 1986, Carnegie Mellon
 University), and the Gaussian 82(TM) system (copyright 1983,
 Carnegie Mellon University). Gaussian is a federally registered
 trademark of Gaussian, Inc.
  
 This software contains proprietary and confidential information,
 including trade secrets, belonging to Gaussian, Inc.
  
 This software is provided under written license and may be
 used, copied, transmitted, or stored only in accord with that
 written license.
  
 The following legend is applicable only to US Government
 contracts under FAR:
  
                    RESTRICTED RIGHTS LEGEND
  
 Use, reproduction and disclosure by the US Government is
 subject to restrictions as set forth in subparagraphs (a)
 and (c) of the Commercial Computer Software - Restricted
 Rights clause in FAR 52.227-19.
  
 Gaussian, Inc.
 340 Quinnipiac St., Bldg. 40, Wallingford CT 06492
  
  
 ---------------------------------------------------------------
 Warning -- This program may not be used in any manner that
 competes with the business of Gaussian, Inc. or will provide
 assistance to any competitor of Gaussian, Inc.  The licensee
 of this program is prohibited from giving any competitor of
 Gaussian, Inc. access to this program.  By using this program,
 the user acknowledges that Gaussian, Inc. is engaged in the
 business of creating and licensing software in the field of
 computational chemistry and represents and warrants to the
 licensee that it is not a competitor of Gaussian, Inc. and that
 it will not use this program in any manner prohibited above.
 ---------------------------------------------------------------
  

 Cite this work as:
 Gaussian 16, Revision C.01,
 M. J. Frisch, G. W. Trucks, H. B. Schlegel, G. E. Scuseria, 
 M. A. Robb, J. R. Cheeseman, G. Scalmani, V. Barone, 
 G. A. Petersson, H. Nakatsuji, X. Li, M. Caricato, A. V. Marenich, 
 J. Bloino, B. G. Janesko, R. Gomperts, B. Mennucci, H. P. Hratchian, 
 J. V. Ortiz, A. F. Izmaylov, J. L. Sonnenberg, D. Williams-Young, 
 F. Ding, F. Lipparini, F. Egidi, J. Goings, B. Peng, A. Petrone, 
 T. Henderson, D. Ranasinghe, V. G. Zakrzewski, J. Gao, N. Rega, 
 G. Zheng, W. Liang, M. Hada, M. Ehara, K. Toyota, R. Fukuda, 
 J. Hasegawa, M. Ishida, T. Nakajima, Y. Honda, O. Kitao, H. Nakai, 
 T. Vreven, K. Throssell, J. A. Montgomery, Jr., J. E. Peralta, 
 F. Ogliaro, M. J. Bearpark, J. J. Heyd, E. N. Brothers, K. N. Kudin, 
 V. N. Staroverov, T. A. Keith, R. Kobayashi, J. Normand, 
 K. Raghavachari, A. P. Rendell, J. C. Burant, S. S. Iyengar, 
 J. Tomasi, M. Cossi, J. M. Millam, M. Klene, C. Adamo, R. Cammi, 
 J. W. Ochterski, R. L. Martin, K. Morokuma, O. Farkas, 
 J. B. Foresman, and D. J. Fox, Gaussian, Inc., Wallingford CT, 2019.
 
 ******************************************
 Gaussian 16:  ES64L-G16RevC.01  3-Jul-2019
                 9-Apr-2025 
 ******************************************
 %nprocs=16
 Will use up to   16 processors via shared memory.
 %mem=30GB
 %chk=BDE49_nonexpt_2623_mol2.chk
 ----------------------------------------------------------------------
 #t hf aug-cc-pvdz iop(5/13=1,5/36=2,99/5=2) pseudo=read geom=check gue
 ss=(read,tcheck) scf=(maxcycle=1)
 ----------------------------------------------------------------------
 -----
 title
 -----
 Structure from the checkpoint file:  "BDE49_nonexpt_2623_mol2.chk"
 Charge =  0 Multiplicity = 2
 Z-Matrix found in chk file.
 S,0,1.355136,-0.000001,-0.055917
 C,0,-0.402588,-0.000001,0.348483
 F,0,-1.043463,1.093074,-0.146524
 F,0,-1.043468,-1.093071,-0.146525
 H,0,-0.484257,-0.000001,1.44121
 Recover connectivity data from disk.
                    Distance matrix (angstroms):
                    1          2          3          4          5
     1  S    0.000000
     2  C    1.803644   0.000000
     3  F    2.637480   1.360355   0.000000
     4  F    2.637482   1.360354   2.186145   0.000000
     5  H    2.371657   1.095775   2.007093   2.007093   0.000000
 Framework group  C1[X(CHF2S)]
 Deg. of freedom     9
                         Standard orientation:                         
 ---------------------------------------------------------------------
 Center     Atomic      Atomic             Coordinates (Angstroms)
 Number     Number       Type             X           Y           Z
 ---------------------------------------------------------------------
      1         16           0        1.355136   -0.000001   -0.055917
      2          6           0       -0.402588   -0.000001    0.348483
      3          9           0       -1.043463    1.093074   -0.146524
      4          9           0       -1.043468   -1.093071   -0.146525
      5          1           0       -0.484257   -0.000001    1.441210
 ---------------------------------------------------------------------
 Rotational constants (GHZ):          10.1440988           4.7380253           3.4229979
 ======================================================================================================
                                       Pseudopotential Parameters
 ======================================================================================================
  Center     Atomic      Valence      Angular      Power
  Number     Number     Electrons     Momentum     of R      Exponent        Coefficient   SO-Coeffient
 ======================================================================================================
    1         16           16
                                      G and up 
                                                     0        0.0000010       -0.00108337    0.00000000
                                                     2        0.1200000        0.02393503    0.00000000
                                                     2        0.1400000       -0.04929246    0.00000000
                                                     2        0.2200000        0.11673929    0.00000000
                                                     2        0.3000000       -0.24406081    0.00000000
                                                     2        0.5000000        0.65938599    0.00000000
                                                     2        0.9000000       -2.67146103    0.00000000
                                                     2        1.6000000        1.72231217    0.00000000
                                      S - G
                                                     0        0.0000010       -0.00315363    0.00000000
                                                     2        0.1600000        0.09915567    0.00000000
                                                     2        0.3000000       -0.42531365    0.00000000
                                                     2        0.6000000        1.27985937    0.00000000
                                      P - G
                                                     0        0.0000010        0.05906535    0.00000000
                                                     2        0.1200000       -0.03516302    0.00000000
                                                     2        0.1600000        0.00585339    0.00000000
                                                     2        0.5000000        0.34013084    0.00000000
                                      D - G
                                                     0        0.0000010        0.03484679    0.00000000
                                                     2        0.1200000        0.00763944    0.00000000
                                                     2        0.2400000       -0.16368217    0.00000000
                                                     2        0.7000000        1.04339930    0.00000000
                                      F - G
                                                     0        0.0000010       -0.02227713    0.00000000
                                                     2        0.1200000       -0.15866626    0.00000000
                                                     2        0.1600000        0.42479417    0.00000000
                                                     2        0.2600000       -0.42884495    0.00000000
    2          6            6
                                      G and up 
                                                     0        0.0000010       -0.00011185    0.00000000
                                                     2        0.1200000       -0.02301220    0.00000000
                                                     2        0.1400000        0.13317600    0.00000000
                                                     2        0.1600000       -0.19690668    0.00000000
                                                     2        0.2200000        0.23163694    0.00000000
                                                     2        0.3000000       -0.36920489    0.00000000
                                                     2        0.4000000        0.36389709    0.00000000
                                                     2        0.7000000       -0.38862160    0.00000000
                                                     2        1.3000000        0.80803421    0.00000000
                                      S - G
                                                     0        0.0000010        0.00312304    0.00000000
                                                     2        0.1200000       -0.00632892    0.00000000
                                                     2        0.2200000       -0.03780897    0.00000000
                                                     2        0.4000000        0.26269560    0.00000000
                                                     2        0.9000000       -0.28209514    0.00000000
                                                     2        1.5000000       -0.72686737    0.00000000
                                      P - G
                                                     0        0.0000010       -0.01465594    0.00000000
                                                     2        0.1200000        0.07908409    0.00000000
                                                     2        0.1800000       -0.30615861    0.00000000
                                                     2        0.2600000        0.41506950    0.00000000
                                                     2        0.5000000       -0.36252345    0.00000000
                                                     2        0.9000000        0.15124193    0.00000000
                                                     2        3.0000000       -0.80425677    0.00000000
                                      D - G
                                                     0        0.0000010        0.01149631    0.00000000
                                                     2        0.1200000       -0.04713561    0.00000000
                                                     2        0.1600000        0.10865096    0.00000000
                                                     2        0.2800000       -0.15816701    0.00000000
                                                     2        0.7000000        0.65478804    0.00000000
                                                     2        1.3000000       -1.73816624    0.00000000
                                      F - G
                                                     0        0.0000010        0.00481868    0.00000000
                                                     2        0.1200000       -0.04746842    0.00000000
                                                     2        0.1600000        0.09327889    0.00000000
                                                     2        0.4000000       -0.19693326    0.00000000
                                                     2        0.9000000        0.34938253    0.00000000
    3          9            9
                                      G and up 
                                                     0        0.0000010        0.00013061    0.00000000
                                                     2        0.1200000        0.06713281    0.00000000
                                                     2        0.1400000       -0.24167382    0.00000000
                                                     2        0.1800000        0.63223557    0.00000000
                                                     2        0.2200000       -0.82578269    0.00000000
                                                     2        0.3000000        0.62544157    0.00000000
                                                     2        0.5000000       -0.74972011    0.00000000
                                                     2        0.8000000        1.07821461    0.00000000
                                                     2        2.5000000       -1.10703579    0.00000000
                                      S - G
                                                     0        0.0000010        0.01584301    0.00000000
                                                     2        0.1200000        0.08016155    0.00000000
                                                     2        0.1800000       -0.34633115    0.00000000
                                                     2        0.3000000        0.65132194    0.00000000
                                                     2        2.5000000       -2.36634383    0.00000000
                                      P - G
                                                     0        0.0000010        0.01590244    0.00000000
                                                     2        0.1200000       -0.11156199    0.00000000
                                                     2        0.1600000        0.22434929    0.00000000
                                                     2        0.3000000       -0.27751209    0.00000000
                                      D - G
                                                     0        0.0000010       -0.03628923    0.00000000
                                                     2        0.1200000        0.04690238    0.00000000
                                                     2        0.2600000       -0.08720270    0.00000000
                                      F - G
                                                     0        0.0000010        0.01127523    0.00000000
                                                     2        0.1400000       -0.04328550    0.00000000
                                                     2        0.2400000        0.03116441    0.00000000
                                                     2        0.4000000        0.20516616    0.00000000
    4          9            9
                                      G and up 
                                                     0        0.0000010        0.00013061    0.00000000
                                                     2        0.1200000        0.06713281    0.00000000
                                                     2        0.1400000       -0.24167382    0.00000000
                                                     2        0.1800000        0.63223557    0.00000000
                                                     2        0.2200000       -0.82578269    0.00000000
                                                     2        0.3000000        0.62544157    0.00000000
                                                     2        0.5000000       -0.74972011    0.00000000
                                                     2        0.8000000        1.07821461    0.00000000
                                                     2        2.5000000       -1.10703579    0.00000000
                                      S - G
                                                     0        0.0000010        0.01584301    0.00000000
                                                     2        0.1200000        0.08016155    0.00000000
                                                     2        0.1800000       -0.34633115    0.00000000
                                                     2        0.3000000        0.65132194    0.00000000
                                                     2        2.5000000       -2.36634383    0.00000000
                                      P - G
                                                     0        0.0000010        0.01590244    0.00000000
                                                     2        0.1200000       -0.11156199    0.00000000
                                                     2        0.1600000        0.22434929    0.00000000
                                                     2        0.3000000       -0.27751209    0.00000000
                                      D - G
                                                     0        0.0000010       -0.03628923    0.00000000
                                                     2        0.1200000        0.04690238    0.00000000
                                                     2        0.2600000       -0.08720270    0.00000000
                                      F - G
                                                     0        0.0000010        0.01127523    0.00000000
                                                     2        0.1400000       -0.04328550    0.00000000
                                                     2        0.2400000        0.03116441    0.00000000
                                                     2        0.4000000        0.20516616    0.00000000
    5          1            1
                                      F and up 
                                                     0        0.0000010       -0.00000699    0.00000000
                                                     2        0.1200000        0.00123686    0.00000000
                                                     2        0.1800000       -0.00752022    0.00000000
                                                     2        0.2600000        0.02503380    0.00000000
                                                     2        0.4000000       -0.08702670    0.00000000
                                                     2        0.6000000        0.30134159    0.00000000
                                                     2        0.8000000       -0.50204959    0.00000000
                                                     2        1.2000000        0.52208372    0.00000000
                                      S - F
                                                     0        0.0000010       -0.01618346    0.00000000
                                                     2        0.1200000       -0.07880581    0.00000000
                                                     2        0.1600000        0.32040539    0.00000000
                                                     2        0.2400000       -0.47500956    0.00000000
                                                     2        0.5000000        0.54013668    0.00000000
                                                     2        1.5000000       -1.40434292    0.00000000
                                                     2        3.0000000        1.46283806    0.00000000
                                      P - F
                                                     0        0.0000010        0.00612970    0.00000000
                                                     2        0.1200000        0.02254406    0.00000000
                                                     2        0.1800000       -0.13874529    0.00000000
                                                     2        0.3000000        0.38299049    0.00000000
                                                     2        0.5000000       -0.57923512    0.00000000
                                                     2        1.0000000        0.63021625    0.00000000
                                                     2        2.0000000       -0.79201034    0.00000000
                                      D - F
                                                     0        0.0000010       -0.00296226    0.00000000
                                                     2        0.1200000       -0.00547344    0.00000000
                                                     2        0.1400000        0.01837884    0.00000000
                                                     2        0.2400000       -0.05565704    0.00000000
                                                     2        0.4000000        0.15376597    0.00000000
                                                     2        0.8000000       -0.32464795    0.00000000
 ======================================================================================================
   105 basis functions,   221 primitive gaussians,   113 cartesian basis functions
    21 alpha electrons       20 beta electrons
       nuclear repulsion energy       158.7814113027 Hartrees.
 NAtoms=    5 NActive=    5 NUniq=    5 SFac= 1.00D+00 NAtFMM=   60 NAOKFM=F Big=F
   1 Symmetry operations used in ECPInt.
 ECPInt:  NShTT=     946 NPrTT=    7400 LenC2=     945 LenP2D=    5599.
 LDataN:  DoStor=T MaxTD1= 6 Len=  172
 Initial guess from the checkpoint file:  "BDE49_nonexpt_2623_mol2.chk"
 B after Tr=    -0.000001   -0.000000    0.000000
         Rot=    1.000000   -0.000000   -0.000000    0.000000 Ang=   0.00 deg.
 Initial guess <Sx>= 0.0000 <Sy>= 0.0000 <Sz>= 0.5000 <S**2>= 0.7617 S= 0.5058
 >>>>>>>>>> Convergence criterion not met.
 SCF Done:  E(UHF) =  -634.959007518     A.U. after    2 cycles
            NFock=  1  Conv=0.57D-02     -V/T= 1.9989
 <Sx>= 0.0000 <Sy>= 0.0000 <Sz>= 0.5000 <S**2>= 0.7621 S= 0.5060
 <L.S>=  0.00000000000    
 Annihilation of the first spin contaminant:
 S**2 before annihilation     0.7621,   after     0.7500

 **********************************************************************

            Population analysis using the SCF Density.

 **********************************************************************

 Orbital symmetries:
 Alpha Orbitals:
       Occupied  (A) (A) (A) (A) (A) (A) (A) (A) (A) (A) (A) (A)
                 (A) (A) (A) (A) (A) (A) (A) (A) (A)
       Virtual   (A) (A) (A) (A) (A) (A) (A) (A) (A) (A) (A) (A)
                 (A) (A) (A) (A) (A) (A) (A) (A) (A) (A) (A) (A)
                 (A) (A) (A) (A) (A) (A) (A) (A) (A) (A) (A) (A)
                 (A) (A) (A) (A) (A) (A) (A) (A) (A) (A) (A) (A)
                 (A) (A) (A) (A) (A) (A) (A) (A) (A) (A) (A) (A)
                 (A) (A) (A) (A) (A) (A) (A) (A) (A) (A) (A) (A)
                 (A) (A) (A) (A) (A) (A) (A) (A) (A) (A) (A) (A)
 Beta  Orbitals:
       Occupied  (A) (A) (A) (A) (A) (A) (A) (A) (A) (A) (A) (A)
                 (A) (A) (A) (A) (A) (A) (A) (A)
       Virtual   (A) (A) (A) (A) (A) (A) (A) (A) (A) (A) (A) (A)
                 (A) (A) (A) (A) (A) (A) (A) (A) (A) (A) (A) (A)
                 (A) (A) (A) (A) (A) (A) (A) (A) (A) (A) (A) (A)
                 (A) (A) (A) (A) (A) (A) (A) (A) (A) (A) (A) (A)
                 (A) (A) (A) (A) (A) (A) (A) (A) (A) (A) (A) (A)
                 (A) (A) (A) (A) (A) (A) (A) (A) (A) (A) (A) (A)
                 (A) (A) (A) (A) (A) (A) (A) (A) (A) (A) (A) (A)
                 (A)
 The electronic state is 2-A.
 Alpha  occ. eigenvalues --  -93.59166 -26.15700 -26.15690 -11.47062  -8.88996
 Alpha  occ. eigenvalues --   -6.24320  -6.22636  -6.22146  -1.72236  -1.67586
 Alpha  occ. eigenvalues --   -1.08132  -0.94165  -0.84340  -0.83331  -0.78833
 Alpha  occ. eigenvalues --   -0.74784  -0.71428  -0.67210  -0.53096  -0.47961
 Alpha  occ. eigenvalues --   -0.42254
 Alpha virt. eigenvalues --    0.03645   0.06673   0.09635   0.10047   0.11082
 Alpha virt. eigenvalues --    0.12391   0.12758   0.15605   0.21318   0.23172
 Alpha virt. eigenvalues --    0.24157   0.24480   0.26644   0.27877   0.30355
 Alpha virt. eigenvalues --    0.32606   0.33243   0.35507   0.35971   0.36629
 Alpha virt. eigenvalues --    0.37660   0.43647   0.46002   0.48609   0.49288
 Alpha virt. eigenvalues --    0.50482   0.56472   0.57453   0.58734   0.61722
 Alpha virt. eigenvalues --    0.68092   0.75275   0.75679   0.76108   0.86251
 Alpha virt. eigenvalues --    0.87582   0.89155   0.90753   0.97001   1.02504
 Alpha virt. eigenvalues --    1.07501   1.08620   1.11264   1.16785   1.19448
 Alpha virt. eigenvalues --    1.21545   1.35741   1.40119   1.48186   1.49391
 Alpha virt. eigenvalues --    1.50238   1.53107   1.56548   1.59449   1.66500
 Alpha virt. eigenvalues --    1.69101   1.71510   1.79917   1.80596   1.87523
 Alpha virt. eigenvalues --    1.91384   1.96782   2.04532   2.14650   2.18490
 Alpha virt. eigenvalues --    2.20373   2.30250   2.39160   2.42521   2.60630
 Alpha virt. eigenvalues --    2.64828   2.78501   3.33535   3.48530   4.91666
 Alpha virt. eigenvalues --    4.92021   4.92343   4.94850   4.96881   5.02023
 Alpha virt. eigenvalues --    5.03955   5.05138   5.06040   5.19504
  Beta  occ. eigenvalues --  -93.58254 -26.15673 -26.15663 -11.47204  -8.87981
  Beta  occ. eigenvalues --   -6.22110  -6.21594  -6.20298  -1.72134  -1.67482
  Beta  occ. eigenvalues --   -1.05249  -0.89633  -0.83956  -0.83177  -0.76810
  Beta  occ. eigenvalues --   -0.74812  -0.71369  -0.65910  -0.51596  -0.39891
  Beta virt. eigenvalues --   -0.01856   0.03720   0.06886   0.10099   0.10296
  Beta virt. eigenvalues --    0.11561   0.12842   0.14035   0.15939   0.22597
  Beta virt. eigenvalues --    0.23575   0.24667   0.25117   0.26689   0.30443
  Beta virt. eigenvalues --    0.30674   0.32968   0.34093   0.36062   0.36173
  Beta virt. eigenvalues --    0.39833   0.40041   0.43784   0.46723   0.49321
  Beta virt. eigenvalues --    0.50835   0.51107   0.57375   0.57745   0.60105
  Beta virt. eigenvalues --    0.62606   0.68289   0.75575   0.76405   0.77393
  Beta virt. eigenvalues --    0.86880   0.89853   0.90942   0.93197   0.97164
  Beta virt. eigenvalues --    1.04092   1.10206   1.13613   1.14392   1.20310
  Beta virt. eigenvalues --    1.20369   1.23098   1.36144   1.40137   1.48862
  Beta virt. eigenvalues --    1.49416   1.50281   1.53762   1.56826   1.59477
  Beta virt. eigenvalues --    1.66556   1.69172   1.71745   1.80080   1.80700
  Beta virt. eigenvalues --    1.87603   1.91422   1.96779   2.04935   2.14676
  Beta virt. eigenvalues --    2.18626   2.20754   2.30435   2.39232   2.42780
  Beta virt. eigenvalues --    2.60659   2.64893   2.78704   3.33591   3.48591
  Beta virt. eigenvalues --    4.91674   4.92077   4.92344   4.94856   4.96898
  Beta virt. eigenvalues --    5.02080   5.04024   5.05210   5.06114   5.19570
          Condensed to atoms (all electrons):
          Atomic-Atomic Spin Densities.
 Mulliken charges and spin densities:
               1          2
     1  S    0.244337   1.073979
     2  C    0.536180  -0.086111
     3  F   -0.325329   0.000069
     4  F   -0.325327   0.000069
     5  H   -0.129861   0.011994
 Sum of Mulliken charges =  -0.00000   1.00000
 Mulliken charges and spin densities with hydrogens summed into heavy atoms:
               1          2
     1  S    0.244337   1.073979
     2  C    0.406319  -0.074117
     3  F   -0.325329   0.000069
     4  F   -0.325327   0.000069
 Electronic spatial extent (au):  <R**2>=            332.2662
 Charge=             -0.0000 electrons
 Dipole moment (field-independent basis, Debye):
    X=              1.1310    Y=             -0.0000    Z=              1.6034  Tot=              1.9622
                          Isotropic Fermi Contact Couplings
        Atom                 a.u.       MegaHertz       Gauss      10(-4) cm-1
     1  S(33)              0.19448      66.79858      23.83539      22.28161
     2  C(13)             -0.02541     -28.57105     -10.19486      -9.53028
     3  F(19)              0.00584      24.55923       8.76334       8.19208
     4  F(19)              0.00584      24.55823       8.76299       8.19174
     5  H(1)               0.00891      39.84393      14.21730      13.29050
 --------------------------------------------------------
       Center         ----  Spin Dipole Couplings  ----
                      3XX-RR        3YY-RR        3ZZ-RR
 --------------------------------------------------------
     1   Atom       -2.133438     -2.305093      4.438531
     2   Atom        0.002323     -0.002981      0.000657
     3   Atom       -0.004073      0.024059     -0.019986
     4   Atom       -0.004073      0.024058     -0.019985
     5   Atom        0.012009     -0.010305     -0.001704
 --------------------------------------------------------
                        XY            XZ            YZ
 --------------------------------------------------------
     1   Atom       -0.000006      1.265212     -0.000033
     2   Atom        0.000000      0.001775      0.000000
     3   Atom       -0.035555      0.012534     -0.016983
     4   Atom        0.035554      0.012534      0.016983
     5   Atom       -0.000000     -0.007128     -0.000000
 --------------------------------------------------------


 ---------------------------------------------------------------------------------
              Anisotropic Spin Dipole Couplings in Principal Axis System
 ---------------------------------------------------------------------------------

       Atom             a.u.   MegaHertz   Gauss  10(-4) cm-1        Axes

              Baa    -2.3686   -97.110   -34.651   -32.393  0.9832 -0.0000 -0.1827
     1 S(33)  Bbb    -2.3051   -94.507   -33.722   -31.524  0.0000  1.0000  0.0000
              Bcc     4.6737   191.617    68.374    63.917  0.1827 -0.0000  0.9832
 
              Baa    -0.0030    -0.400    -0.143    -0.133 -0.0000  1.0000  0.0000
     2 C(13)  Bbb    -0.0005    -0.063    -0.023    -0.021 -0.5363 -0.0000  0.8440
              Bcc     0.0035     0.463     0.165     0.154  0.8440  0.0000  0.5363
 
              Baa    -0.0285   -14.309    -5.106    -4.773  0.8337  0.4709 -0.2884
     3 F(19)  Bbb    -0.0257   -12.924    -4.612    -4.311  0.1002  0.3845  0.9177
              Bcc     0.0542    27.233     9.717     9.084 -0.5430  0.7940 -0.2734
 
              Baa    -0.0285   -14.308    -5.106    -4.773  0.8337 -0.4709 -0.2884
     4 F(19)  Bbb    -0.0257   -12.924    -4.612    -4.311  0.1002 -0.3846  0.9176
              Bcc     0.0542    27.232     9.717     9.084  0.5430  0.7940  0.2734
 
              Baa    -0.0103    -5.498    -1.962    -1.834  0.0000  1.0000  0.0000
     5 H(1)   Bbb    -0.0047    -2.528    -0.902    -0.843  0.3916 -0.0000  0.9201
              Bcc     0.0150     8.026     2.864     2.677  0.9201 -0.0000 -0.3916
 

 ---------------------------------------------------------------------------------


 Test job not archived.
 1\1\GINC-SE102\SP\UHF\Aug-CC-pVDZ\C1H1F2S1(2)\OHZDE\09-Apr-2025\0\\#t 
 hf aug-cc-pvdz iop(5/13=1,5/36=2,99/5=2) pseudo=read geom=check guess=
 (read,tcheck) scf=(maxcycle=1)\\title\\0,2\S,0,1.355136,-0.000001,-0.0
 55917\C,0,-0.402588,-0.000001,0.348483\F,0,-1.043463,1.093074,-0.14652
 4\F,0,-1.043468,-1.093071,-0.146525\H,0,-0.484257,-0.000001,1.44121\\V
 ersion=ES64L-G16RevC.01\State=2-A\HF=-634.9590075\S2=0.762129\S2-1=0.\
 S2A=0.750036\RMSD=5.708e-03\Dipole=0.4449642,-0.0000035,0.6308382\Quad
 rupole=-0.4009104,-2.5716397,2.9725501,0.0000035,-0.9223205,-0.0000109
 \PG=C01 [X(C1H1F2S1)]\\@


 ALL MEN WHO EXPLORE
 DEPLORE
 THAT FRUSTRATING HURDLE
 THE GIRDLE.

         -- COLIN FLETCHER
 Job cpu time:       0 days  0 hours  0 minutes 14.3 seconds.
 Elapsed time:       0 days  0 hours  0 minutes  1.7 seconds.
 File lengths (MBytes):  RWF=      6 Int=      0 D2E=      0 Chk=      3 Scr=      1
 Normal termination of Gaussian 16 at Wed Apr  9 00:19:07 2025.
