 Entering Gaussian System, Link 0=g16
 Input=BDE49_nonexpt_1070_mol1.gjf
 Output=BDE49_nonexpt_1070_mol1.log
 Initial command:
 /arc/software/Gaussian/g16.c01/l1.exe "/tmp/slurm/4843953/Gau-1565209.inp" -scrdir="/tmp/slurm/4843953/"
 Entering Link 1 = /arc/software/Gaussian/g16.c01/l1.exe PID=   1565227.
  
 Copyright (c) 1988-2019, Gaussian, Inc.  All Rights Reserved.
  
 This is part of the Gaussian(R) 16 program.  It is based on
 the Gaussian(R) 09 system (copyright 2009, Gaussian, Inc.),
 the Gaussian(R) 03 system (copyright 2003, Gaussian, Inc.),
 the Gaussian(R) 98 system (copyright 1998, Gaussian, Inc.),
 the Gaussian(R) 94 system (copyright 1995, Gaussian, Inc.),
 the Gaussian 92(TM) system (copyright 1992, Gaussian, Inc.),
 the Gaussian 90(TM) system (copyright 1990, Gaussian, Inc.),
 the Gaussian 88(TM) system (copyright 1988, Gaussian, Inc.),
 the Gaussian 86(TM) system (copyright 1986, Carnegie Mellon
 University), and the Gaussian 82(TM) system (copyright 1983,
 Carnegie Mellon University). Gaussian is a federally registered
 trademark of Gaussian, Inc.
  
 This software contains proprietary and confidential information,
 including trade secrets, belonging to Gaussian, Inc.
  
 This software is provided under written license and may be
 used, copied, transmitted, or stored only in accord with that
 written license.
  
 The following legend is applicable only to US Government
 contracts under FAR:
  
                    RESTRICTED RIGHTS LEGEND
  
 Use, reproduction and disclosure by the US Government is
 subject to restrictions as set forth in subparagraphs (a)
 and (c) of the Commercial Computer Software - Restricted
 Rights clause in FAR 52.227-19.
  
 Gaussian, Inc.
 340 Quinnipiac St., Bldg. 40, Wallingford CT 06492
  
  
 ---------------------------------------------------------------
 Warning -- This program may not be used in any manner that
 competes with the business of Gaussian, Inc. or will provide
 assistance to any competitor of Gaussian, Inc.  The licensee
 of this program is prohibited from giving any competitor of
 Gaussian, Inc. access to this program.  By using this program,
 the user acknowledges that Gaussian, Inc. is engaged in the
 business of creating and licensing software in the field of
 computational chemistry and represents and warrants to the
 licensee that it is not a competitor of Gaussian, Inc. and that
 it will not use this program in any manner prohibited above.
 ---------------------------------------------------------------
  

 Cite this work as:
 Gaussian 16, Revision C.01,
 M. J. Frisch, G. W. Trucks, H. B. Schlegel, G. E. Scuseria, 
 M. A. Robb, J. R. Cheeseman, G. Scalmani, V. Barone, 
 G. A. Petersson, H. Nakatsuji, X. Li, M. Caricato, A. V. Marenich, 
 J. Bloino, B. G. Janesko, R. Gomperts, B. Mennucci, H. P. Hratchian, 
 J. V. Ortiz, A. F. Izmaylov, J. L. Sonnenberg, D. Williams-Young, 
 F. Ding, F. Lipparini, F. Egidi, J. Goings, B. Peng, A. Petrone, 
 T. Henderson, D. Ranasinghe, V. G. Zakrzewski, J. Gao, N. Rega, 
 G. Zheng, W. Liang, M. Hada, M. Ehara, K. Toyota, R. Fukuda, 
 J. Hasegawa, M. Ishida, T. Nakajima, Y. Honda, O. Kitao, H. Nakai, 
 T. Vreven, K. Throssell, J. A. Montgomery, Jr., J. E. Peralta, 
 F. Ogliaro, M. J. Bearpark, J. J. Heyd, E. N. Brothers, K. N. Kudin, 
 V. N. Staroverov, T. A. Keith, R. Kobayashi, J. Normand, 
 K. Raghavachari, A. P. Rendell, J. C. Burant, S. S. Iyengar, 
 J. Tomasi, M. Cossi, J. M. Millam, M. Klene, C. Adamo, R. Cammi, 
 J. W. Ochterski, R. L. Martin, K. Morokuma, O. Farkas, 
 J. B. Foresman, and D. J. Fox, Gaussian, Inc., Wallingford CT, 2019.
 
 ******************************************
 Gaussian 16:  ES64L-G16RevC.01  3-Jul-2019
                 8-Apr-2025 
 ******************************************
 %nprocs=16
 Will use up to   16 processors via shared memory.
 %mem=30GB
 %chk=BDE49_nonexpt_1070_mol1.chk
 ----------------------------------------------------------------------
 #t hf aug-cc-pvdz symm=none int=(grid=ultrafine) guess=(read,tcheck) s
 table=(opt,rrhf)
 ----------------------------------------------------------------------
 -----
 title
 -----
 Symbolic Z-matrix:
 Charge =  0 Multiplicity = 1
 Cl                    2.87905  -0.12875  -0.13385 
 O                     1.25947  -0.72434  -0.24786 
 C                     0.32309   0.1338    0.26406 
 O                     0.48969   1.21335   0.71603 
 O                    -0.83817  -0.57721   0.18142 
 C                    -2.03547   0.09215  -0.16829 
 O                    -2.04531   1.15721  -0.68974 
 C                    -3.19636  -0.78457   0.19268 
 H                    -3.22709  -0.91911   1.2765 
 H                    -3.07229  -1.77145  -0.25716 
 H                    -4.11732  -0.32105  -0.15339 
 
                    Distance matrix (angstroms):
                    1          2          3          4          5
     1  Cl   0.000000
     2  O    1.729379   0.000000
     3  C    2.600037   1.369408   0.000000
     4  O    2.869244   2.297018   1.182144   0.000000
     5  O    3.757424   2.146168   1.364145   2.292409   0.000000
     6  C    4.919599   3.395530   2.398216   2.900953   1.415579
     7  O    5.119762   3.828454   2.750705   2.899232   2.285677
     8  C    6.119415   4.477957   3.637990   4.225222   2.367309
     9  H    6.316534   4.742445   3.838929   4.321562   2.650092
    10  H    6.175114   4.456529   3.928129   4.748030   2.570956
    11  H    6.999034   5.392720   4.483118   4.933031   3.306132
                    6          7          8          9         10
     6  C    0.000000
     7  O    1.185900   0.000000
     8  C    1.498863   2.423649   0.000000
     9  H    2.128378   3.094151   1.092569   0.000000
    10  H    2.134455   3.133508   1.091641   1.761403   0.000000
    11  H    2.122511   2.601184   1.087557   1.787391   1.790672
                   11
    11  H    0.000000
 Symmetry turned off by external request.
 Rotational constants (GHZ):           5.4862988           0.8046119           0.7457544
   215 basis functions,   415 primitive gaussians,   231 cartesian basis functions
    35 alpha electrons       35 beta electrons
       nuclear repulsion energy       438.2147267143 Hartrees.
 NAtoms=   11 NActive=   11 NUniq=   11 SFac= 1.00D+00 NAtFMM=   60 NAOKFM=F Big=F
 ExpMin= 2.97D-02 ExpMax= 1.28D+05 ExpMxC= 1.24D+03 IAcc=3 IRadAn=         5 AccDes= 0.00D+00
 Harris functional with IExCor=  205 and IRadAn=       5 diagonalized for initial guess.
 HarFok:  IExCor=  205 AccDes= 0.00D+00 IRadAn=         5 IDoV= 1 UseB2=F ITyADJ=14
 ICtDFT=  3500011 ScaDFX=  1.000000  1.000000  1.000000  1.000000
 FoFCou: FMM=F IPFlag=           0 FMFlag=      100000 FMFlg1=           0
         NFxFlg=           0 DoJE=T BraDBF=F KetDBF=T FulRan=T
         wScrn=  0.000000 ICntrl=       500 IOpCl=  0 I1Cent=   200000004 NGrid=           0
         NMat0=    1 NMatS0=      1 NMatT0=    0 NMatD0=    1 NMtDS0=    0 NMtDT0=    0
 Symmetry not used in FoFCou.
 SCF Done:  E(RHF) =  -874.315836001     A.U. after   15 cycles
            NFock= 15  Conv=0.50D-08     -V/T= 2.0009

 **********************************************************************

            Population analysis using the SCF Density.

 **********************************************************************

 Alpha  occ. eigenvalues -- -104.91919 -20.69863 -20.66283 -20.59887 -20.59767
 Alpha  occ. eigenvalues --  -11.48273 -11.43276 -11.27617 -10.63844  -8.10663
 Alpha  occ. eigenvalues --   -8.10150  -8.10139  -1.55142  -1.47425  -1.42182
 Alpha  occ. eigenvalues --   -1.40874  -1.11403  -1.05668  -0.91066  -0.79530
 Alpha  occ. eigenvalues --   -0.75878  -0.73340  -0.72770  -0.67752  -0.66365
 Alpha  occ. eigenvalues --   -0.64058  -0.61623  -0.60002  -0.58282  -0.54930
 Alpha  occ. eigenvalues --   -0.51342  -0.50906  -0.49341  -0.48450  -0.47106
 Alpha virt. eigenvalues --    0.02888   0.04492   0.05224   0.05450   0.07077
 Alpha virt. eigenvalues --    0.09018   0.10252   0.11185   0.12239   0.12890
 Alpha virt. eigenvalues --    0.13645   0.14033   0.14280   0.14737   0.15063
 Alpha virt. eigenvalues --    0.17268   0.17655   0.17843   0.19181   0.20762
 Alpha virt. eigenvalues --    0.21282   0.22156   0.24085   0.24457   0.26563
 Alpha virt. eigenvalues --    0.27032   0.29421   0.30506   0.30876   0.32206
 Alpha virt. eigenvalues --    0.32322   0.33025   0.33316   0.34120   0.34805
 Alpha virt. eigenvalues --    0.36417   0.37835   0.38871   0.40098   0.41345
 Alpha virt. eigenvalues --    0.42451   0.43510   0.44453   0.45601   0.46897
 Alpha virt. eigenvalues --    0.47153   0.49605   0.50276   0.50755   0.51752
 Alpha virt. eigenvalues --    0.53388   0.54564   0.55623   0.56323   0.56999
 Alpha virt. eigenvalues --    0.58455   0.59597   0.62614   0.64248   0.64407
 Alpha virt. eigenvalues --    0.65590   0.67334   0.68078   0.69557   0.70116
 Alpha virt. eigenvalues --    0.71318   0.73086   0.73633   0.75938   0.79802
 Alpha virt. eigenvalues --    0.80580   0.81399   0.84585   0.85022   0.89278
 Alpha virt. eigenvalues --    0.90464   0.91909   0.92984   0.95609   0.96171
 Alpha virt. eigenvalues --    0.97543   0.99664   1.04366   1.05800   1.07682
 Alpha virt. eigenvalues --    1.10042   1.11259   1.11566   1.12568   1.14846
 Alpha virt. eigenvalues --    1.15710   1.19144   1.20699   1.21790   1.22272
 Alpha virt. eigenvalues --    1.24322   1.28536   1.29604   1.31583   1.32195
 Alpha virt. eigenvalues --    1.34617   1.35508   1.38276   1.39250   1.40934
 Alpha virt. eigenvalues --    1.41490   1.43351   1.44898   1.45796   1.47738
 Alpha virt. eigenvalues --    1.49657   1.51429   1.54412   1.56137   1.60225
 Alpha virt. eigenvalues --    1.62567   1.67234   1.68658   1.72510   1.74989
 Alpha virt. eigenvalues --    1.78094   1.80344   1.81140   1.84124   1.85539
 Alpha virt. eigenvalues --    1.87268   1.88225   1.96326   1.97692   1.98012
 Alpha virt. eigenvalues --    2.01647   2.02836   2.07427   2.11325   2.17136
 Alpha virt. eigenvalues --    2.17809   2.21407   2.22281   2.24597   2.28663
 Alpha virt. eigenvalues --    2.32300   2.36508   2.38581   2.42917   2.52631
 Alpha virt. eigenvalues --    2.54321   2.57626   2.61956   2.63652   2.66186
 Alpha virt. eigenvalues --    2.79536   2.81277   2.86389   2.92510   2.95372
 Alpha virt. eigenvalues --    3.03069   3.08254   3.21829   3.28569   3.37761
 Alpha virt. eigenvalues --    3.61813   3.67345   3.68106   3.69287   3.72682
 Alpha virt. eigenvalues --    3.74646   3.75890   3.76716   3.78159   3.78683
 Alpha virt. eigenvalues --    3.80949   3.83941   3.86668   3.89800   3.98456
 Alpha virt. eigenvalues --    4.05692   4.08414   4.13799   4.22006   4.29442
          Condensed to atoms (all electrons):
 Mulliken charges:
               1
     1  Cl   0.387085
     2  O   -0.828547
     3  C    1.243674
     4  O   -0.492960
     5  O   -0.814449
     6  C    0.732766
     7  O   -0.607857
     8  C    0.277507
     9  H    0.048622
    10  H    0.053432
    11  H    0.000728
 Sum of Mulliken charges =  -0.00000
 Mulliken charges with hydrogens summed into heavy atoms:
               1
     1  Cl   0.387085
     2  O   -0.828547
     3  C    1.243674
     4  O   -0.492960
     5  O   -0.814449
     6  C    0.732766
     7  O   -0.607857
     8  C    0.380289
 Electronic spatial extent (au):  <R**2>=           1422.0580
 Charge=             -0.0000 electrons
 Dipole moment (field-independent basis, Debye):
    X=             -1.6601    Y=             -3.0591    Z=              0.5024  Tot=              3.5166
 NROrb=    215 NOA=    35 NOB=    35 NVA=   180 NVB=   180

 **** Warning!!: The largest alpha MO coefficient is  0.35031038D+02

    12 initial guesses have been made.
 Iteration     1 Dimension    12 NMult     0 NNew     12
 Iteration     2 Dimension    24 NMult    12 NNew     12
 Iteration     3 Dimension    27 NMult    24 NNew      3
 Iteration     4 Dimension    30 NMult    27 NNew      3
 Iteration     5 Dimension    33 NMult    30 NNew      3
 Iteration     6 Dimension    36 NMult    33 NNew      3
 ***********************************************************************
 Stability analysis using <AA,BB:AA,BB> singles matrix:
 ***********************************************************************
 Ground to excited state transition densities written to RWF  633

 Eigenvectors of the stability matrix:
 
 Excited state symmetry could not be determined.
 Eigenvector   1:      Singlet-?Sym  Eigenvalue= 0.1837418  <S**2>=0.000
      34 -> 37        -0.18458
      35 -> 36        -0.12186
      35 -> 37         0.52975
      35 -> 38         0.12565
      35 -> 41         0.18020
      35 -> 47        -0.17960
 The wavefunction is stable under the perturbations considered.
 The wavefunction is already stable.

 **********************************************************************

            Population analysis using the SCF Density.

 **********************************************************************

 Alpha  occ. eigenvalues -- -104.91919 -20.69863 -20.66283 -20.59887 -20.59767
 Alpha  occ. eigenvalues --  -11.48273 -11.43276 -11.27617 -10.63844  -8.10663
 Alpha  occ. eigenvalues --   -8.10150  -8.10139  -1.55142  -1.47425  -1.42182
 Alpha  occ. eigenvalues --   -1.40874  -1.11403  -1.05668  -0.91066  -0.79530
 Alpha  occ. eigenvalues --   -0.75878  -0.73340  -0.72770  -0.67752  -0.66365
 Alpha  occ. eigenvalues --   -0.64058  -0.61623  -0.60002  -0.58282  -0.54930
 Alpha  occ. eigenvalues --   -0.51342  -0.50906  -0.49341  -0.48450  -0.47106
 Alpha virt. eigenvalues --    0.02888   0.04492   0.05224   0.05450   0.07077
 Alpha virt. eigenvalues --    0.09018   0.10252   0.11185   0.12239   0.12890
 Alpha virt. eigenvalues --    0.13645   0.14033   0.14280   0.14737   0.15063
 Alpha virt. eigenvalues --    0.17268   0.17655   0.17843   0.19181   0.20762
 Alpha virt. eigenvalues --    0.21282   0.22156   0.24085   0.24457   0.26563
 Alpha virt. eigenvalues --    0.27032   0.29421   0.30506   0.30876   0.32206
 Alpha virt. eigenvalues --    0.32322   0.33025   0.33316   0.34120   0.34805
 Alpha virt. eigenvalues --    0.36417   0.37835   0.38871   0.40098   0.41345
 Alpha virt. eigenvalues --    0.42451   0.43510   0.44453   0.45601   0.46897
 Alpha virt. eigenvalues --    0.47153   0.49605   0.50276   0.50755   0.51752
 Alpha virt. eigenvalues --    0.53388   0.54564   0.55623   0.56323   0.56999
 Alpha virt. eigenvalues --    0.58455   0.59597   0.62614   0.64248   0.64407
 Alpha virt. eigenvalues --    0.65590   0.67334   0.68078   0.69557   0.70116
 Alpha virt. eigenvalues --    0.71318   0.73086   0.73633   0.75938   0.79802
 Alpha virt. eigenvalues --    0.80580   0.81399   0.84585   0.85022   0.89278
 Alpha virt. eigenvalues --    0.90464   0.91909   0.92984   0.95609   0.96171
 Alpha virt. eigenvalues --    0.97543   0.99664   1.04366   1.05800   1.07682
 Alpha virt. eigenvalues --    1.10042   1.11259   1.11566   1.12568   1.14846
 Alpha virt. eigenvalues --    1.15710   1.19144   1.20699   1.21790   1.22272
 Alpha virt. eigenvalues --    1.24322   1.28536   1.29604   1.31583   1.32195
 Alpha virt. eigenvalues --    1.34617   1.35508   1.38276   1.39250   1.40934
 Alpha virt. eigenvalues --    1.41490   1.43351   1.44898   1.45796   1.47738
 Alpha virt. eigenvalues --    1.49657   1.51429   1.54412   1.56137   1.60225
 Alpha virt. eigenvalues --    1.62567   1.67234   1.68658   1.72510   1.74989
 Alpha virt. eigenvalues --    1.78094   1.80344   1.81140   1.84124   1.85539
 Alpha virt. eigenvalues --    1.87268   1.88225   1.96326   1.97692   1.98012
 Alpha virt. eigenvalues --    2.01647   2.02836   2.07427   2.11325   2.17136
 Alpha virt. eigenvalues --    2.17809   2.21407   2.22281   2.24597   2.28663
 Alpha virt. eigenvalues --    2.32300   2.36508   2.38581   2.42917   2.52631
 Alpha virt. eigenvalues --    2.54321   2.57626   2.61956   2.63652   2.66186
 Alpha virt. eigenvalues --    2.79536   2.81277   2.86389   2.92510   2.95372
 Alpha virt. eigenvalues --    3.03069   3.08254   3.21829   3.28569   3.37761
 Alpha virt. eigenvalues --    3.61813   3.67345   3.68106   3.69287   3.72682
 Alpha virt. eigenvalues --    3.74646   3.75890   3.76716   3.78159   3.78683
 Alpha virt. eigenvalues --    3.80949   3.83941   3.86668   3.89800   3.98456
 Alpha virt. eigenvalues --    4.05692   4.08414   4.13799   4.22006   4.29442
          Condensed to atoms (all electrons):
 Mulliken charges:
               1
     1  Cl   0.387085
     2  O   -0.828547
     3  C    1.243674
     4  O   -0.492960
     5  O   -0.814449
     6  C    0.732766
     7  O   -0.607857
     8  C    0.277507
     9  H    0.048622
    10  H    0.053432
    11  H    0.000728
 Sum of Mulliken charges =  -0.00000
 Mulliken charges with hydrogens summed into heavy atoms:
               1
     1  Cl   0.387085
     2  O   -0.828547
     3  C    1.243674
     4  O   -0.492960
     5  O   -0.814449
     6  C    0.732766
     7  O   -0.607857
     8  C    0.380289
 Electronic spatial extent (au):  <R**2>=           1422.0580
 Charge=             -0.0000 electrons
 Dipole moment (field-independent basis, Debye):
    X=             -1.6601    Y=             -3.0591    Z=              0.5024  Tot=              3.5166
 Unable to Open any file for archive entry.
 1\1\GINC-SE435\Stability\RHF\Aug-CC-pVDZ\C3H3Cl1O4\OHZDE\08-Apr-2025\0
 \\#t hf aug-cc-pvdz symm=none int=(grid=ultrafine) guess=(read,tcheck)
  stable=(opt,rrhf)\\title\\0,1\Cl,0,2.879045,-0.128749,-0.133852\O,0,1
 .25947,-0.724341,-0.247858\C,0,0.323085,0.1338,0.264055\O,0,0.489687,1
 .213348,0.716034\O,0,-0.838174,-0.577214,0.181419\C,0,-2.035471,0.0921
 51,-0.168288\O,0,-2.045309,1.157212,-0.689736\C,0,-3.196358,-0.784568,
 0.192677\H,0,-3.227087,-0.919109,1.276495\H,0,-3.072288,-1.77145,-0.25
 7158\H,0,-4.117319,-0.321054,-0.153394\\Version=ES64L-G16RevC.01\HF=-8
 74.315836\RMSD=5.045e-09\Dipole=-0.6531366,-1.2035478,0.1976482\Quadru
 pole=7.5953978,-5.8300492,-1.7653486,4.5456043,-2.0374962,-0.1652529\P
 G=Unknown\\@
 The archive entry for this job was punched.


 THERE ARE PEOPLE SO ADDICTED TO EXAGERATING THEY
 CAN'T TELL THE TRUTH WITHOUT LYING. -- FORTUNE COOKIE
 Job cpu time:       0 days  0 hours  2 minutes  5.6 seconds.
 Elapsed time:       0 days  0 hours  0 minutes 15.9 seconds.
 File lengths (MBytes):  RWF=    274 Int=      0 D2E=      0 Chk=      7 Scr=      1
 Normal termination of Gaussian 16 at Tue Apr  8 23:17:02 2025.
 Initial command:
 /arc/software/Gaussian/g16.c01/l1.exe "/tmp/slurm/4843953/Gau-1565209.inp" -scrdir="/tmp/slurm/4843953/"
 Entering Link 1 = /arc/software/Gaussian/g16.c01/l1.exe PID=   1565799.
  
 Copyright (c) 1988-2019, Gaussian, Inc.  All Rights Reserved.
  
 This is part of the Gaussian(R) 16 program.  It is based on
 the Gaussian(R) 09 system (copyright 2009, Gaussian, Inc.),
 the Gaussian(R) 03 system (copyright 2003, Gaussian, Inc.),
 the Gaussian(R) 98 system (copyright 1998, Gaussian, Inc.),
 the Gaussian(R) 94 system (copyright 1995, Gaussian, Inc.),
 the Gaussian 92(TM) system (copyright 1992, Gaussian, Inc.),
 the Gaussian 90(TM) system (copyright 1990, Gaussian, Inc.),
 the Gaussian 88(TM) system (copyright 1988, Gaussian, Inc.),
 the Gaussian 86(TM) system (copyright 1986, Carnegie Mellon
 University), and the Gaussian 82(TM) system (copyright 1983,
 Carnegie Mellon University). Gaussian is a federally registered
 trademark of Gaussian, Inc.
  
 This software contains proprietary and confidential information,
 including trade secrets, belonging to Gaussian, Inc.
  
 This software is provided under written license and may be
 used, copied, transmitted, or stored only in accord with that
 written license.
  
 The following legend is applicable only to US Government
 contracts under FAR:
  
                    RESTRICTED RIGHTS LEGEND
  
 Use, reproduction and disclosure by the US Government is
 subject to restrictions as set forth in subparagraphs (a)
 and (c) of the Commercial Computer Software - Restricted
 Rights clause in FAR 52.227-19.
  
 Gaussian, Inc.
 340 Quinnipiac St., Bldg. 40, Wallingford CT 06492
  
  
 ---------------------------------------------------------------
 Warning -- This program may not be used in any manner that
 competes with the business of Gaussian, Inc. or will provide
 assistance to any competitor of Gaussian, Inc.  The licensee
 of this program is prohibited from giving any competitor of
 Gaussian, Inc. access to this program.  By using this program,
 the user acknowledges that Gaussian, Inc. is engaged in the
 business of creating and licensing software in the field of
 computational chemistry and represents and warrants to the
 licensee that it is not a competitor of Gaussian, Inc. and that
 it will not use this program in any manner prohibited above.
 ---------------------------------------------------------------
  

 Cite this work as:
 Gaussian 16, Revision C.01,
 M. J. Frisch, G. W. Trucks, H. B. Schlegel, G. E. Scuseria, 
 M. A. Robb, J. R. Cheeseman, G. Scalmani, V. Barone, 
 G. A. Petersson, H. Nakatsuji, X. Li, M. Caricato, A. V. Marenich, 
 J. Bloino, B. G. Janesko, R. Gomperts, B. Mennucci, H. P. Hratchian, 
 J. V. Ortiz, A. F. Izmaylov, J. L. Sonnenberg, D. Williams-Young, 
 F. Ding, F. Lipparini, F. Egidi, J. Goings, B. Peng, A. Petrone, 
 T. Henderson, D. Ranasinghe, V. G. Zakrzewski, J. Gao, N. Rega, 
 G. Zheng, W. Liang, M. Hada, M. Ehara, K. Toyota, R. Fukuda, 
 J. Hasegawa, M. Ishida, T. Nakajima, Y. Honda, O. Kitao, H. Nakai, 
 T. Vreven, K. Throssell, J. A. Montgomery, Jr., J. E. Peralta, 
 F. Ogliaro, M. J. Bearpark, J. J. Heyd, E. N. Brothers, K. N. Kudin, 
 V. N. Staroverov, T. A. Keith, R. Kobayashi, J. Normand, 
 K. Raghavachari, A. P. Rendell, J. C. Burant, S. S. Iyengar, 
 J. Tomasi, M. Cossi, J. M. Millam, M. Klene, C. Adamo, R. Cammi, 
 J. W. Ochterski, R. L. Martin, K. Morokuma, O. Farkas, 
 J. B. Foresman, and D. J. Fox, Gaussian, Inc., Wallingford CT, 2019.
 
 ******************************************
 Gaussian 16:  ES64L-G16RevC.01  3-Jul-2019
                 8-Apr-2025 
 ******************************************
 %nprocs=16
 Will use up to   16 processors via shared memory.
 %mem=30GB
 %chk=BDE49_nonexpt_1070_mol1.chk
 ----------------------------------------------------------------------
 #t hf aug-cc-pvdz iop(5/13=1,5/36=2,99/5=2) pseudo=read geom=check gue
 ss=(read,tcheck) scf=(maxcycle=1)
 ----------------------------------------------------------------------
 -----
 title
 -----
 Structure from the checkpoint file:  "BDE49_nonexpt_1070_mol1.chk"
 Charge =  0 Multiplicity = 1
 Z-Matrix found in chk file.
 Cl,0,2.879045,-0.128749,-0.133852
 O,0,1.25947,-0.724341,-0.247858
 C,0,0.323085,0.1338,0.264055
 O,0,0.489687,1.213348,0.716034
 O,0,-0.838174,-0.577214,0.181419
 C,0,-2.035471,0.092151,-0.168288
 O,0,-2.045309,1.157212,-0.689736
 C,0,-3.196358,-0.784568,0.192677
 H,0,-3.227087,-0.919109,1.276495
 H,0,-3.072288,-1.77145,-0.257158
 H,0,-4.117319,-0.321054,-0.153394
 Recover connectivity data from disk.
                    Distance matrix (angstroms):
                    1          2          3          4          5
     1  Cl   0.000000
     2  O    1.729379   0.000000
     3  C    2.600037   1.369408   0.000000
     4  O    2.869244   2.297018   1.182144   0.000000
     5  O    3.757424   2.146168   1.364145   2.292409   0.000000
     6  C    4.919599   3.395530   2.398216   2.900953   1.415579
     7  O    5.119762   3.828454   2.750705   2.899232   2.285677
     8  C    6.119415   4.477957   3.637990   4.225222   2.367309
     9  H    6.316534   4.742445   3.838929   4.321562   2.650092
    10  H    6.175114   4.456529   3.928129   4.748030   2.570956
    11  H    6.999034   5.392720   4.483118   4.933031   3.306132
                    6          7          8          9         10
     6  C    0.000000
     7  O    1.185900   0.000000
     8  C    1.498863   2.423649   0.000000
     9  H    2.128378   3.094151   1.092569   0.000000
    10  H    2.134455   3.133508   1.091641   1.761403   0.000000
    11  H    2.122511   2.601184   1.087557   1.787391   1.790672
                   11
    11  H    0.000000
 Framework group  C1[X(C3H3ClO4)]
 Deg. of freedom    27
                         Standard orientation:                         
 ---------------------------------------------------------------------
 Center     Atomic      Atomic             Coordinates (Angstroms)
 Number     Number       Type             X           Y           Z
 ---------------------------------------------------------------------
      1         17           0        2.879045   -0.128749   -0.133852
      2          8           0        1.259470   -0.724341   -0.247858
      3          6           0        0.323085    0.133800    0.264055
      4          8           0        0.489687    1.213348    0.716034
      5          8           0       -0.838174   -0.577214    0.181419
      6          6           0       -2.035471    0.092151   -0.168288
      7          8           0       -2.045309    1.157212   -0.689736
      8          6           0       -3.196358   -0.784568    0.192677
      9          1           0       -3.227087   -0.919109    1.276495
     10          1           0       -3.072288   -1.771450   -0.257158
     11          1           0       -4.117319   -0.321054   -0.153394
 ---------------------------------------------------------------------
 Rotational constants (GHZ):           5.4862988           0.8046119           0.7457544
 ======================================================================================================
                                       Pseudopotential Parameters
 ======================================================================================================
  Center     Atomic      Valence      Angular      Power
  Number     Number     Electrons     Momentum     of R      Exponent        Coefficient   SO-Coeffient
 ======================================================================================================
    1         17           17
                                      G and up 
                                                     0        0.0000010       -0.00005841    0.00000000
                                                     2        0.1200000       -0.00031502    0.00000000
                                                     2        0.1400000        0.00458821    0.00000000
                                                     2        0.2600000       -0.03604686    0.00000000
                                                     2        0.4000000        0.03832573    0.00000000
                                                     2        1.1000000       -0.21042623    0.00000000
                                      S - G
                                                     0        0.0000010        0.00274387    0.00000000
                                                     2        0.1800000        0.09962839    0.00000000
                                                     2        0.4000000       -0.20830181    0.00000000
                                      P - G
                                                     0        0.0000010       -0.01867126    0.00000000
                                                     2        0.1200000        0.19610675    0.00000000
                                                     2        0.1600000       -0.37005054    0.00000000
                                                     2        0.3000000        0.29573883    0.00000000
                                      D - G
                                                     0        0.0000010        0.06766179    0.00000000
                                                     2        0.1200000       -0.07333140    0.00000000
                                                     2        0.2200000        0.05439691    0.00000000
                                      F - G
                                                     0        0.0000010       -0.02719671    0.00000000
                                                     2        0.1200000       -0.06013675    0.00000000
                                                     2        0.2000000        0.35339430    0.00000000
                                                     2        0.4000000       -0.66518555    0.00000000
    2          8            8
                                      G and up 
                                                     0        0.0000010        0.00001165    0.00000000
                                                     2        0.1200000       -0.01744018    0.00000000
                                                     2        0.1400000        0.05401326    0.00000000
                                                     2        0.1800000       -0.08231208    0.00000000
                                                     2        0.2600000        0.11570222    0.00000000
                                                     2        0.4000000       -0.20630360    0.00000000
                                                     2        0.7000000        0.38074319    0.00000000
                                                     2        1.2000000       -0.17045091    0.00000000
                                                     2        2.0000000       -1.45433187    0.00000000
                                      S - G
                                                     0        0.0000010       -0.00117944    0.00000000
                                                     2        0.1400000        0.04368312    0.00000000
                                                     2        0.3000000       -0.33477926    0.00000000
                                                     2        0.6000000        1.52630657    0.00000000
                                                     2        1.5000000       -2.50804716    0.00000000
                                                     2        3.0000000        2.89751681    0.00000000
                                      P - G
                                                     0        0.0000010        0.06576007    0.00000000
                                                     2        0.1200000       -0.10329304    0.00000000
                                                     2        0.2000000        0.24891756    0.00000000
                                                     2        0.4000000       -0.50800022    0.00000000
                                                     2        0.9000000        0.81480796    0.00000000
                                      D - G
                                                     0        0.0000010       -0.14101855    0.00000000
                                                     2        0.1200000        0.22105937    0.00000000
                                                     2        0.1800000       -0.45814988    0.00000000
                                                     2        0.3000000        0.46029282    0.00000000
                                      F - G
                                                     0        0.0000010        0.07483044    0.00000000
                                                     2        0.1200000       -0.09134252    0.00000000
                                                     2        0.1400000        0.04125459    0.00000000
                                                     2        0.3000000        0.37914837    0.00000000
                                                     2        0.5000000       -0.86881279    0.00000000
    3          6            6
                                      G and up 
                                                     0        0.0000010       -0.00011185    0.00000000
                                                     2        0.1200000       -0.02301220    0.00000000
                                                     2        0.1400000        0.13317600    0.00000000
                                                     2        0.1600000       -0.19690668    0.00000000
                                                     2        0.2200000        0.23163694    0.00000000
                                                     2        0.3000000       -0.36920489    0.00000000
                                                     2        0.4000000        0.36389709    0.00000000
                                                     2        0.7000000       -0.38862160    0.00000000
                                                     2        1.3000000        0.80803421    0.00000000
                                      S - G
                                                     0        0.0000010        0.00312304    0.00000000
                                                     2        0.1200000       -0.00632892    0.00000000
                                                     2        0.2200000       -0.03780897    0.00000000
                                                     2        0.4000000        0.26269560    0.00000000
                                                     2        0.9000000       -0.28209514    0.00000000
                                                     2        1.5000000       -0.72686737    0.00000000
                                      P - G
                                                     0        0.0000010       -0.01465594    0.00000000
                                                     2        0.1200000        0.07908409    0.00000000
                                                     2        0.1800000       -0.30615861    0.00000000
                                                     2        0.2600000        0.41506950    0.00000000
                                                     2        0.5000000       -0.36252345    0.00000000
                                                     2        0.9000000        0.15124193    0.00000000
                                                     2        3.0000000       -0.80425677    0.00000000
                                      D - G
                                                     0        0.0000010        0.01149631    0.00000000
                                                     2        0.1200000       -0.04713561    0.00000000
                                                     2        0.1600000        0.10865096    0.00000000
                                                     2        0.2800000       -0.15816701    0.00000000
                                                     2        0.7000000        0.65478804    0.00000000
                                                     2        1.3000000       -1.73816624    0.00000000
                                      F - G
                                                     0        0.0000010        0.00481868    0.00000000
                                                     2        0.1200000       -0.04746842    0.00000000
                                                     2        0.1600000        0.09327889    0.00000000
                                                     2        0.4000000       -0.19693326    0.00000000
                                                     2        0.9000000        0.34938253    0.00000000
    4          8            8
                                      G and up 
                                                     0        0.0000010        0.00001165    0.00000000
                                                     2        0.1200000       -0.01744018    0.00000000
                                                     2        0.1400000        0.05401326    0.00000000
                                                     2        0.1800000       -0.08231208    0.00000000
                                                     2        0.2600000        0.11570222    0.00000000
                                                     2        0.4000000       -0.20630360    0.00000000
                                                     2        0.7000000        0.38074319    0.00000000
                                                     2        1.2000000       -0.17045091    0.00000000
                                                     2        2.0000000       -1.45433187    0.00000000
                                      S - G
                                                     0        0.0000010       -0.00117944    0.00000000
                                                     2        0.1400000        0.04368312    0.00000000
                                                     2        0.3000000       -0.33477926    0.00000000
                                                     2        0.6000000        1.52630657    0.00000000
                                                     2        1.5000000       -2.50804716    0.00000000
                                                     2        3.0000000        2.89751681    0.00000000
                                      P - G
                                                     0        0.0000010        0.06576007    0.00000000
                                                     2        0.1200000       -0.10329304    0.00000000
                                                     2        0.2000000        0.24891756    0.00000000
                                                     2        0.4000000       -0.50800022    0.00000000
                                                     2        0.9000000        0.81480796    0.00000000
                                      D - G
                                                     0        0.0000010       -0.14101855    0.00000000
                                                     2        0.1200000        0.22105937    0.00000000
                                                     2        0.1800000       -0.45814988    0.00000000
                                                     2        0.3000000        0.46029282    0.00000000
                                      F - G
                                                     0        0.0000010        0.07483044    0.00000000
                                                     2        0.1200000       -0.09134252    0.00000000
                                                     2        0.1400000        0.04125459    0.00000000
                                                     2        0.3000000        0.37914837    0.00000000
                                                     2        0.5000000       -0.86881279    0.00000000
    5          8            8
                                      G and up 
                                                     0        0.0000010        0.00001165    0.00000000
                                                     2        0.1200000       -0.01744018    0.00000000
                                                     2        0.1400000        0.05401326    0.00000000
                                                     2        0.1800000       -0.08231208    0.00000000
                                                     2        0.2600000        0.11570222    0.00000000
                                                     2        0.4000000       -0.20630360    0.00000000
                                                     2        0.7000000        0.38074319    0.00000000
                                                     2        1.2000000       -0.17045091    0.00000000
                                                     2        2.0000000       -1.45433187    0.00000000
                                      S - G
                                                     0        0.0000010       -0.00117944    0.00000000
                                                     2        0.1400000        0.04368312    0.00000000
                                                     2        0.3000000       -0.33477926    0.00000000
                                                     2        0.6000000        1.52630657    0.00000000
                                                     2        1.5000000       -2.50804716    0.00000000
                                                     2        3.0000000        2.89751681    0.00000000
                                      P - G
                                                     0        0.0000010        0.06576007    0.00000000
                                                     2        0.1200000       -0.10329304    0.00000000
                                                     2        0.2000000        0.24891756    0.00000000
                                                     2        0.4000000       -0.50800022    0.00000000
                                                     2        0.9000000        0.81480796    0.00000000
                                      D - G
                                                     0        0.0000010       -0.14101855    0.00000000
                                                     2        0.1200000        0.22105937    0.00000000
                                                     2        0.1800000       -0.45814988    0.00000000
                                                     2        0.3000000        0.46029282    0.00000000
                                      F - G
                                                     0        0.0000010        0.07483044    0.00000000
                                                     2        0.1200000       -0.09134252    0.00000000
                                                     2        0.1400000        0.04125459    0.00000000
                                                     2        0.3000000        0.37914837    0.00000000
                                                     2        0.5000000       -0.86881279    0.00000000
    6          6            6
                                      G and up 
                                                     0        0.0000010       -0.00011185    0.00000000
                                                     2        0.1200000       -0.02301220    0.00000000
                                                     2        0.1400000        0.13317600    0.00000000
                                                     2        0.1600000       -0.19690668    0.00000000
                                                     2        0.2200000        0.23163694    0.00000000
                                                     2        0.3000000       -0.36920489    0.00000000
                                                     2        0.4000000        0.36389709    0.00000000
                                                     2        0.7000000       -0.38862160    0.00000000
                                                     2        1.3000000        0.80803421    0.00000000
                                      S - G
                                                     0        0.0000010        0.00312304    0.00000000
                                                     2        0.1200000       -0.00632892    0.00000000
                                                     2        0.2200000       -0.03780897    0.00000000
                                                     2        0.4000000        0.26269560    0.00000000
                                                     2        0.9000000       -0.28209514    0.00000000
                                                     2        1.5000000       -0.72686737    0.00000000
                                      P - G
                                                     0        0.0000010       -0.01465594    0.00000000
                                                     2        0.1200000        0.07908409    0.00000000
                                                     2        0.1800000       -0.30615861    0.00000000
                                                     2        0.2600000        0.41506950    0.00000000
                                                     2        0.5000000       -0.36252345    0.00000000
                                                     2        0.9000000        0.15124193    0.00000000
                                                     2        3.0000000       -0.80425677    0.00000000
                                      D - G
                                                     0        0.0000010        0.01149631    0.00000000
                                                     2        0.1200000       -0.04713561    0.00000000
                                                     2        0.1600000        0.10865096    0.00000000
                                                     2        0.2800000       -0.15816701    0.00000000
                                                     2        0.7000000        0.65478804    0.00000000
                                                     2        1.3000000       -1.73816624    0.00000000
                                      F - G
                                                     0        0.0000010        0.00481868    0.00000000
                                                     2        0.1200000       -0.04746842    0.00000000
                                                     2        0.1600000        0.09327889    0.00000000
                                                     2        0.4000000       -0.19693326    0.00000000
                                                     2        0.9000000        0.34938253    0.00000000
    7          8            8
                                      G and up 
                                                     0        0.0000010        0.00001165    0.00000000
                                                     2        0.1200000       -0.01744018    0.00000000
                                                     2        0.1400000        0.05401326    0.00000000
                                                     2        0.1800000       -0.08231208    0.00000000
                                                     2        0.2600000        0.11570222    0.00000000
                                                     2        0.4000000       -0.20630360    0.00000000
                                                     2        0.7000000        0.38074319    0.00000000
                                                     2        1.2000000       -0.17045091    0.00000000
                                                     2        2.0000000       -1.45433187    0.00000000
                                      S - G
                                                     0        0.0000010       -0.00117944    0.00000000
                                                     2        0.1400000        0.04368312    0.00000000
                                                     2        0.3000000       -0.33477926    0.00000000
                                                     2        0.6000000        1.52630657    0.00000000
                                                     2        1.5000000       -2.50804716    0.00000000
                                                     2        3.0000000        2.89751681    0.00000000
                                      P - G
                                                     0        0.0000010        0.06576007    0.00000000
                                                     2        0.1200000       -0.10329304    0.00000000
                                                     2        0.2000000        0.24891756    0.00000000
                                                     2        0.4000000       -0.50800022    0.00000000
                                                     2        0.9000000        0.81480796    0.00000000
                                      D - G
                                                     0        0.0000010       -0.14101855    0.00000000
                                                     2        0.1200000        0.22105937    0.00000000
                                                     2        0.1800000       -0.45814988    0.00000000
                                                     2        0.3000000        0.46029282    0.00000000
                                      F - G
                                                     0        0.0000010        0.07483044    0.00000000
                                                     2        0.1200000       -0.09134252    0.00000000
                                                     2        0.1400000        0.04125459    0.00000000
                                                     2        0.3000000        0.37914837    0.00000000
                                                     2        0.5000000       -0.86881279    0.00000000
    8          6            6
                                      G and up 
                                                     0        0.0000010       -0.00011185    0.00000000
                                                     2        0.1200000       -0.02301220    0.00000000
                                                     2        0.1400000        0.13317600    0.00000000
                                                     2        0.1600000       -0.19690668    0.00000000
                                                     2        0.2200000        0.23163694    0.00000000
                                                     2        0.3000000       -0.36920489    0.00000000
                                                     2        0.4000000        0.36389709    0.00000000
                                                     2        0.7000000       -0.38862160    0.00000000
                                                     2        1.3000000        0.80803421    0.00000000
                                      S - G
                                                     0        0.0000010        0.00312304    0.00000000
                                                     2        0.1200000       -0.00632892    0.00000000
                                                     2        0.2200000       -0.03780897    0.00000000
                                                     2        0.4000000        0.26269560    0.00000000
                                                     2        0.9000000       -0.28209514    0.00000000
                                                     2        1.5000000       -0.72686737    0.00000000
                                      P - G
                                                     0        0.0000010       -0.01465594    0.00000000
                                                     2        0.1200000        0.07908409    0.00000000
                                                     2        0.1800000       -0.30615861    0.00000000
                                                     2        0.2600000        0.41506950    0.00000000
                                                     2        0.5000000       -0.36252345    0.00000000
                                                     2        0.9000000        0.15124193    0.00000000
                                                     2        3.0000000       -0.80425677    0.00000000
                                      D - G
                                                     0        0.0000010        0.01149631    0.00000000
                                                     2        0.1200000       -0.04713561    0.00000000
                                                     2        0.1600000        0.10865096    0.00000000
                                                     2        0.2800000       -0.15816701    0.00000000
                                                     2        0.7000000        0.65478804    0.00000000
                                                     2        1.3000000       -1.73816624    0.00000000
                                      F - G
                                                     0        0.0000010        0.00481868    0.00000000
                                                     2        0.1200000       -0.04746842    0.00000000
                                                     2        0.1600000        0.09327889    0.00000000
                                                     2        0.4000000       -0.19693326    0.00000000
                                                     2        0.9000000        0.34938253    0.00000000
    9          1            1
                                      F and up 
                                                     0        0.0000010       -0.00000699    0.00000000
                                                     2        0.1200000        0.00123686    0.00000000
                                                     2        0.1800000       -0.00752022    0.00000000
                                                     2        0.2600000        0.02503380    0.00000000
                                                     2        0.4000000       -0.08702670    0.00000000
                                                     2        0.6000000        0.30134159    0.00000000
                                                     2        0.8000000       -0.50204959    0.00000000
                                                     2        1.2000000        0.52208372    0.00000000
                                      S - F
                                                     0        0.0000010       -0.01618346    0.00000000
                                                     2        0.1200000       -0.07880581    0.00000000
                                                     2        0.1600000        0.32040539    0.00000000
                                                     2        0.2400000       -0.47500956    0.00000000
                                                     2        0.5000000        0.54013668    0.00000000
                                                     2        1.5000000       -1.40434292    0.00000000
                                                     2        3.0000000        1.46283806    0.00000000
                                      P - F
                                                     0        0.0000010        0.00612970    0.00000000
                                                     2        0.1200000        0.02254406    0.00000000
                                                     2        0.1800000       -0.13874529    0.00000000
                                                     2        0.3000000        0.38299049    0.00000000
                                                     2        0.5000000       -0.57923512    0.00000000
                                                     2        1.0000000        0.63021625    0.00000000
                                                     2        2.0000000       -0.79201034    0.00000000
                                      D - F
                                                     0        0.0000010       -0.00296226    0.00000000
                                                     2        0.1200000       -0.00547344    0.00000000
                                                     2        0.1400000        0.01837884    0.00000000
                                                     2        0.2400000       -0.05565704    0.00000000
                                                     2        0.4000000        0.15376597    0.00000000
                                                     2        0.8000000       -0.32464795    0.00000000
   10          1            1
                                      F and up 
                                                     0        0.0000010       -0.00000699    0.00000000
                                                     2        0.1200000        0.00123686    0.00000000
                                                     2        0.1800000       -0.00752022    0.00000000
                                                     2        0.2600000        0.02503380    0.00000000
                                                     2        0.4000000       -0.08702670    0.00000000
                                                     2        0.6000000        0.30134159    0.00000000
                                                     2        0.8000000       -0.50204959    0.00000000
                                                     2        1.2000000        0.52208372    0.00000000
                                      S - F
                                                     0        0.0000010       -0.01618346    0.00000000
                                                     2        0.1200000       -0.07880581    0.00000000
                                                     2        0.1600000        0.32040539    0.00000000
                                                     2        0.2400000       -0.47500956    0.00000000
                                                     2        0.5000000        0.54013668    0.00000000
                                                     2        1.5000000       -1.40434292    0.00000000
                                                     2        3.0000000        1.46283806    0.00000000
                                      P - F
                                                     0        0.0000010        0.00612970    0.00000000
                                                     2        0.1200000        0.02254406    0.00000000
                                                     2        0.1800000       -0.13874529    0.00000000
                                                     2        0.3000000        0.38299049    0.00000000
                                                     2        0.5000000       -0.57923512    0.00000000
                                                     2        1.0000000        0.63021625    0.00000000
                                                     2        2.0000000       -0.79201034    0.00000000
                                      D - F
                                                     0        0.0000010       -0.00296226    0.00000000
                                                     2        0.1200000       -0.00547344    0.00000000
                                                     2        0.1400000        0.01837884    0.00000000
                                                     2        0.2400000       -0.05565704    0.00000000
                                                     2        0.4000000        0.15376597    0.00000000
                                                     2        0.8000000       -0.32464795    0.00000000
   11          1            1
                                      F and up 
                                                     0        0.0000010       -0.00000699    0.00000000
                                                     2        0.1200000        0.00123686    0.00000000
                                                     2        0.1800000       -0.00752022    0.00000000
                                                     2        0.2600000        0.02503380    0.00000000
                                                     2        0.4000000       -0.08702670    0.00000000
                                                     2        0.6000000        0.30134159    0.00000000
                                                     2        0.8000000       -0.50204959    0.00000000
                                                     2        1.2000000        0.52208372    0.00000000
                                      S - F
                                                     0        0.0000010       -0.01618346    0.00000000
                                                     2        0.1200000       -0.07880581    0.00000000
                                                     2        0.1600000        0.32040539    0.00000000
                                                     2        0.2400000       -0.47500956    0.00000000
                                                     2        0.5000000        0.54013668    0.00000000
                                                     2        1.5000000       -1.40434292    0.00000000
                                                     2        3.0000000        1.46283806    0.00000000
                                      P - F
                                                     0        0.0000010        0.00612970    0.00000000
                                                     2        0.1200000        0.02254406    0.00000000
                                                     2        0.1800000       -0.13874529    0.00000000
                                                     2        0.3000000        0.38299049    0.00000000
                                                     2        0.5000000       -0.57923512    0.00000000
                                                     2        1.0000000        0.63021625    0.00000000
                                                     2        2.0000000       -0.79201034    0.00000000
                                      D - F
                                                     0        0.0000010       -0.00296226    0.00000000
                                                     2        0.1200000       -0.00547344    0.00000000
                                                     2        0.1400000        0.01837884    0.00000000
                                                     2        0.2400000       -0.05565704    0.00000000
                                                     2        0.4000000        0.15376597    0.00000000
                                                     2        0.8000000       -0.32464795    0.00000000
 ======================================================================================================
   215 basis functions,   415 primitive gaussians,   231 cartesian basis functions
    35 alpha electrons       35 beta electrons
       nuclear repulsion energy       438.2147267143 Hartrees.
 NAtoms=   11 NActive=   11 NUniq=   11 SFac= 1.00D+00 NAtFMM=   60 NAOKFM=F Big=F
   1 Symmetry operations used in ECPInt.
 ECPInt:  NShTT=    4005 NPrTT=   25871 LenC2=    3953 LenP2D=   17252.
 LDataN:  DoStor=T MaxTD1= 6 Len=  172
 Initial guess from the checkpoint file:  "BDE49_nonexpt_1070_mol1.chk"
 B after Tr=     0.000000    0.000000    0.000000
         Rot=    1.000000    0.000000   -0.000000   -0.000000 Ang=  -0.00 deg.
 >>>>>>>>>> Convergence criterion not met.
 SCF Done:  E(RHF) =  -874.469757839     A.U. after    2 cycles
            NFock=  1  Conv=0.30D-02     -V/T= 1.9976

 **********************************************************************

            Population analysis using the SCF Density.

 **********************************************************************

 Orbital symmetries:
       Occupied  (A) (A) (A) (A) (A) (A) (A) (A) (A) (A) (A) (A)
                 (A) (A) (A) (A) (A) (A) (A) (A) (A) (A) (A) (A)
                 (A) (A) (A) (A) (A) (A) (A) (A) (A) (A) (A)
       Virtual   (A) (A) (A) (A) (A) (A) (A) (A) (A) (A) (A) (A)
                 (A) (A) (A) (A) (A) (A) (A) (A) (A) (A) (A) (A)
                 (A) (A) (A) (A) (A) (A) (A) (A) (A) (A) (A) (A)
                 (A) (A) (A) (A) (A) (A) (A) (A) (A) (A) (A) (A)
                 (A) (A) (A) (A) (A) (A) (A) (A) (A) (A) (A) (A)
                 (A) (A) (A) (A) (A) (A) (A) (A) (A) (A) (A) (A)
                 (A) (A) (A) (A) (A) (A) (A) (A) (A) (A) (A) (A)
                 (A) (A) (A) (A) (A) (A) (A) (A) (A) (A) (A) (A)
                 (A) (A) (A) (A) (A) (A) (A) (A) (A) (A) (A) (A)
                 (A) (A) (A) (A) (A) (A) (A) (A) (A) (A) (A) (A)
                 (A) (A) (A) (A) (A) (A) (A) (A) (A) (A) (A) (A)
                 (A) (A) (A) (A) (A) (A) (A) (A) (A) (A) (A) (A)
                 (A) (A) (A) (A) (A) (A) (A) (A) (A) (A) (A) (A)
                 (A) (A) (A) (A) (A) (A) (A) (A) (A) (A) (A) (A)
                 (A) (A) (A) (A) (A) (A) (A) (A) (A) (A) (A) (A)
 The electronic state is 1-A.
 Alpha  occ. eigenvalues -- -103.74623 -20.70333 -20.66734 -20.60394 -20.60277
 Alpha  occ. eigenvalues --  -11.48853 -11.43759 -11.27973 -10.77230  -8.43004
 Alpha  occ. eigenvalues --   -8.42535  -8.42520  -1.50560  -1.43582  -1.38677
 Alpha  occ. eigenvalues --   -1.37117  -1.15140  -1.05502  -0.92177  -0.80896
 Alpha  occ. eigenvalues --   -0.77211  -0.74694  -0.74101  -0.69225  -0.67703
 Alpha  occ. eigenvalues --   -0.65651  -0.63143  -0.60807  -0.59301  -0.56374
 Alpha  occ. eigenvalues --   -0.53314  -0.53066  -0.50823  -0.50231  -0.48822
 Alpha virt. eigenvalues --    0.02764   0.03340   0.05156   0.05424   0.07090
 Alpha virt. eigenvalues --    0.08861   0.10205   0.11041   0.11756   0.12829
 Alpha virt. eigenvalues --    0.13301   0.13698   0.14140   0.14684   0.15014
 Alpha virt. eigenvalues --    0.17019   0.17577   0.17760   0.18524   0.20651
 Alpha virt. eigenvalues --    0.21205   0.22035   0.23982   0.24273   0.26577
 Alpha virt. eigenvalues --    0.26928   0.29284   0.30344   0.30737   0.32044
 Alpha virt. eigenvalues --    0.32071   0.32733   0.33026   0.33881   0.34536
 Alpha virt. eigenvalues --    0.36160   0.37651   0.38640   0.39908   0.41008
 Alpha virt. eigenvalues --    0.42355   0.43207   0.43982   0.45420   0.46413
 Alpha virt. eigenvalues --    0.46795   0.48771   0.49882   0.50137   0.51434
 Alpha virt. eigenvalues --    0.52860   0.54068   0.55024   0.55564   0.56793
 Alpha virt. eigenvalues --    0.57973   0.59293   0.62210   0.63896   0.64084
 Alpha virt. eigenvalues --    0.65455   0.66938   0.67757   0.69122   0.69704
 Alpha virt. eigenvalues --    0.70793   0.72645   0.73211   0.75345   0.79472
 Alpha virt. eigenvalues --    0.80259   0.80964   0.83900   0.84428   0.88364
 Alpha virt. eigenvalues --    0.90257   0.91617   0.92132   0.95122   0.95611
 Alpha virt. eigenvalues --    0.97347   0.99456   1.03497   1.05692   1.07073
 Alpha virt. eigenvalues --    1.09756   1.10602   1.10837   1.12989   1.14915
 Alpha virt. eigenvalues --    1.15673   1.18957   1.20412   1.21454   1.21901
 Alpha virt. eigenvalues --    1.24231   1.28200   1.29183   1.31098   1.31730
 Alpha virt. eigenvalues --    1.34136   1.34893   1.37272   1.38349   1.40145
 Alpha virt. eigenvalues --    1.40872   1.42585   1.43835   1.44680   1.46937
 Alpha virt. eigenvalues --    1.48451   1.49995   1.53466   1.55414   1.58643
 Alpha virt. eigenvalues --    1.60860   1.65466   1.67031   1.71006   1.73179
 Alpha virt. eigenvalues --    1.76411   1.78173   1.79262   1.82143   1.85092
 Alpha virt. eigenvalues --    1.85345   1.86474   1.94411   1.95310   1.95913
 Alpha virt. eigenvalues --    1.99318   2.01142   2.05073   2.09885   2.15092
 Alpha virt. eigenvalues --    2.15376   2.19493   2.20622   2.22565   2.26612
 Alpha virt. eigenvalues --    2.30060   2.34238   2.36184   2.40467   2.48508
 Alpha virt. eigenvalues --    2.50824   2.54289   2.59112   2.61733   2.63727
 Alpha virt. eigenvalues --    2.77152   2.78876   2.85228   2.90738   2.93379
 Alpha virt. eigenvalues --    3.02217   3.07175   3.20972   3.27298   3.34303
 Alpha virt. eigenvalues --    3.46411   3.51982   3.52525   3.54287   3.57270
 Alpha virt. eigenvalues --    3.59458   3.60523   3.61413   3.62687   3.63271
 Alpha virt. eigenvalues --    3.65829   3.68936   3.71721   3.74873   3.82884
 Alpha virt. eigenvalues --    3.91303   3.93364   3.99107   4.06241   4.15274
          Condensed to atoms (all electrons):
 Mulliken charges:
               1
     1  Cl   0.346061
     2  O   -0.643624
     3  C    0.676962
     4  O   -0.269523
     5  O   -0.511403
     6  C    0.360125
     7  O   -0.353146
     8  C    0.303578
     9  H    0.042993
    10  H    0.046074
    11  H    0.001903
 Sum of Mulliken charges =  -0.00000
 Mulliken charges with hydrogens summed into heavy atoms:
               1
     1  Cl   0.346061
     2  O   -0.643624
     3  C    0.676962
     4  O   -0.269523
     5  O   -0.511403
     6  C    0.360125
     7  O   -0.353146
     8  C    0.394548
 Electronic spatial extent (au):  <R**2>=           1419.6354
 Charge=             -0.0000 electrons
 Dipole moment (field-independent basis, Debye):
    X=             -1.6229    Y=             -3.1875    Z=              0.5469  Tot=              3.6184

 Test job not archived.
 1\1\GINC-SE435\SP\RHF\Aug-CC-pVDZ\C3H3Cl1O4\OHZDE\08-Apr-2025\0\\#t hf
  aug-cc-pvdz iop(5/13=1,5/36=2,99/5=2) pseudo=read geom=check guess=(r
 ead,tcheck) scf=(maxcycle=1)\\title\\0,1\Cl,0,2.879045,-0.128749,-0.13
 3852\O,0,1.25947,-0.724341,-0.247858\C,0,0.323085,0.1338,0.264055\O,0,
 0.489687,1.213348,0.716034\O,0,-0.838174,-0.577214,0.181419\C,0,-2.035
 471,0.092151,-0.168288\O,0,-2.045309,1.157212,-0.689736\C,0,-3.196358,
 -0.784568,0.192677\H,0,-3.227087,-0.919109,1.276495\H,0,-3.072288,-1.7
 7145,-0.257158\H,0,-4.117319,-0.321054,-0.153394\\Version=ES64L-G16Rev
 C.01\State=1-A\HF=-874.4697578\RMSD=2.955e-03\Dipole=-0.6385091,-1.254
 0559,0.215183\Quadrupole=8.120773,-6.2069558,-1.9138172,4.8071998,-2.1
 378019,-0.1790046\PG=C01 [X(C3H3Cl1O4)]\\@


 MYSTERY IS THE WISDOM OF BLOCKHEADS... HORACE WALPOLE 
 Job cpu time:       0 days  0 hours  0 minutes 48.8 seconds.
 Elapsed time:       0 days  0 hours  0 minutes  4.2 seconds.
 File lengths (MBytes):  RWF=     10 Int=      0 D2E=      0 Chk=      7 Scr=      1
 Normal termination of Gaussian 16 at Tue Apr  8 23:17:06 2025.
