 Entering Gaussian System, Link 0=g16
 Input=BDE49_expt_1452_mol1.gjf
 Output=BDE49_expt_1452_mol1.log
 Initial command:
 /arc/software/Gaussian/g16.c01/l1.exe "/tmp/slurm/4841485/Gau-2341868.inp" -scrdir="/tmp/slurm/4841485/"
 Entering Link 1 = /arc/software/Gaussian/g16.c01/l1.exe PID=   2341887.
  
 Copyright (c) 1988-2019, Gaussian, Inc.  All Rights Reserved.
  
 This is part of the Gaussian(R) 16 program.  It is based on
 the Gaussian(R) 09 system (copyright 2009, Gaussian, Inc.),
 the Gaussian(R) 03 system (copyright 2003, Gaussian, Inc.),
 the Gaussian(R) 98 system (copyright 1998, Gaussian, Inc.),
 the Gaussian(R) 94 system (copyright 1995, Gaussian, Inc.),
 the Gaussian 92(TM) system (copyright 1992, Gaussian, Inc.),
 the Gaussian 90(TM) system (copyright 1990, Gaussian, Inc.),
 the Gaussian 88(TM) system (copyright 1988, Gaussian, Inc.),
 the Gaussian 86(TM) system (copyright 1986, Carnegie Mellon
 University), and the Gaussian 82(TM) system (copyright 1983,
 Carnegie Mellon University). Gaussian is a federally registered
 trademark of Gaussian, Inc.
  
 This software contains proprietary and confidential information,
 including trade secrets, belonging to Gaussian, Inc.
  
 This software is provided under written license and may be
 used, copied, transmitted, or stored only in accord with that
 written license.
  
 The following legend is applicable only to US Government
 contracts under FAR:
  
                    RESTRICTED RIGHTS LEGEND
  
 Use, reproduction and disclosure by the US Government is
 subject to restrictions as set forth in subparagraphs (a)
 and (c) of the Commercial Computer Software - Restricted
 Rights clause in FAR 52.227-19.
  
 Gaussian, Inc.
 340 Quinnipiac St., Bldg. 40, Wallingford CT 06492
  
  
 ---------------------------------------------------------------
 Warning -- This program may not be used in any manner that
 competes with the business of Gaussian, Inc. or will provide
 assistance to any competitor of Gaussian, Inc.  The licensee
 of this program is prohibited from giving any competitor of
 Gaussian, Inc. access to this program.  By using this program,
 the user acknowledges that Gaussian, Inc. is engaged in the
 business of creating and licensing software in the field of
 computational chemistry and represents and warrants to the
 licensee that it is not a competitor of Gaussian, Inc. and that
 it will not use this program in any manner prohibited above.
 ---------------------------------------------------------------
  

 Cite this work as:
 Gaussian 16, Revision C.01,
 M. J. Frisch, G. W. Trucks, H. B. Schlegel, G. E. Scuseria, 
 M. A. Robb, J. R. Cheeseman, G. Scalmani, V. Barone, 
 G. A. Petersson, H. Nakatsuji, X. Li, M. Caricato, A. V. Marenich, 
 J. Bloino, B. G. Janesko, R. Gomperts, B. Mennucci, H. P. Hratchian, 
 J. V. Ortiz, A. F. Izmaylov, J. L. Sonnenberg, D. Williams-Young, 
 F. Ding, F. Lipparini, F. Egidi, J. Goings, B. Peng, A. Petrone, 
 T. Henderson, D. Ranasinghe, V. G. Zakrzewski, J. Gao, N. Rega, 
 G. Zheng, W. Liang, M. Hada, M. Ehara, K. Toyota, R. Fukuda, 
 J. Hasegawa, M. Ishida, T. Nakajima, Y. Honda, O. Kitao, H. Nakai, 
 T. Vreven, K. Throssell, J. A. Montgomery, Jr., J. E. Peralta, 
 F. Ogliaro, M. J. Bearpark, J. J. Heyd, E. N. Brothers, K. N. Kudin, 
 V. N. Staroverov, T. A. Keith, R. Kobayashi, J. Normand, 
 K. Raghavachari, A. P. Rendell, J. C. Burant, S. S. Iyengar, 
 J. Tomasi, M. Cossi, J. M. Millam, M. Klene, C. Adamo, R. Cammi, 
 J. W. Ochterski, R. L. Martin, K. Morokuma, O. Farkas, 
 J. B. Foresman, and D. J. Fox, Gaussian, Inc., Wallingford CT, 2019.
 
 ******************************************
 Gaussian 16:  ES64L-G16RevC.01  3-Jul-2019
                 8-Apr-2025 
 ******************************************
 %nprocs=16
 Will use up to   16 processors via shared memory.
 %mem=30GB
 %chk=BDE49_expt_1452_mol1.chk
 ----------------------------------------------------------------------
 #t hf aug-cc-pvdz symm=none int=(grid=ultrafine) guess=(read,tcheck) s
 table=(opt,rrhf)
 ----------------------------------------------------------------------
 -----
 title
 -----
 Symbolic Z-matrix:
 Charge =  0 Multiplicity = 1
 O                     0.11638  -0.52603   0.22889 
 C                     1.26701   0.08249  -0.13488 
 C                    -1.13515   0.05492  -0.25095 
 O                     1.322     1.06976  -0.8248 
 C                     2.45794  -0.64324   0.44287 
 C                    -1.56629   1.17482   0.68786 
 H                    -1.69735   0.79389   1.7044 
 H                    -2.51641   1.6009    0.35407 
 H                    -0.82205   1.97237   0.69985 
 H                     2.43933  -1.69305   0.14318 
 H                     2.41329  -0.61437   1.53413 
 H                     3.37391  -0.16896   0.09707 
 C                    -2.12689  -1.09499  -0.32577 
 H                    -0.941     0.46431  -1.24425 
 H                    -2.28574  -1.53388   0.66272 
 H                    -1.76218  -1.87685  -0.99508 
 H                    -3.08853  -0.73821  -0.70347 
 
                    Distance matrix (angstroms):
                    1          2          3          4          5
     1  O    0.000000
     2  C    1.351513   0.000000
     3  C    1.460846   2.405125   0.000000
     4  O    2.260605   1.205703   2.719704   0.000000
     5  C    2.354239   1.509559   3.725467   2.414887   0.000000
     6  C    2.436172   3.146063   1.523624   3.262118   4.422645
     7  H    2.684949   3.560408   2.164613   3.948347   4.574194
     8  H    3.386900   4.105966   2.159627   4.050341   5.457857
     9  H    2.710070   2.938134   2.163025   2.781410   4.203068
    10  H    2.601030   2.145728   3.998451   3.133446   1.091908
    11  H    2.643351   2.141302   4.028144   3.097059   1.092563
    12  H    3.279693   2.134486   4.528007   2.567994   1.087891
    13  C    2.379827   3.597420   1.520335   4.102435   4.670707
    14  H    2.066145   2.500363   1.091758   2.379848   3.952949
    15  H    2.640854   3.983821   2.164007   4.691205   4.831566
    16  H    2.617585   3.708763   2.163009   4.268914   4.625891
    17  H    3.344510   4.468514   2.156276   4.768257   5.664491
                    6          7          8          9         10
     6  C    0.000000
     7  H    1.093450   0.000000
     8  H    1.093475   1.773558   0.000000
     9  H    1.090927   1.778784   1.768732   0.000000
    10  H    4.956442   5.072907   5.954318   4.937788   0.000000
    11  H    4.444601   4.348517   5.531904   4.225483   1.760394
    12  H    5.153673   5.406317   6.155836   4.749181   1.788409
    13  C    2.548279   2.806052   2.807438   3.487572   4.629026
    14  H    2.151478   3.061897   2.515627   2.463315   4.243318
    15  H    2.802729   2.617213   3.158373   3.799675   4.756202
    16  H    3.490463   3.797924   3.805758   4.309652   4.356838
    17  H    2.812950   3.174984   2.630044   3.801773   5.673249
                   11         12         13         14         15
    11  H    0.000000
    12  H    1.785025   0.000000
    13  C    4.929854   5.594198   0.000000
    14  H    4.487121   4.562741   2.163642   0.000000
    15  H    4.866799   5.849318   1.093147   3.072071   0.000000
    16  H    5.042354   5.521688   1.091924   2.493481   1.772016
    17  H    5.940732   6.536670   1.093029   2.520001   1.773146
                   16         17
    16  H    0.000000
    17  H    1.772218   0.000000
 Symmetry turned off by external request.
 Rotational constants (GHZ):           4.7185334           1.6710981           1.4556983
   251 basis functions,   411 primitive gaussians,   265 cartesian basis functions
    28 alpha electrons       28 beta electrons
       nuclear repulsion energy       320.2472961352 Hartrees.
 NAtoms=   17 NActive=   17 NUniq=   17 SFac= 1.00D+00 NAtFMM=   60 NAOKFM=F Big=F
 ExpMin= 2.97D-02 ExpMax= 1.17D+04 ExpMxC= 4.01D+02 IAcc=3 IRadAn=         5 AccDes= 0.00D+00
 Harris functional with IExCor=  205 and IRadAn=       5 diagonalized for initial guess.
 HarFok:  IExCor=  205 AccDes= 0.00D+00 IRadAn=         5 IDoV= 1 UseB2=F ITyADJ=14
 ICtDFT=  3500011 ScaDFX=  1.000000  1.000000  1.000000  1.000000
 FoFCou: FMM=F IPFlag=           0 FMFlag=      100000 FMFlg1=           0
         NFxFlg=           0 DoJE=T BraDBF=F KetDBF=T FulRan=T
         wScrn=  0.000000 ICntrl=       500 IOpCl=  0 I1Cent=   200000004 NGrid=           0
         NMat0=    1 NMatS0=      1 NMatT0=    0 NMatD0=    1 NMtDS0=    0 NMtDT0=    0
 Symmetry not used in FoFCou.
 SCF Done:  E(RHF) =  -344.958836239     A.U. after   13 cycles
            NFock= 13  Conv=0.82D-08     -V/T= 2.0015

 **********************************************************************

            Population analysis using the SCF Density.

 **********************************************************************

 Alpha  occ. eigenvalues --  -20.60341 -20.55125 -11.38671 -11.29816 -11.24567
 Alpha  occ. eigenvalues --  -11.22973 -11.22589  -1.45537  -1.35893  -1.07522
 Alpha  occ. eigenvalues --   -1.00536  -0.94665  -0.84023  -0.76490  -0.69378
 Alpha  occ. eigenvalues --   -0.66524  -0.65479  -0.61072  -0.58490  -0.57732
 Alpha  occ. eigenvalues --   -0.56248  -0.54817  -0.53403  -0.51780  -0.50228
 Alpha  occ. eigenvalues --   -0.48243  -0.45129  -0.44104
 Alpha virt. eigenvalues --    0.03469   0.04240   0.04671   0.05135   0.06363
 Alpha virt. eigenvalues --    0.06512   0.06935   0.07654   0.07803   0.08807
 Alpha virt. eigenvalues --    0.10700   0.13249   0.13317   0.14236   0.15045
 Alpha virt. eigenvalues --    0.15425   0.15734   0.16534   0.16745   0.17186
 Alpha virt. eigenvalues --    0.17251   0.17707   0.18596   0.19257   0.19304
 Alpha virt. eigenvalues --    0.19999   0.21060   0.22274   0.22762   0.23195
 Alpha virt. eigenvalues --    0.25234   0.26267   0.27400   0.28991   0.30017
 Alpha virt. eigenvalues --    0.30967   0.31710   0.33155   0.33687   0.35565
 Alpha virt. eigenvalues --    0.36144   0.36956   0.37420   0.38539   0.39592
 Alpha virt. eigenvalues --    0.40668   0.40862   0.41115   0.42068   0.43254
 Alpha virt. eigenvalues --    0.44444   0.44989   0.45172   0.46144   0.47173
 Alpha virt. eigenvalues --    0.47536   0.48176   0.48715   0.49258   0.50640
 Alpha virt. eigenvalues --    0.51119   0.51499   0.52301   0.53093   0.53712
 Alpha virt. eigenvalues --    0.55505   0.57190   0.58111   0.59004   0.59576
 Alpha virt. eigenvalues --    0.59783   0.60278   0.60708   0.61872   0.62164
 Alpha virt. eigenvalues --    0.63577   0.64012   0.64646   0.65078   0.66314
 Alpha virt. eigenvalues --    0.67792   0.67948   0.69188   0.69909   0.71823
 Alpha virt. eigenvalues --    0.72706   0.73385   0.74194   0.75347   0.75495
 Alpha virt. eigenvalues --    0.76339   0.77589   0.78147   0.79124   0.80278
 Alpha virt. eigenvalues --    0.81061   0.81809   0.85052   0.85297   0.87198
 Alpha virt. eigenvalues --    0.88405   0.91494   0.92142   0.94166   0.95292
 Alpha virt. eigenvalues --    0.96473   0.97140   0.98458   1.01225   1.03226
 Alpha virt. eigenvalues --    1.04414   1.07360   1.08049   1.09499   1.11935
 Alpha virt. eigenvalues --    1.13017   1.15044   1.15696   1.16656   1.18413
 Alpha virt. eigenvalues --    1.20784   1.23653   1.24300   1.26892   1.28218
 Alpha virt. eigenvalues --    1.29723   1.32977   1.33208   1.34546   1.36332
 Alpha virt. eigenvalues --    1.39124   1.42829   1.45656   1.48640   1.49476
 Alpha virt. eigenvalues --    1.55183   1.56718   1.57714   1.61891   1.62365
 Alpha virt. eigenvalues --    1.64960   1.67866   1.70898   1.71995   1.75878
 Alpha virt. eigenvalues --    1.78240   1.80473   1.80795   1.82344   1.86254
 Alpha virt. eigenvalues --    1.87369   1.88618   1.90102   1.91989   1.92841
 Alpha virt. eigenvalues --    1.93317   1.95594   1.97876   1.99960   2.03343
 Alpha virt. eigenvalues --    2.05802   2.06113   2.06697   2.10730   2.13052
 Alpha virt. eigenvalues --    2.15247   2.17579   2.19156   2.21111   2.21150
 Alpha virt. eigenvalues --    2.23413   2.24456   2.26560   2.27218   2.28892
 Alpha virt. eigenvalues --    2.32432   2.35349   2.35776   2.37394   2.37852
 Alpha virt. eigenvalues --    2.39691   2.42022   2.46005   2.49184   2.50744
 Alpha virt. eigenvalues --    2.53385   2.55431   2.57832   2.59834   2.63146
 Alpha virt. eigenvalues --    2.67075   2.69716   2.72496   2.75378   2.76646
 Alpha virt. eigenvalues --    2.79641   2.83786   2.86977   2.88729   2.90328
 Alpha virt. eigenvalues --    2.91341   2.95048   2.98806   2.99588   3.01634
 Alpha virt. eigenvalues --    3.11177   3.12899   3.15676   3.25625   3.28964
 Alpha virt. eigenvalues --    3.34034   3.38033   3.52717   3.80098   3.81050
 Alpha virt. eigenvalues --    3.84102   3.87871   3.91631   3.95803   4.01625
 Alpha virt. eigenvalues --    4.16914   4.21073   4.30137
          Condensed to atoms (all electrons):
 Mulliken charges:
               1
     1  O   -0.901801
     2  C    0.653888
     3  C   -0.051601
     4  O   -0.721323
     5  C    0.270699
     6  C    0.464691
     7  H   -0.000286
     8  H   -0.042614
     9  H   -0.093052
    10  H    0.023110
    11  H    0.028207
    12  H   -0.018696
    13  C    0.561574
    14  H   -0.090056
    15  H   -0.007850
    16  H   -0.060507
    17  H   -0.014384
 Sum of Mulliken charges =  -0.00000
 Mulliken charges with hydrogens summed into heavy atoms:
               1
     1  O   -0.901801
     2  C    0.653888
     3  C   -0.141656
     4  O   -0.721323
     5  C    0.303319
     6  C    0.328739
    13  C    0.478833
 Electronic spatial extent (au):  <R**2>=            911.3450
 Charge=             -0.0000 electrons
 Dipole moment (field-independent basis, Debye):
    X=             -0.8563    Y=             -1.5856    Z=              1.0966  Tot=              2.1094
 NROrb=    251 NOA=    28 NOB=    28 NVA=   223 NVB=   223

 **** Warning!!: The largest alpha MO coefficient is  0.51342557D+02

    12 initial guesses have been made.
 Iteration     1 Dimension    12 NMult     0 NNew     12
 Iteration     2 Dimension    24 NMult    12 NNew     12
 Iteration     3 Dimension    27 NMult    24 NNew      3
 Iteration     4 Dimension    30 NMult    27 NNew      3
 Iteration     5 Dimension    33 NMult    30 NNew      3
 Iteration     6 Dimension    36 NMult    33 NNew      3
 Iteration     7 Dimension    39 NMult    36 NNew      3
 ***********************************************************************
 Stability analysis using <AA,BB:AA,BB> singles matrix:
 ***********************************************************************
 Ground to excited state transition densities written to RWF  633

 Eigenvectors of the stability matrix:
 
 Excited state symmetry could not be determined.
 Eigenvector   1:      Singlet-?Sym  Eigenvalue= 0.2507881  <S**2>=0.000
      27 -> 49        -0.13007
      28 -> 43         0.18858
      28 -> 45         0.13540
      28 -> 47        -0.17382
      28 -> 49         0.31141
      28 -> 50        -0.11609
      28 -> 51         0.20468
      28 -> 53         0.19018
      28 -> 54        -0.15177
      28 -> 55         0.18708
 The wavefunction is stable under the perturbations considered.
 The wavefunction is already stable.

 **********************************************************************

            Population analysis using the SCF Density.

 **********************************************************************

 Alpha  occ. eigenvalues --  -20.60341 -20.55125 -11.38671 -11.29816 -11.24567
 Alpha  occ. eigenvalues --  -11.22973 -11.22589  -1.45537  -1.35893  -1.07522
 Alpha  occ. eigenvalues --   -1.00536  -0.94665  -0.84023  -0.76490  -0.69378
 Alpha  occ. eigenvalues --   -0.66524  -0.65479  -0.61072  -0.58490  -0.57732
 Alpha  occ. eigenvalues --   -0.56248  -0.54817  -0.53403  -0.51780  -0.50228
 Alpha  occ. eigenvalues --   -0.48243  -0.45129  -0.44104
 Alpha virt. eigenvalues --    0.03469   0.04240   0.04671   0.05135   0.06363
 Alpha virt. eigenvalues --    0.06512   0.06935   0.07654   0.07803   0.08807
 Alpha virt. eigenvalues --    0.10700   0.13249   0.13317   0.14236   0.15045
 Alpha virt. eigenvalues --    0.15425   0.15734   0.16534   0.16745   0.17186
 Alpha virt. eigenvalues --    0.17251   0.17707   0.18596   0.19257   0.19304
 Alpha virt. eigenvalues --    0.19999   0.21060   0.22274   0.22762   0.23195
 Alpha virt. eigenvalues --    0.25234   0.26267   0.27400   0.28991   0.30017
 Alpha virt. eigenvalues --    0.30967   0.31710   0.33155   0.33687   0.35565
 Alpha virt. eigenvalues --    0.36144   0.36956   0.37420   0.38539   0.39592
 Alpha virt. eigenvalues --    0.40668   0.40862   0.41115   0.42068   0.43254
 Alpha virt. eigenvalues --    0.44444   0.44989   0.45172   0.46144   0.47173
 Alpha virt. eigenvalues --    0.47536   0.48176   0.48715   0.49258   0.50640
 Alpha virt. eigenvalues --    0.51119   0.51499   0.52301   0.53093   0.53712
 Alpha virt. eigenvalues --    0.55505   0.57190   0.58111   0.59004   0.59576
 Alpha virt. eigenvalues --    0.59783   0.60278   0.60708   0.61872   0.62164
 Alpha virt. eigenvalues --    0.63577   0.64012   0.64646   0.65078   0.66314
 Alpha virt. eigenvalues --    0.67792   0.67948   0.69188   0.69909   0.71823
 Alpha virt. eigenvalues --    0.72706   0.73385   0.74194   0.75347   0.75495
 Alpha virt. eigenvalues --    0.76339   0.77589   0.78147   0.79124   0.80278
 Alpha virt. eigenvalues --    0.81061   0.81809   0.85052   0.85297   0.87198
 Alpha virt. eigenvalues --    0.88405   0.91494   0.92142   0.94166   0.95292
 Alpha virt. eigenvalues --    0.96473   0.97140   0.98458   1.01225   1.03226
 Alpha virt. eigenvalues --    1.04414   1.07360   1.08049   1.09499   1.11935
 Alpha virt. eigenvalues --    1.13017   1.15044   1.15696   1.16656   1.18413
 Alpha virt. eigenvalues --    1.20784   1.23653   1.24300   1.26892   1.28218
 Alpha virt. eigenvalues --    1.29723   1.32977   1.33208   1.34546   1.36332
 Alpha virt. eigenvalues --    1.39124   1.42829   1.45656   1.48640   1.49476
 Alpha virt. eigenvalues --    1.55183   1.56718   1.57714   1.61891   1.62365
 Alpha virt. eigenvalues --    1.64960   1.67866   1.70898   1.71995   1.75878
 Alpha virt. eigenvalues --    1.78240   1.80473   1.80795   1.82344   1.86254
 Alpha virt. eigenvalues --    1.87369   1.88618   1.90102   1.91989   1.92841
 Alpha virt. eigenvalues --    1.93317   1.95594   1.97876   1.99960   2.03343
 Alpha virt. eigenvalues --    2.05802   2.06113   2.06697   2.10730   2.13052
 Alpha virt. eigenvalues --    2.15247   2.17579   2.19156   2.21111   2.21150
 Alpha virt. eigenvalues --    2.23413   2.24456   2.26560   2.27218   2.28892
 Alpha virt. eigenvalues --    2.32432   2.35349   2.35776   2.37394   2.37852
 Alpha virt. eigenvalues --    2.39691   2.42022   2.46005   2.49184   2.50744
 Alpha virt. eigenvalues --    2.53385   2.55431   2.57832   2.59834   2.63146
 Alpha virt. eigenvalues --    2.67075   2.69716   2.72496   2.75378   2.76646
 Alpha virt. eigenvalues --    2.79641   2.83786   2.86977   2.88729   2.90328
 Alpha virt. eigenvalues --    2.91341   2.95048   2.98806   2.99588   3.01634
 Alpha virt. eigenvalues --    3.11177   3.12899   3.15676   3.25625   3.28964
 Alpha virt. eigenvalues --    3.34034   3.38033   3.52717   3.80098   3.81050
 Alpha virt. eigenvalues --    3.84102   3.87871   3.91631   3.95803   4.01625
 Alpha virt. eigenvalues --    4.16914   4.21073   4.30137
          Condensed to atoms (all electrons):
 Mulliken charges:
               1
     1  O   -0.901801
     2  C    0.653888
     3  C   -0.051601
     4  O   -0.721323
     5  C    0.270699
     6  C    0.464691
     7  H   -0.000286
     8  H   -0.042614
     9  H   -0.093052
    10  H    0.023110
    11  H    0.028207
    12  H   -0.018696
    13  C    0.561574
    14  H   -0.090056
    15  H   -0.007850
    16  H   -0.060507
    17  H   -0.014384
 Sum of Mulliken charges =  -0.00000
 Mulliken charges with hydrogens summed into heavy atoms:
               1
     1  O   -0.901801
     2  C    0.653888
     3  C   -0.141656
     4  O   -0.721323
     5  C    0.303319
     6  C    0.328739
    13  C    0.478833
 Electronic spatial extent (au):  <R**2>=            911.3450
 Charge=             -0.0000 electrons
 Dipole moment (field-independent basis, Debye):
    X=             -0.8563    Y=             -1.5856    Z=              1.0966  Tot=              2.1094
 Unable to Open any file for archive entry.
 1\1\GINC-SE423\Stability\RHF\Aug-CC-pVDZ\C5H10O2\OHZDE\08-Apr-2025\0\\
 #t hf aug-cc-pvdz symm=none int=(grid=ultrafine) guess=(read,tcheck) s
 table=(opt,rrhf)\\title\\0,1\O,0,0.116376,-0.526033,0.228885\C,0,1.267
 013,0.082486,-0.134881\C,0,-1.135151,0.05492,-0.250954\O,0,1.322001,1.
 069757,-0.824802\C,0,2.457939,-0.643236,0.442865\C,0,-1.566292,1.17482
 2,0.687858\H,0,-1.697353,0.793894,1.704396\H,0,-2.516412,1.600901,0.35
 4067\H,0,-0.822052,1.972371,0.69985\H,0,2.439325,-1.693047,0.143177\H,
 0,2.413293,-0.614368,1.534134\H,0,3.373907,-0.168961,0.097072\C,0,-2.1
 26887,-1.094985,-0.325768\H,0,-0.941,0.464312,-1.244251\H,0,-2.285736,
 -1.533878,0.662721\H,0,-1.762178,-1.876847,-0.995079\H,0,-3.088534,-0.
 738208,-0.703467\\Version=ES64L-G16RevC.01\HF=-344.9588362\RMSD=8.183e
 -09\Dipole=-0.3368838,-0.6238139,0.4314251\Quadrupole=3.0195762,-2.205
 3602,-0.814216,-3.0975899,2.4880063,1.9599686\PG=Unknown\\@
 The archive entry for this job was punched.


 IF YOU GET CONFUSED, LOGIC OUT YOUR DILEMMA

           --  PICKER X-RAY CORP.    DIGITAL PRINTER MANUAL CA. 1964
 Job cpu time:       0 days  0 hours  9 minutes 18.5 seconds.
 Elapsed time:       0 days  0 hours  0 minutes 38.9 seconds.
 File lengths (MBytes):  RWF=    272 Int=      0 D2E=      0 Chk=      9 Scr=      1
 Normal termination of Gaussian 16 at Tue Apr  8 22:42:01 2025.
 Initial command:
 /arc/software/Gaussian/g16.c01/l1.exe "/tmp/slurm/4841485/Gau-2341868.inp" -scrdir="/tmp/slurm/4841485/"
 Entering Link 1 = /arc/software/Gaussian/g16.c01/l1.exe PID=   2342215.
  
 Copyright (c) 1988-2019, Gaussian, Inc.  All Rights Reserved.
  
 This is part of the Gaussian(R) 16 program.  It is based on
 the Gaussian(R) 09 system (copyright 2009, Gaussian, Inc.),
 the Gaussian(R) 03 system (copyright 2003, Gaussian, Inc.),
 the Gaussian(R) 98 system (copyright 1998, Gaussian, Inc.),
 the Gaussian(R) 94 system (copyright 1995, Gaussian, Inc.),
 the Gaussian 92(TM) system (copyright 1992, Gaussian, Inc.),
 the Gaussian 90(TM) system (copyright 1990, Gaussian, Inc.),
 the Gaussian 88(TM) system (copyright 1988, Gaussian, Inc.),
 the Gaussian 86(TM) system (copyright 1986, Carnegie Mellon
 University), and the Gaussian 82(TM) system (copyright 1983,
 Carnegie Mellon University). Gaussian is a federally registered
 trademark of Gaussian, Inc.
  
 This software contains proprietary and confidential information,
 including trade secrets, belonging to Gaussian, Inc.
  
 This software is provided under written license and may be
 used, copied, transmitted, or stored only in accord with that
 written license.
  
 The following legend is applicable only to US Government
 contracts under FAR:
  
                    RESTRICTED RIGHTS LEGEND
  
 Use, reproduction and disclosure by the US Government is
 subject to restrictions as set forth in subparagraphs (a)
 and (c) of the Commercial Computer Software - Restricted
 Rights clause in FAR 52.227-19.
  
 Gaussian, Inc.
 340 Quinnipiac St., Bldg. 40, Wallingford CT 06492
  
  
 ---------------------------------------------------------------
 Warning -- This program may not be used in any manner that
 competes with the business of Gaussian, Inc. or will provide
 assistance to any competitor of Gaussian, Inc.  The licensee
 of this program is prohibited from giving any competitor of
 Gaussian, Inc. access to this program.  By using this program,
 the user acknowledges that Gaussian, Inc. is engaged in the
 business of creating and licensing software in the field of
 computational chemistry and represents and warrants to the
 licensee that it is not a competitor of Gaussian, Inc. and that
 it will not use this program in any manner prohibited above.
 ---------------------------------------------------------------
  

 Cite this work as:
 Gaussian 16, Revision C.01,
 M. J. Frisch, G. W. Trucks, H. B. Schlegel, G. E. Scuseria, 
 M. A. Robb, J. R. Cheeseman, G. Scalmani, V. Barone, 
 G. A. Petersson, H. Nakatsuji, X. Li, M. Caricato, A. V. Marenich, 
 J. Bloino, B. G. Janesko, R. Gomperts, B. Mennucci, H. P. Hratchian, 
 J. V. Ortiz, A. F. Izmaylov, J. L. Sonnenberg, D. Williams-Young, 
 F. Ding, F. Lipparini, F. Egidi, J. Goings, B. Peng, A. Petrone, 
 T. Henderson, D. Ranasinghe, V. G. Zakrzewski, J. Gao, N. Rega, 
 G. Zheng, W. Liang, M. Hada, M. Ehara, K. Toyota, R. Fukuda, 
 J. Hasegawa, M. Ishida, T. Nakajima, Y. Honda, O. Kitao, H. Nakai, 
 T. Vreven, K. Throssell, J. A. Montgomery, Jr., J. E. Peralta, 
 F. Ogliaro, M. J. Bearpark, J. J. Heyd, E. N. Brothers, K. N. Kudin, 
 V. N. Staroverov, T. A. Keith, R. Kobayashi, J. Normand, 
 K. Raghavachari, A. P. Rendell, J. C. Burant, S. S. Iyengar, 
 J. Tomasi, M. Cossi, J. M. Millam, M. Klene, C. Adamo, R. Cammi, 
 J. W. Ochterski, R. L. Martin, K. Morokuma, O. Farkas, 
 J. B. Foresman, and D. J. Fox, Gaussian, Inc., Wallingford CT, 2019.
 
 ******************************************
 Gaussian 16:  ES64L-G16RevC.01  3-Jul-2019
                 8-Apr-2025 
 ******************************************
 %nprocs=16
 Will use up to   16 processors via shared memory.
 %mem=30GB
 %chk=BDE49_expt_1452_mol1.chk
 ----------------------------------------------------------------------
 #t hf aug-cc-pvdz iop(5/13=1,5/36=2,99/5=2) pseudo=read geom=check gue
 ss=(read,tcheck) scf=(maxcycle=1)
 ----------------------------------------------------------------------
 -----
 title
 -----
 Structure from the checkpoint file:  "BDE49_expt_1452_mol1.chk"
 Charge =  0 Multiplicity = 1
 Z-Matrix found in chk file.
 O,0,0.116376,-0.526033,0.228885
 C,0,1.267013,0.082486,-0.134881
 C,0,-1.135151,0.05492,-0.250954
 O,0,1.322001,1.069757,-0.824802
 C,0,2.457939,-0.643236,0.442865
 C,0,-1.566292,1.174822,0.687858
 H,0,-1.697353,0.793894,1.704396
 H,0,-2.516412,1.600901,0.354067
 H,0,-0.822052,1.972371,0.69985
 H,0,2.439325,-1.693047,0.143177
 H,0,2.413293,-0.614368,1.534134
 H,0,3.373907,-0.168961,0.097072
 C,0,-2.126887,-1.094985,-0.325768
 H,0,-0.941,0.464312,-1.244251
 H,0,-2.285736,-1.533878,0.662721
 H,0,-1.762178,-1.876847,-0.995079
 H,0,-3.088534,-0.738208,-0.703467
 Recover connectivity data from disk.
                    Distance matrix (angstroms):
                    1          2          3          4          5
     1  O    0.000000
     2  C    1.351513   0.000000
     3  C    1.460846   2.405125   0.000000
     4  O    2.260605   1.205703   2.719704   0.000000
     5  C    2.354239   1.509559   3.725467   2.414887   0.000000
     6  C    2.436172   3.146063   1.523624   3.262118   4.422645
     7  H    2.684949   3.560408   2.164613   3.948347   4.574194
     8  H    3.386900   4.105966   2.159627   4.050341   5.457857
     9  H    2.710070   2.938134   2.163025   2.781410   4.203068
    10  H    2.601030   2.145728   3.998451   3.133446   1.091908
    11  H    2.643351   2.141302   4.028144   3.097059   1.092563
    12  H    3.279693   2.134486   4.528007   2.567994   1.087891
    13  C    2.379827   3.597420   1.520335   4.102435   4.670707
    14  H    2.066145   2.500363   1.091758   2.379848   3.952949
    15  H    2.640854   3.983821   2.164007   4.691205   4.831566
    16  H    2.617585   3.708763   2.163009   4.268914   4.625891
    17  H    3.344510   4.468514   2.156276   4.768257   5.664491
                    6          7          8          9         10
     6  C    0.000000
     7  H    1.093450   0.000000
     8  H    1.093475   1.773558   0.000000
     9  H    1.090927   1.778784   1.768732   0.000000
    10  H    4.956442   5.072907   5.954318   4.937788   0.000000
    11  H    4.444601   4.348517   5.531904   4.225483   1.760394
    12  H    5.153673   5.406317   6.155836   4.749181   1.788409
    13  C    2.548279   2.806052   2.807438   3.487572   4.629026
    14  H    2.151478   3.061897   2.515627   2.463315   4.243318
    15  H    2.802729   2.617213   3.158373   3.799675   4.756202
    16  H    3.490463   3.797924   3.805758   4.309652   4.356838
    17  H    2.812950   3.174984   2.630044   3.801773   5.673249
                   11         12         13         14         15
    11  H    0.000000
    12  H    1.785025   0.000000
    13  C    4.929854   5.594198   0.000000
    14  H    4.487121   4.562741   2.163642   0.000000
    15  H    4.866799   5.849318   1.093147   3.072071   0.000000
    16  H    5.042354   5.521688   1.091924   2.493481   1.772016
    17  H    5.940732   6.536670   1.093029   2.520001   1.773146
                   16         17
    16  H    0.000000
    17  H    1.772218   0.000000
 Framework group  C1[X(C5H10O2)]
 Deg. of freedom    45
                         Standard orientation:                         
 ---------------------------------------------------------------------
 Center     Atomic      Atomic             Coordinates (Angstroms)
 Number     Number       Type             X           Y           Z
 ---------------------------------------------------------------------
      1          8           0        0.116376   -0.526033    0.228885
      2          6           0        1.267013    0.082486   -0.134881
      3          6           0       -1.135151    0.054920   -0.250954
      4          8           0        1.322001    1.069757   -0.824802
      5          6           0        2.457939   -0.643236    0.442865
      6          6           0       -1.566292    1.174822    0.687858
      7          1           0       -1.697353    0.793894    1.704396
      8          1           0       -2.516412    1.600901    0.354067
      9          1           0       -0.822052    1.972371    0.699850
     10          1           0        2.439325   -1.693047    0.143177
     11          1           0        2.413293   -0.614368    1.534134
     12          1           0        3.373907   -0.168961    0.097072
     13          6           0       -2.126887   -1.094985   -0.325768
     14          1           0       -0.941000    0.464312   -1.244251
     15          1           0       -2.285736   -1.533878    0.662721
     16          1           0       -1.762178   -1.876847   -0.995079
     17          1           0       -3.088534   -0.738208   -0.703467
 ---------------------------------------------------------------------
 Rotational constants (GHZ):           4.7185334           1.6710981           1.4556983
 ======================================================================================================
                                       Pseudopotential Parameters
 ======================================================================================================
  Center     Atomic      Valence      Angular      Power
  Number     Number     Electrons     Momentum     of R      Exponent        Coefficient   SO-Coeffient
 ======================================================================================================
    1          8            8
                                      G and up 
                                                     0        0.0000010        0.00001165    0.00000000
                                                     2        0.1200000       -0.01744018    0.00000000
                                                     2        0.1400000        0.05401326    0.00000000
                                                     2        0.1800000       -0.08231208    0.00000000
                                                     2        0.2600000        0.11570222    0.00000000
                                                     2        0.4000000       -0.20630360    0.00000000
                                                     2        0.7000000        0.38074319    0.00000000
                                                     2        1.2000000       -0.17045091    0.00000000
                                                     2        2.0000000       -1.45433187    0.00000000
                                      S - G
                                                     0        0.0000010       -0.00117944    0.00000000
                                                     2        0.1400000        0.04368312    0.00000000
                                                     2        0.3000000       -0.33477926    0.00000000
                                                     2        0.6000000        1.52630657    0.00000000
                                                     2        1.5000000       -2.50804716    0.00000000
                                                     2        3.0000000        2.89751681    0.00000000
                                      P - G
                                                     0        0.0000010        0.06576007    0.00000000
                                                     2        0.1200000       -0.10329304    0.00000000
                                                     2        0.2000000        0.24891756    0.00000000
                                                     2        0.4000000       -0.50800022    0.00000000
                                                     2        0.9000000        0.81480796    0.00000000
                                      D - G
                                                     0        0.0000010       -0.14101855    0.00000000
                                                     2        0.1200000        0.22105937    0.00000000
                                                     2        0.1800000       -0.45814988    0.00000000
                                                     2        0.3000000        0.46029282    0.00000000
                                      F - G
                                                     0        0.0000010        0.07483044    0.00000000
                                                     2        0.1200000       -0.09134252    0.00000000
                                                     2        0.1400000        0.04125459    0.00000000
                                                     2        0.3000000        0.37914837    0.00000000
                                                     2        0.5000000       -0.86881279    0.00000000
    2          6            6
                                      G and up 
                                                     0        0.0000010       -0.00011185    0.00000000
                                                     2        0.1200000       -0.02301220    0.00000000
                                                     2        0.1400000        0.13317600    0.00000000
                                                     2        0.1600000       -0.19690668    0.00000000
                                                     2        0.2200000        0.23163694    0.00000000
                                                     2        0.3000000       -0.36920489    0.00000000
                                                     2        0.4000000        0.36389709    0.00000000
                                                     2        0.7000000       -0.38862160    0.00000000
                                                     2        1.3000000        0.80803421    0.00000000
                                      S - G
                                                     0        0.0000010        0.00312304    0.00000000
                                                     2        0.1200000       -0.00632892    0.00000000
                                                     2        0.2200000       -0.03780897    0.00000000
                                                     2        0.4000000        0.26269560    0.00000000
                                                     2        0.9000000       -0.28209514    0.00000000
                                                     2        1.5000000       -0.72686737    0.00000000
                                      P - G
                                                     0        0.0000010       -0.01465594    0.00000000
                                                     2        0.1200000        0.07908409    0.00000000
                                                     2        0.1800000       -0.30615861    0.00000000
                                                     2        0.2600000        0.41506950    0.00000000
                                                     2        0.5000000       -0.36252345    0.00000000
                                                     2        0.9000000        0.15124193    0.00000000
                                                     2        3.0000000       -0.80425677    0.00000000
                                      D - G
                                                     0        0.0000010        0.01149631    0.00000000
                                                     2        0.1200000       -0.04713561    0.00000000
                                                     2        0.1600000        0.10865096    0.00000000
                                                     2        0.2800000       -0.15816701    0.00000000
                                                     2        0.7000000        0.65478804    0.00000000
                                                     2        1.3000000       -1.73816624    0.00000000
                                      F - G
                                                     0        0.0000010        0.00481868    0.00000000
                                                     2        0.1200000       -0.04746842    0.00000000
                                                     2        0.1600000        0.09327889    0.00000000
                                                     2        0.4000000       -0.19693326    0.00000000
                                                     2        0.9000000        0.34938253    0.00000000
    3          6            6
                                      G and up 
                                                     0        0.0000010       -0.00011185    0.00000000
                                                     2        0.1200000       -0.02301220    0.00000000
                                                     2        0.1400000        0.13317600    0.00000000
                                                     2        0.1600000       -0.19690668    0.00000000
                                                     2        0.2200000        0.23163694    0.00000000
                                                     2        0.3000000       -0.36920489    0.00000000
                                                     2        0.4000000        0.36389709    0.00000000
                                                     2        0.7000000       -0.38862160    0.00000000
                                                     2        1.3000000        0.80803421    0.00000000
                                      S - G
                                                     0        0.0000010        0.00312304    0.00000000
                                                     2        0.1200000       -0.00632892    0.00000000
                                                     2        0.2200000       -0.03780897    0.00000000
                                                     2        0.4000000        0.26269560    0.00000000
                                                     2        0.9000000       -0.28209514    0.00000000
                                                     2        1.5000000       -0.72686737    0.00000000
                                      P - G
                                                     0        0.0000010       -0.01465594    0.00000000
                                                     2        0.1200000        0.07908409    0.00000000
                                                     2        0.1800000       -0.30615861    0.00000000
                                                     2        0.2600000        0.41506950    0.00000000
                                                     2        0.5000000       -0.36252345    0.00000000
                                                     2        0.9000000        0.15124193    0.00000000
                                                     2        3.0000000       -0.80425677    0.00000000
                                      D - G
                                                     0        0.0000010        0.01149631    0.00000000
                                                     2        0.1200000       -0.04713561    0.00000000
                                                     2        0.1600000        0.10865096    0.00000000
                                                     2        0.2800000       -0.15816701    0.00000000
                                                     2        0.7000000        0.65478804    0.00000000
                                                     2        1.3000000       -1.73816624    0.00000000
                                      F - G
                                                     0        0.0000010        0.00481868    0.00000000
                                                     2        0.1200000       -0.04746842    0.00000000
                                                     2        0.1600000        0.09327889    0.00000000
                                                     2        0.4000000       -0.19693326    0.00000000
                                                     2        0.9000000        0.34938253    0.00000000
    4          8            8
                                      G and up 
                                                     0        0.0000010        0.00001165    0.00000000
                                                     2        0.1200000       -0.01744018    0.00000000
                                                     2        0.1400000        0.05401326    0.00000000
                                                     2        0.1800000       -0.08231208    0.00000000
                                                     2        0.2600000        0.11570222    0.00000000
                                                     2        0.4000000       -0.20630360    0.00000000
                                                     2        0.7000000        0.38074319    0.00000000
                                                     2        1.2000000       -0.17045091    0.00000000
                                                     2        2.0000000       -1.45433187    0.00000000
                                      S - G
                                                     0        0.0000010       -0.00117944    0.00000000
                                                     2        0.1400000        0.04368312    0.00000000
                                                     2        0.3000000       -0.33477926    0.00000000
                                                     2        0.6000000        1.52630657    0.00000000
                                                     2        1.5000000       -2.50804716    0.00000000
                                                     2        3.0000000        2.89751681    0.00000000
                                      P - G
                                                     0        0.0000010        0.06576007    0.00000000
                                                     2        0.1200000       -0.10329304    0.00000000
                                                     2        0.2000000        0.24891756    0.00000000
                                                     2        0.4000000       -0.50800022    0.00000000
                                                     2        0.9000000        0.81480796    0.00000000
                                      D - G
                                                     0        0.0000010       -0.14101855    0.00000000
                                                     2        0.1200000        0.22105937    0.00000000
                                                     2        0.1800000       -0.45814988    0.00000000
                                                     2        0.3000000        0.46029282    0.00000000
                                      F - G
                                                     0        0.0000010        0.07483044    0.00000000
                                                     2        0.1200000       -0.09134252    0.00000000
                                                     2        0.1400000        0.04125459    0.00000000
                                                     2        0.3000000        0.37914837    0.00000000
                                                     2        0.5000000       -0.86881279    0.00000000
    5          6            6
                                      G and up 
                                                     0        0.0000010       -0.00011185    0.00000000
                                                     2        0.1200000       -0.02301220    0.00000000
                                                     2        0.1400000        0.13317600    0.00000000
                                                     2        0.1600000       -0.19690668    0.00000000
                                                     2        0.2200000        0.23163694    0.00000000
                                                     2        0.3000000       -0.36920489    0.00000000
                                                     2        0.4000000        0.36389709    0.00000000
                                                     2        0.7000000       -0.38862160    0.00000000
                                                     2        1.3000000        0.80803421    0.00000000
                                      S - G
                                                     0        0.0000010        0.00312304    0.00000000
                                                     2        0.1200000       -0.00632892    0.00000000
                                                     2        0.2200000       -0.03780897    0.00000000
                                                     2        0.4000000        0.26269560    0.00000000
                                                     2        0.9000000       -0.28209514    0.00000000
                                                     2        1.5000000       -0.72686737    0.00000000
                                      P - G
                                                     0        0.0000010       -0.01465594    0.00000000
                                                     2        0.1200000        0.07908409    0.00000000
                                                     2        0.1800000       -0.30615861    0.00000000
                                                     2        0.2600000        0.41506950    0.00000000
                                                     2        0.5000000       -0.36252345    0.00000000
                                                     2        0.9000000        0.15124193    0.00000000
                                                     2        3.0000000       -0.80425677    0.00000000
                                      D - G
                                                     0        0.0000010        0.01149631    0.00000000
                                                     2        0.1200000       -0.04713561    0.00000000
                                                     2        0.1600000        0.10865096    0.00000000
                                                     2        0.2800000       -0.15816701    0.00000000
                                                     2        0.7000000        0.65478804    0.00000000
                                                     2        1.3000000       -1.73816624    0.00000000
                                      F - G
                                                     0        0.0000010        0.00481868    0.00000000
                                                     2        0.1200000       -0.04746842    0.00000000
                                                     2        0.1600000        0.09327889    0.00000000
                                                     2        0.4000000       -0.19693326    0.00000000
                                                     2        0.9000000        0.34938253    0.00000000
    6          6            6
                                      G and up 
                                                     0        0.0000010       -0.00011185    0.00000000
                                                     2        0.1200000       -0.02301220    0.00000000
                                                     2        0.1400000        0.13317600    0.00000000
                                                     2        0.1600000       -0.19690668    0.00000000
                                                     2        0.2200000        0.23163694    0.00000000
                                                     2        0.3000000       -0.36920489    0.00000000
                                                     2        0.4000000        0.36389709    0.00000000
                                                     2        0.7000000       -0.38862160    0.00000000
                                                     2        1.3000000        0.80803421    0.00000000
                                      S - G
                                                     0        0.0000010        0.00312304    0.00000000
                                                     2        0.1200000       -0.00632892    0.00000000
                                                     2        0.2200000       -0.03780897    0.00000000
                                                     2        0.4000000        0.26269560    0.00000000
                                                     2        0.9000000       -0.28209514    0.00000000
                                                     2        1.5000000       -0.72686737    0.00000000
                                      P - G
                                                     0        0.0000010       -0.01465594    0.00000000
                                                     2        0.1200000        0.07908409    0.00000000
                                                     2        0.1800000       -0.30615861    0.00000000
                                                     2        0.2600000        0.41506950    0.00000000
                                                     2        0.5000000       -0.36252345    0.00000000
                                                     2        0.9000000        0.15124193    0.00000000
                                                     2        3.0000000       -0.80425677    0.00000000
                                      D - G
                                                     0        0.0000010        0.01149631    0.00000000
                                                     2        0.1200000       -0.04713561    0.00000000
                                                     2        0.1600000        0.10865096    0.00000000
                                                     2        0.2800000       -0.15816701    0.00000000
                                                     2        0.7000000        0.65478804    0.00000000
                                                     2        1.3000000       -1.73816624    0.00000000
                                      F - G
                                                     0        0.0000010        0.00481868    0.00000000
                                                     2        0.1200000       -0.04746842    0.00000000
                                                     2        0.1600000        0.09327889    0.00000000
                                                     2        0.4000000       -0.19693326    0.00000000
                                                     2        0.9000000        0.34938253    0.00000000
    7          1            1
                                      F and up 
                                                     0        0.0000010       -0.00000699    0.00000000
                                                     2        0.1200000        0.00123686    0.00000000
                                                     2        0.1800000       -0.00752022    0.00000000
                                                     2        0.2600000        0.02503380    0.00000000
                                                     2        0.4000000       -0.08702670    0.00000000
                                                     2        0.6000000        0.30134159    0.00000000
                                                     2        0.8000000       -0.50204959    0.00000000
                                                     2        1.2000000        0.52208372    0.00000000
                                      S - F
                                                     0        0.0000010       -0.01618346    0.00000000
                                                     2        0.1200000       -0.07880581    0.00000000
                                                     2        0.1600000        0.32040539    0.00000000
                                                     2        0.2400000       -0.47500956    0.00000000
                                                     2        0.5000000        0.54013668    0.00000000
                                                     2        1.5000000       -1.40434292    0.00000000
                                                     2        3.0000000        1.46283806    0.00000000
                                      P - F
                                                     0        0.0000010        0.00612970    0.00000000
                                                     2        0.1200000        0.02254406    0.00000000
                                                     2        0.1800000       -0.13874529    0.00000000
                                                     2        0.3000000        0.38299049    0.00000000
                                                     2        0.5000000       -0.57923512    0.00000000
                                                     2        1.0000000        0.63021625    0.00000000
                                                     2        2.0000000       -0.79201034    0.00000000
                                      D - F
                                                     0        0.0000010       -0.00296226    0.00000000
                                                     2        0.1200000       -0.00547344    0.00000000
                                                     2        0.1400000        0.01837884    0.00000000
                                                     2        0.2400000       -0.05565704    0.00000000
                                                     2        0.4000000        0.15376597    0.00000000
                                                     2        0.8000000       -0.32464795    0.00000000
    8          1            1
                                      F and up 
                                                     0        0.0000010       -0.00000699    0.00000000
                                                     2        0.1200000        0.00123686    0.00000000
                                                     2        0.1800000       -0.00752022    0.00000000
                                                     2        0.2600000        0.02503380    0.00000000
                                                     2        0.4000000       -0.08702670    0.00000000
                                                     2        0.6000000        0.30134159    0.00000000
                                                     2        0.8000000       -0.50204959    0.00000000
                                                     2        1.2000000        0.52208372    0.00000000
                                      S - F
                                                     0        0.0000010       -0.01618346    0.00000000
                                                     2        0.1200000       -0.07880581    0.00000000
                                                     2        0.1600000        0.32040539    0.00000000
                                                     2        0.2400000       -0.47500956    0.00000000
                                                     2        0.5000000        0.54013668    0.00000000
                                                     2        1.5000000       -1.40434292    0.00000000
                                                     2        3.0000000        1.46283806    0.00000000
                                      P - F
                                                     0        0.0000010        0.00612970    0.00000000
                                                     2        0.1200000        0.02254406    0.00000000
                                                     2        0.1800000       -0.13874529    0.00000000
                                                     2        0.3000000        0.38299049    0.00000000
                                                     2        0.5000000       -0.57923512    0.00000000
                                                     2        1.0000000        0.63021625    0.00000000
                                                     2        2.0000000       -0.79201034    0.00000000
                                      D - F
                                                     0        0.0000010       -0.00296226    0.00000000
                                                     2        0.1200000       -0.00547344    0.00000000
                                                     2        0.1400000        0.01837884    0.00000000
                                                     2        0.2400000       -0.05565704    0.00000000
                                                     2        0.4000000        0.15376597    0.00000000
                                                     2        0.8000000       -0.32464795    0.00000000
    9          1            1
                                      F and up 
                                                     0        0.0000010       -0.00000699    0.00000000
                                                     2        0.1200000        0.00123686    0.00000000
                                                     2        0.1800000       -0.00752022    0.00000000
                                                     2        0.2600000        0.02503380    0.00000000
                                                     2        0.4000000       -0.08702670    0.00000000
                                                     2        0.6000000        0.30134159    0.00000000
                                                     2        0.8000000       -0.50204959    0.00000000
                                                     2        1.2000000        0.52208372    0.00000000
                                      S - F
                                                     0        0.0000010       -0.01618346    0.00000000
                                                     2        0.1200000       -0.07880581    0.00000000
                                                     2        0.1600000        0.32040539    0.00000000
                                                     2        0.2400000       -0.47500956    0.00000000
                                                     2        0.5000000        0.54013668    0.00000000
                                                     2        1.5000000       -1.40434292    0.00000000
                                                     2        3.0000000        1.46283806    0.00000000
                                      P - F
                                                     0        0.0000010        0.00612970    0.00000000
                                                     2        0.1200000        0.02254406    0.00000000
                                                     2        0.1800000       -0.13874529    0.00000000
                                                     2        0.3000000        0.38299049    0.00000000
                                                     2        0.5000000       -0.57923512    0.00000000
                                                     2        1.0000000        0.63021625    0.00000000
                                                     2        2.0000000       -0.79201034    0.00000000
                                      D - F
                                                     0        0.0000010       -0.00296226    0.00000000
                                                     2        0.1200000       -0.00547344    0.00000000
                                                     2        0.1400000        0.01837884    0.00000000
                                                     2        0.2400000       -0.05565704    0.00000000
                                                     2        0.4000000        0.15376597    0.00000000
                                                     2        0.8000000       -0.32464795    0.00000000
   10          1            1
                                      F and up 
                                                     0        0.0000010       -0.00000699    0.00000000
                                                     2        0.1200000        0.00123686    0.00000000
                                                     2        0.1800000       -0.00752022    0.00000000
                                                     2        0.2600000        0.02503380    0.00000000
                                                     2        0.4000000       -0.08702670    0.00000000
                                                     2        0.6000000        0.30134159    0.00000000
                                                     2        0.8000000       -0.50204959    0.00000000
                                                     2        1.2000000        0.52208372    0.00000000
                                      S - F
                                                     0        0.0000010       -0.01618346    0.00000000
                                                     2        0.1200000       -0.07880581    0.00000000
                                                     2        0.1600000        0.32040539    0.00000000
                                                     2        0.2400000       -0.47500956    0.00000000
                                                     2        0.5000000        0.54013668    0.00000000
                                                     2        1.5000000       -1.40434292    0.00000000
                                                     2        3.0000000        1.46283806    0.00000000
                                      P - F
                                                     0        0.0000010        0.00612970    0.00000000
                                                     2        0.1200000        0.02254406    0.00000000
                                                     2        0.1800000       -0.13874529    0.00000000
                                                     2        0.3000000        0.38299049    0.00000000
                                                     2        0.5000000       -0.57923512    0.00000000
                                                     2        1.0000000        0.63021625    0.00000000
                                                     2        2.0000000       -0.79201034    0.00000000
                                      D - F
                                                     0        0.0000010       -0.00296226    0.00000000
                                                     2        0.1200000       -0.00547344    0.00000000
                                                     2        0.1400000        0.01837884    0.00000000
                                                     2        0.2400000       -0.05565704    0.00000000
                                                     2        0.4000000        0.15376597    0.00000000
                                                     2        0.8000000       -0.32464795    0.00000000
   11          1            1
                                      F and up 
                                                     0        0.0000010       -0.00000699    0.00000000
                                                     2        0.1200000        0.00123686    0.00000000
                                                     2        0.1800000       -0.00752022    0.00000000
                                                     2        0.2600000        0.02503380    0.00000000
                                                     2        0.4000000       -0.08702670    0.00000000
                                                     2        0.6000000        0.30134159    0.00000000
                                                     2        0.8000000       -0.50204959    0.00000000
                                                     2        1.2000000        0.52208372    0.00000000
                                      S - F
                                                     0        0.0000010       -0.01618346    0.00000000
                                                     2        0.1200000       -0.07880581    0.00000000
                                                     2        0.1600000        0.32040539    0.00000000
                                                     2        0.2400000       -0.47500956    0.00000000
                                                     2        0.5000000        0.54013668    0.00000000
                                                     2        1.5000000       -1.40434292    0.00000000
                                                     2        3.0000000        1.46283806    0.00000000
                                      P - F
                                                     0        0.0000010        0.00612970    0.00000000
                                                     2        0.1200000        0.02254406    0.00000000
                                                     2        0.1800000       -0.13874529    0.00000000
                                                     2        0.3000000        0.38299049    0.00000000
                                                     2        0.5000000       -0.57923512    0.00000000
                                                     2        1.0000000        0.63021625    0.00000000
                                                     2        2.0000000       -0.79201034    0.00000000
                                      D - F
                                                     0        0.0000010       -0.00296226    0.00000000
                                                     2        0.1200000       -0.00547344    0.00000000
                                                     2        0.1400000        0.01837884    0.00000000
                                                     2        0.2400000       -0.05565704    0.00000000
                                                     2        0.4000000        0.15376597    0.00000000
                                                     2        0.8000000       -0.32464795    0.00000000
   12          1            1
                                      F and up 
                                                     0        0.0000010       -0.00000699    0.00000000
                                                     2        0.1200000        0.00123686    0.00000000
                                                     2        0.1800000       -0.00752022    0.00000000
                                                     2        0.2600000        0.02503380    0.00000000
                                                     2        0.4000000       -0.08702670    0.00000000
                                                     2        0.6000000        0.30134159    0.00000000
                                                     2        0.8000000       -0.50204959    0.00000000
                                                     2        1.2000000        0.52208372    0.00000000
                                      S - F
                                                     0        0.0000010       -0.01618346    0.00000000
                                                     2        0.1200000       -0.07880581    0.00000000
                                                     2        0.1600000        0.32040539    0.00000000
                                                     2        0.2400000       -0.47500956    0.00000000
                                                     2        0.5000000        0.54013668    0.00000000
                                                     2        1.5000000       -1.40434292    0.00000000
                                                     2        3.0000000        1.46283806    0.00000000
                                      P - F
                                                     0        0.0000010        0.00612970    0.00000000
                                                     2        0.1200000        0.02254406    0.00000000
                                                     2        0.1800000       -0.13874529    0.00000000
                                                     2        0.3000000        0.38299049    0.00000000
                                                     2        0.5000000       -0.57923512    0.00000000
                                                     2        1.0000000        0.63021625    0.00000000
                                                     2        2.0000000       -0.79201034    0.00000000
                                      D - F
                                                     0        0.0000010       -0.00296226    0.00000000
                                                     2        0.1200000       -0.00547344    0.00000000
                                                     2        0.1400000        0.01837884    0.00000000
                                                     2        0.2400000       -0.05565704    0.00000000
                                                     2        0.4000000        0.15376597    0.00000000
                                                     2        0.8000000       -0.32464795    0.00000000
   13          6            6
                                      G and up 
                                                     0        0.0000010       -0.00011185    0.00000000
                                                     2        0.1200000       -0.02301220    0.00000000
                                                     2        0.1400000        0.13317600    0.00000000
                                                     2        0.1600000       -0.19690668    0.00000000
                                                     2        0.2200000        0.23163694    0.00000000
                                                     2        0.3000000       -0.36920489    0.00000000
                                                     2        0.4000000        0.36389709    0.00000000
                                                     2        0.7000000       -0.38862160    0.00000000
                                                     2        1.3000000        0.80803421    0.00000000
                                      S - G
                                                     0        0.0000010        0.00312304    0.00000000
                                                     2        0.1200000       -0.00632892    0.00000000
                                                     2        0.2200000       -0.03780897    0.00000000
                                                     2        0.4000000        0.26269560    0.00000000
                                                     2        0.9000000       -0.28209514    0.00000000
                                                     2        1.5000000       -0.72686737    0.00000000
                                      P - G
                                                     0        0.0000010       -0.01465594    0.00000000
                                                     2        0.1200000        0.07908409    0.00000000
                                                     2        0.1800000       -0.30615861    0.00000000
                                                     2        0.2600000        0.41506950    0.00000000
                                                     2        0.5000000       -0.36252345    0.00000000
                                                     2        0.9000000        0.15124193    0.00000000
                                                     2        3.0000000       -0.80425677    0.00000000
                                      D - G
                                                     0        0.0000010        0.01149631    0.00000000
                                                     2        0.1200000       -0.04713561    0.00000000
                                                     2        0.1600000        0.10865096    0.00000000
                                                     2        0.2800000       -0.15816701    0.00000000
                                                     2        0.7000000        0.65478804    0.00000000
                                                     2        1.3000000       -1.73816624    0.00000000
                                      F - G
                                                     0        0.0000010        0.00481868    0.00000000
                                                     2        0.1200000       -0.04746842    0.00000000
                                                     2        0.1600000        0.09327889    0.00000000
                                                     2        0.4000000       -0.19693326    0.00000000
                                                     2        0.9000000        0.34938253    0.00000000
   14          1            1
                                      F and up 
                                                     0        0.0000010       -0.00000699    0.00000000
                                                     2        0.1200000        0.00123686    0.00000000
                                                     2        0.1800000       -0.00752022    0.00000000
                                                     2        0.2600000        0.02503380    0.00000000
                                                     2        0.4000000       -0.08702670    0.00000000
                                                     2        0.6000000        0.30134159    0.00000000
                                                     2        0.8000000       -0.50204959    0.00000000
                                                     2        1.2000000        0.52208372    0.00000000
                                      S - F
                                                     0        0.0000010       -0.01618346    0.00000000
                                                     2        0.1200000       -0.07880581    0.00000000
                                                     2        0.1600000        0.32040539    0.00000000
                                                     2        0.2400000       -0.47500956    0.00000000
                                                     2        0.5000000        0.54013668    0.00000000
                                                     2        1.5000000       -1.40434292    0.00000000
                                                     2        3.0000000        1.46283806    0.00000000
                                      P - F
                                                     0        0.0000010        0.00612970    0.00000000
                                                     2        0.1200000        0.02254406    0.00000000
                                                     2        0.1800000       -0.13874529    0.00000000
                                                     2        0.3000000        0.38299049    0.00000000
                                                     2        0.5000000       -0.57923512    0.00000000
                                                     2        1.0000000        0.63021625    0.00000000
                                                     2        2.0000000       -0.79201034    0.00000000
                                      D - F
                                                     0        0.0000010       -0.00296226    0.00000000
                                                     2        0.1200000       -0.00547344    0.00000000
                                                     2        0.1400000        0.01837884    0.00000000
                                                     2        0.2400000       -0.05565704    0.00000000
                                                     2        0.4000000        0.15376597    0.00000000
                                                     2        0.8000000       -0.32464795    0.00000000
   15          1            1
                                      F and up 
                                                     0        0.0000010       -0.00000699    0.00000000
                                                     2        0.1200000        0.00123686    0.00000000
                                                     2        0.1800000       -0.00752022    0.00000000
                                                     2        0.2600000        0.02503380    0.00000000
                                                     2        0.4000000       -0.08702670    0.00000000
                                                     2        0.6000000        0.30134159    0.00000000
                                                     2        0.8000000       -0.50204959    0.00000000
                                                     2        1.2000000        0.52208372    0.00000000
                                      S - F
                                                     0        0.0000010       -0.01618346    0.00000000
                                                     2        0.1200000       -0.07880581    0.00000000
                                                     2        0.1600000        0.32040539    0.00000000
                                                     2        0.2400000       -0.47500956    0.00000000
                                                     2        0.5000000        0.54013668    0.00000000
                                                     2        1.5000000       -1.40434292    0.00000000
                                                     2        3.0000000        1.46283806    0.00000000
                                      P - F
                                                     0        0.0000010        0.00612970    0.00000000
                                                     2        0.1200000        0.02254406    0.00000000
                                                     2        0.1800000       -0.13874529    0.00000000
                                                     2        0.3000000        0.38299049    0.00000000
                                                     2        0.5000000       -0.57923512    0.00000000
                                                     2        1.0000000        0.63021625    0.00000000
                                                     2        2.0000000       -0.79201034    0.00000000
                                      D - F
                                                     0        0.0000010       -0.00296226    0.00000000
                                                     2        0.1200000       -0.00547344    0.00000000
                                                     2        0.1400000        0.01837884    0.00000000
                                                     2        0.2400000       -0.05565704    0.00000000
                                                     2        0.4000000        0.15376597    0.00000000
                                                     2        0.8000000       -0.32464795    0.00000000
   16          1            1
                                      F and up 
                                                     0        0.0000010       -0.00000699    0.00000000
                                                     2        0.1200000        0.00123686    0.00000000
                                                     2        0.1800000       -0.00752022    0.00000000
                                                     2        0.2600000        0.02503380    0.00000000
                                                     2        0.4000000       -0.08702670    0.00000000
                                                     2        0.6000000        0.30134159    0.00000000
                                                     2        0.8000000       -0.50204959    0.00000000
                                                     2        1.2000000        0.52208372    0.00000000
                                      S - F
                                                     0        0.0000010       -0.01618346    0.00000000
                                                     2        0.1200000       -0.07880581    0.00000000
                                                     2        0.1600000        0.32040539    0.00000000
                                                     2        0.2400000       -0.47500956    0.00000000
                                                     2        0.5000000        0.54013668    0.00000000
                                                     2        1.5000000       -1.40434292    0.00000000
                                                     2        3.0000000        1.46283806    0.00000000
                                      P - F
                                                     0        0.0000010        0.00612970    0.00000000
                                                     2        0.1200000        0.02254406    0.00000000
                                                     2        0.1800000       -0.13874529    0.00000000
                                                     2        0.3000000        0.38299049    0.00000000
                                                     2        0.5000000       -0.57923512    0.00000000
                                                     2        1.0000000        0.63021625    0.00000000
                                                     2        2.0000000       -0.79201034    0.00000000
                                      D - F
                                                     0        0.0000010       -0.00296226    0.00000000
                                                     2        0.1200000       -0.00547344    0.00000000
                                                     2        0.1400000        0.01837884    0.00000000
                                                     2        0.2400000       -0.05565704    0.00000000
                                                     2        0.4000000        0.15376597    0.00000000
                                                     2        0.8000000       -0.32464795    0.00000000
   17          1            1
                                      F and up 
                                                     0        0.0000010       -0.00000699    0.00000000
                                                     2        0.1200000        0.00123686    0.00000000
                                                     2        0.1800000       -0.00752022    0.00000000
                                                     2        0.2600000        0.02503380    0.00000000
                                                     2        0.4000000       -0.08702670    0.00000000
                                                     2        0.6000000        0.30134159    0.00000000
                                                     2        0.8000000       -0.50204959    0.00000000
                                                     2        1.2000000        0.52208372    0.00000000
                                      S - F
                                                     0        0.0000010       -0.01618346    0.00000000
                                                     2        0.1200000       -0.07880581    0.00000000
                                                     2        0.1600000        0.32040539    0.00000000
                                                     2        0.2400000       -0.47500956    0.00000000
                                                     2        0.5000000        0.54013668    0.00000000
                                                     2        1.5000000       -1.40434292    0.00000000
                                                     2        3.0000000        1.46283806    0.00000000
                                      P - F
                                                     0        0.0000010        0.00612970    0.00000000
                                                     2        0.1200000        0.02254406    0.00000000
                                                     2        0.1800000       -0.13874529    0.00000000
                                                     2        0.3000000        0.38299049    0.00000000
                                                     2        0.5000000       -0.57923512    0.00000000
                                                     2        1.0000000        0.63021625    0.00000000
                                                     2        2.0000000       -0.79201034    0.00000000
                                      D - F
                                                     0        0.0000010       -0.00296226    0.00000000
                                                     2        0.1200000       -0.00547344    0.00000000
                                                     2        0.1400000        0.01837884    0.00000000
                                                     2        0.2400000       -0.05565704    0.00000000
                                                     2        0.4000000        0.15376597    0.00000000
                                                     2        0.8000000       -0.32464795    0.00000000
 ======================================================================================================
   251 basis functions,   411 primitive gaussians,   265 cartesian basis functions
    28 alpha electrons       28 beta electrons
       nuclear repulsion energy       320.2472961352 Hartrees.
 NAtoms=   17 NActive=   17 NUniq=   17 SFac= 1.00D+00 NAtFMM=   60 NAOKFM=F Big=F
   1 Symmetry operations used in ECPInt.
 ECPInt:  NShTT=    6441 NPrTT=   27141 LenC2=    6433 LenP2D=   21468.
 LDataN:  DoStor=T MaxTD1= 6 Len=  172
 Initial guess from the checkpoint file:  "BDE49_expt_1452_mol1.chk"
 B after Tr=    -0.000000   -0.000000   -0.000000
         Rot=    1.000000   -0.000000   -0.000000   -0.000000 Ang=  -0.00 deg.
 >>>>>>>>>> Convergence criterion not met.
 SCF Done:  E(RHF) =  -345.070807351     A.U. after    2 cycles
            NFock=  1  Conv=0.39D-02     -V/T= 1.9990

 **********************************************************************

            Population analysis using the SCF Density.

 **********************************************************************

 Orbital symmetries:
       Occupied  (A) (A) (A) (A) (A) (A) (A) (A) (A) (A) (A) (A)
                 (A) (A) (A) (A) (A) (A) (A) (A) (A) (A) (A) (A)
                 (A) (A) (A) (A)
       Virtual   (A) (A) (A) (A) (A) (A) (A) (A) (A) (A) (A) (A)
                 (A) (A) (A) (A) (A) (A) (A) (A) (A) (A) (A) (A)
                 (A) (A) (A) (A) (A) (A) (A) (A) (A) (A) (A) (A)
                 (A) (A) (A) (A) (A) (A) (A) (A) (A) (A) (A) (A)
                 (A) (A) (A) (A) (A) (A) (A) (A) (A) (A) (A) (A)
                 (A) (A) (A) (A) (A) (A) (A) (A) (A) (A) (A) (A)
                 (A) (A) (A) (A) (A) (A) (A) (A) (A) (A) (A) (A)
                 (A) (A) (A) (A) (A) (A) (A) (A) (A) (A) (A) (A)
                 (A) (A) (A) (A) (A) (A) (A) (A) (A) (A) (A) (A)
                 (A) (A) (A) (A) (A) (A) (A) (A) (A) (A) (A) (A)
                 (A) (A) (A) (A) (A) (A) (A) (A) (A) (A) (A) (A)
                 (A) (A) (A) (A) (A) (A) (A) (A) (A) (A) (A) (A)
                 (A) (A) (A) (A) (A) (A) (A) (A) (A) (A) (A) (A)
                 (A) (A) (A) (A) (A) (A) (A) (A) (A) (A) (A) (A)
                 (A) (A) (A) (A) (A) (A) (A) (A) (A) (A) (A) (A)
                 (A) (A) (A) (A) (A) (A) (A) (A) (A) (A) (A) (A)
                 (A) (A) (A) (A) (A) (A) (A) (A) (A) (A) (A) (A)
                 (A) (A) (A) (A) (A) (A) (A) (A) (A) (A) (A) (A)
                 (A) (A) (A) (A) (A) (A) (A)
 The electronic state is 1-A.
 Alpha  occ. eigenvalues --  -20.60781 -20.55614 -11.39179 -11.30237 -11.24922
 Alpha  occ. eigenvalues --  -11.23322 -11.22937  -1.41115  -1.31955  -1.06950
 Alpha  occ. eigenvalues --   -0.99974  -0.94292  -0.84536  -0.77098  -0.70378
 Alpha  occ. eigenvalues --   -0.67650  -0.66565  -0.61571  -0.59141  -0.58089
 Alpha  occ. eigenvalues --   -0.57012  -0.55203  -0.54076  -0.52757  -0.51111
 Alpha  occ. eigenvalues --   -0.48786  -0.46670  -0.45750
 Alpha virt. eigenvalues --    0.03375   0.04272   0.04712   0.05142   0.06241
 Alpha virt. eigenvalues --    0.06391   0.06874   0.07599   0.07769   0.08861
 Alpha virt. eigenvalues --    0.10723   0.13255   0.13288   0.14247   0.14944
 Alpha virt. eigenvalues --    0.15423   0.15719   0.16509   0.16678   0.17001
 Alpha virt. eigenvalues --    0.17183   0.17689   0.18488   0.19208   0.19234
 Alpha virt. eigenvalues --    0.19909   0.20945   0.22169   0.22695   0.23148
 Alpha virt. eigenvalues --    0.25215   0.26209   0.27281   0.28958   0.29937
 Alpha virt. eigenvalues --    0.30844   0.31439   0.32996   0.33479   0.35412
 Alpha virt. eigenvalues --    0.36078   0.36841   0.37300   0.38397   0.39486
 Alpha virt. eigenvalues --    0.40572   0.40745   0.40980   0.41906   0.43164
 Alpha virt. eigenvalues --    0.44341   0.44829   0.45088   0.46016   0.47016
 Alpha virt. eigenvalues --    0.47393   0.48031   0.48633   0.49160   0.50497
 Alpha virt. eigenvalues --    0.50987   0.51409   0.52120   0.52961   0.53648
 Alpha virt. eigenvalues --    0.55339   0.57103   0.58050   0.58877   0.59395
 Alpha virt. eigenvalues --    0.59732   0.60199   0.60609   0.61590   0.61861
 Alpha virt. eigenvalues --    0.63499   0.63924   0.64472   0.64928   0.66084
 Alpha virt. eigenvalues --    0.67686   0.67734   0.69064   0.69798   0.71754
 Alpha virt. eigenvalues --    0.72563   0.73306   0.74147   0.75083   0.75283
 Alpha virt. eigenvalues --    0.76276   0.77489   0.77973   0.79002   0.80195
 Alpha virt. eigenvalues --    0.80881   0.81620   0.84972   0.85231   0.87053
 Alpha virt. eigenvalues --    0.88320   0.91189   0.91736   0.94072   0.95205
 Alpha virt. eigenvalues --    0.95880   0.96730   0.98187   1.00997   1.02930
 Alpha virt. eigenvalues --    1.04121   1.07249   1.07802   1.09198   1.11651
 Alpha virt. eigenvalues --    1.12573   1.14765   1.15358   1.16579   1.18227
 Alpha virt. eigenvalues --    1.20314   1.23306   1.24098   1.26891   1.27739
 Alpha virt. eigenvalues --    1.29224   1.32352   1.32971   1.34032   1.35846
 Alpha virt. eigenvalues --    1.38644   1.42711   1.44988   1.48286   1.49005
 Alpha virt. eigenvalues --    1.54448   1.56153   1.56871   1.61338   1.61727
 Alpha virt. eigenvalues --    1.64297   1.66819   1.69798   1.71212   1.74589
 Alpha virt. eigenvalues --    1.77059   1.79269   1.79613   1.80937   1.85060
 Alpha virt. eigenvalues --    1.86250   1.88307   1.88907   1.90945   1.92256
 Alpha virt. eigenvalues --    1.93075   1.94561   1.96457   1.98934   2.02050
 Alpha virt. eigenvalues --    2.04519   2.04724   2.05318   2.09676   2.12159
 Alpha virt. eigenvalues --    2.13830   2.16779   2.17559   2.19409   2.19740
 Alpha virt. eigenvalues --    2.22554   2.23698   2.25890   2.26579   2.28115
 Alpha virt. eigenvalues --    2.31006   2.33585   2.34641   2.35698   2.36733
 Alpha virt. eigenvalues --    2.38207   2.40746   2.44678   2.47451   2.49930
 Alpha virt. eigenvalues --    2.52460   2.54291   2.56209   2.57909   2.61514
 Alpha virt. eigenvalues --    2.65466   2.68115   2.71272   2.73253   2.74678
 Alpha virt. eigenvalues --    2.77960   2.82035   2.86335   2.87208   2.88693
 Alpha virt. eigenvalues --    2.90402   2.93454   2.96973   2.97796   2.99656
 Alpha virt. eigenvalues --    3.09648   3.10661   3.13619   3.23892   3.27178
 Alpha virt. eigenvalues --    3.32499   3.37549   3.51005   3.64939   3.66013
 Alpha virt. eigenvalues --    3.68960   3.73548   3.77247   3.80606   3.86487
 Alpha virt. eigenvalues --    4.02041   4.05310   4.16471
          Condensed to atoms (all electrons):
 Mulliken charges:
               1
     1  O   -0.565519
     2  C    0.213867
     3  C   -0.193456
     4  O   -0.463759
     5  C    0.299958
     6  C    0.426353
     7  H    0.001341
     8  H   -0.029152
     9  H   -0.087595
    10  H    0.019581
    11  H    0.024927
    12  H   -0.015091
    13  C    0.539804
    14  H   -0.102272
    15  H   -0.000702
    16  H   -0.063947
    17  H   -0.004337
 Sum of Mulliken charges =  -0.00000
 Mulliken charges with hydrogens summed into heavy atoms:
               1
     1  O   -0.565519
     2  C    0.213867
     3  C   -0.295728
     4  O   -0.463759
     5  C    0.329375
     6  C    0.310947
    13  C    0.470817
 Electronic spatial extent (au):  <R**2>=            910.0484
 Charge=              0.0000 electrons
 Dipole moment (field-independent basis, Debye):
    X=             -0.8548    Y=             -1.6498    Z=              1.1461  Tot=              2.1831

 Test job not archived.
 1\1\GINC-SE423\SP\RHF\Aug-CC-pVDZ\C5H10O2\OHZDE\08-Apr-2025\0\\#t hf a
 ug-cc-pvdz iop(5/13=1,5/36=2,99/5=2) pseudo=read geom=check guess=(rea
 d,tcheck) scf=(maxcycle=1)\\title\\0,1\O,0,0.116376,-0.526033,0.228885
 \C,0,1.267013,0.082486,-0.134881\C,0,-1.135151,0.05492,-0.250954\O,0,1
 .322001,1.069757,-0.824802\C,0,2.457939,-0.643236,0.442865\C,0,-1.5662
 92,1.174822,0.687858\H,0,-1.697353,0.793894,1.704396\H,0,-2.516412,1.6
 00901,0.354067\H,0,-0.822052,1.972371,0.69985\H,0,2.439325,-1.693047,0
 .143177\H,0,2.413293,-0.614368,1.534134\H,0,3.373907,-0.168961,0.09707
 2\C,0,-2.126887,-1.094985,-0.325768\H,0,-0.941,0.464312,-1.244251\H,0,
 -2.285736,-1.533878,0.662721\H,0,-1.762178,-1.876847,-0.995079\H,0,-3.
 088534,-0.738208,-0.703467\\Version=ES64L-G16RevC.01\State=1-A\HF=-345
 .0708074\RMSD=3.923e-03\Dipole=-0.3363175,-0.6490631,0.4509076\Quadrup
 ole=3.2032372,-2.3175111,-0.8857261,-3.2419274,2.5923725,2.0408847\PG=
 C01 [X(C5H10O2)]\\@


 IT IS BY EATING THE LIGHT OF A STAR THAT WE EXIST, 
 IN THE FINAL ANALYSIS, 
 JUST AS IT IS BY PERCEIVING THE LIGHT OF STARS
 THAT WE DEFINE THE WORLD AROUND US.

                                    -- GILBERT GROSVENOR
 Job cpu time:       0 days  0 hours  1 minutes 16.0 seconds.
 Elapsed time:       0 days  0 hours  0 minutes  5.6 seconds.
 File lengths (MBytes):  RWF=     14 Int=      0 D2E=      0 Chk=      9 Scr=      1
 Normal termination of Gaussian 16 at Tue Apr  8 22:42:07 2025.
