 Entering Gaussian System, Link 0=g16
 Input=BDE49_nonexpt_817_mol1.gjf
 Output=BDE49_nonexpt_817_mol1.log
 Initial command:
 /arc/software/Gaussian/g16.c01/l1.exe "/tmp/slurm/4854990/Gau-625519.inp" -scrdir="/tmp/slurm/4854990/"
 Entering Link 1 = /arc/software/Gaussian/g16.c01/l1.exe PID=    625520.
  
 Copyright (c) 1988-2019, Gaussian, Inc.  All Rights Reserved.
  
 This is part of the Gaussian(R) 16 program.  It is based on
 the Gaussian(R) 09 system (copyright 2009, Gaussian, Inc.),
 the Gaussian(R) 03 system (copyright 2003, Gaussian, Inc.),
 the Gaussian(R) 98 system (copyright 1998, Gaussian, Inc.),
 the Gaussian(R) 94 system (copyright 1995, Gaussian, Inc.),
 the Gaussian 92(TM) system (copyright 1992, Gaussian, Inc.),
 the Gaussian 90(TM) system (copyright 1990, Gaussian, Inc.),
 the Gaussian 88(TM) system (copyright 1988, Gaussian, Inc.),
 the Gaussian 86(TM) system (copyright 1986, Carnegie Mellon
 University), and the Gaussian 82(TM) system (copyright 1983,
 Carnegie Mellon University). Gaussian is a federally registered
 trademark of Gaussian, Inc.
  
 This software contains proprietary and confidential information,
 including trade secrets, belonging to Gaussian, Inc.
  
 This software is provided under written license and may be
 used, copied, transmitted, or stored only in accord with that
 written license.
  
 The following legend is applicable only to US Government
 contracts under FAR:
  
                    RESTRICTED RIGHTS LEGEND
  
 Use, reproduction and disclosure by the US Government is
 subject to restrictions as set forth in subparagraphs (a)
 and (c) of the Commercial Computer Software - Restricted
 Rights clause in FAR 52.227-19.
  
 Gaussian, Inc.
 340 Quinnipiac St., Bldg. 40, Wallingford CT 06492
  
  
 ---------------------------------------------------------------
 Warning -- This program may not be used in any manner that
 competes with the business of Gaussian, Inc. or will provide
 assistance to any competitor of Gaussian, Inc.  The licensee
 of this program is prohibited from giving any competitor of
 Gaussian, Inc. access to this program.  By using this program,
 the user acknowledges that Gaussian, Inc. is engaged in the
 business of creating and licensing software in the field of
 computational chemistry and represents and warrants to the
 licensee that it is not a competitor of Gaussian, Inc. and that
 it will not use this program in any manner prohibited above.
 ---------------------------------------------------------------
  

 Cite this work as:
 Gaussian 16, Revision C.01,
 M. J. Frisch, G. W. Trucks, H. B. Schlegel, G. E. Scuseria, 
 M. A. Robb, J. R. Cheeseman, G. Scalmani, V. Barone, 
 G. A. Petersson, H. Nakatsuji, X. Li, M. Caricato, A. V. Marenich, 
 J. Bloino, B. G. Janesko, R. Gomperts, B. Mennucci, H. P. Hratchian, 
 J. V. Ortiz, A. F. Izmaylov, J. L. Sonnenberg, D. Williams-Young, 
 F. Ding, F. Lipparini, F. Egidi, J. Goings, B. Peng, A. Petrone, 
 T. Henderson, D. Ranasinghe, V. G. Zakrzewski, J. Gao, N. Rega, 
 G. Zheng, W. Liang, M. Hada, M. Ehara, K. Toyota, R. Fukuda, 
 J. Hasegawa, M. Ishida, T. Nakajima, Y. Honda, O. Kitao, H. Nakai, 
 T. Vreven, K. Throssell, J. A. Montgomery, Jr., J. E. Peralta, 
 F. Ogliaro, M. J. Bearpark, J. J. Heyd, E. N. Brothers, K. N. Kudin, 
 V. N. Staroverov, T. A. Keith, R. Kobayashi, J. Normand, 
 K. Raghavachari, A. P. Rendell, J. C. Burant, S. S. Iyengar, 
 J. Tomasi, M. Cossi, J. M. Millam, M. Klene, C. Adamo, R. Cammi, 
 J. W. Ochterski, R. L. Martin, K. Morokuma, O. Farkas, 
 J. B. Foresman, and D. J. Fox, Gaussian, Inc., Wallingford CT, 2019.
 
 ******************************************
 Gaussian 16:  ES64L-G16RevC.01  3-Jul-2019
                 9-Apr-2025 
 ******************************************
 %nprocs=16
 Will use up to   16 processors via shared memory.
 %mem=30GB
 %chk=BDE49_nonexpt_817_mol1.chk
 ----------------------------------------------------------------------
 #t hf aug-cc-pvdz symm=none int=(grid=ultrafine) guess=(read,tcheck) s
 table=(opt,rrhf)
 ----------------------------------------------------------------------
 -----
 title
 -----
 Symbolic Z-matrix:
 Charge =  0 Multiplicity = 1
 C                     1.23693  -0.30606   0.47815 
 B                    -1.85233   0.29376  -0.01684 
 O                    -3.15958  -0.0823   -0.01381 
 O                    -1.56225   1.63294  -0.03906 
 C                     2.26514  -0.07514  -0.3486 
 C                     3.55854   0.59288   0.01867 
 H                     2.19022  -0.40193  -1.38626 
 H                     3.57286   0.89708   1.06766 
 H                     3.73385   1.4793   -0.60154 
 H                     4.40559  -0.08003  -0.15631 
 H                    -3.75706   0.67687  -0.03516 
 H                    -0.61624   1.80875  -0.03749 
 Si                   -0.37909  -1.11633  -0.01908 
 H                    -0.20406  -1.67966  -1.38458 
 H                    -0.69206  -2.2373    0.90379 
 H                     1.34668   0.02158   1.51477 
 
                    Distance matrix (angstroms):
                    1          2          3          4          5
     1  C    0.000000
     2  B    3.185640   0.000000
     3  O    4.429603   1.360269   0.000000
     4  O    3.444219   1.370416   2.343952   0.000000
     5  C    1.339420   4.147250   5.435043   4.202653   0.000000
     6  C    2.531614   5.419243   6.752037   5.225665   1.501337
     7  H    2.096180   4.324522   5.532280   4.476239   1.090482
     8  H    2.692877   5.565314   6.888715   5.304306   2.158961
     9  H    3.253887   5.740443   7.092479   5.328100   2.153448
    10  H    3.239444   6.270617   7.566505   6.209921   2.149070
    11  H    5.115617   1.942963   0.966318   2.394001   6.077056
    12  H    2.858762   1.955387   3.169415   0.962215   3.456612
    13  Si   1.874914   2.039313   2.966544   2.993122   2.860876
    14  H    2.726357   2.912363   3.628445   3.824708   3.121654
    15  H    2.762587   2.932582   3.402159   4.077373   3.871490
    16  H    1.092690   3.557184   4.759593   3.670531   2.079679
                    6          7          8          9         10
     6  C    0.000000
     7  H    2.199038   0.000000
     8  H    1.092305   3.101747   0.000000
     9  H    1.095956   2.556869   1.775143   0.000000
    10  H    1.095864   2.554257   1.773780   1.755267   0.000000
    11  H    7.316275   6.193497   7.415679   7.555016   8.198555
    12  H    4.348592   3.818706   4.427301   4.398854   5.366593
    13  Si   4.292755   2.996815   4.566473   4.898241   4.897535
    14  H    4.614189   2.713890   5.188274   5.108746   5.031535
    15  H    5.182755   4.113444   5.295345   5.972246   5.635920
    16  H    2.730756   3.050721   2.433569   3.507460   3.487082
                   11         12         13         14         15
    11  H    0.000000
    12  H    3.338547   0.000000
    13  Si   3.824462   2.934739   0.000000
    14  H    4.471902   3.762118   1.487469   0.000000
    15  H    4.332231   4.154790   1.485328   2.405353   0.000000
    16  H    5.373995   3.075151   2.574064   3.702061   3.103593
                   16
    16  H    0.000000
 Symmetry turned off by external request.
 Rotational constants (GHZ):           4.5317915           0.9149535           0.7917480
   246 basis functions,   438 primitive gaussians,   260 cartesian basis functions
    31 alpha electrons       31 beta electrons
       nuclear repulsion energy       330.3787923959 Hartrees.
 NAtoms=   16 NActive=   16 NUniq=   16 SFac= 1.00D+00 NAtFMM=   60 NAOKFM=F Big=F
 ExpMin= 2.38D-02 ExpMax= 7.89D+04 ExpMxC= 2.69D+03 IAcc=3 IRadAn=         5 AccDes= 0.00D+00
 Harris functional with IExCor=  205 and IRadAn=       5 diagonalized for initial guess.
 HarFok:  IExCor=  205 AccDes= 0.00D+00 IRadAn=         5 IDoV= 1 UseB2=F ITyADJ=14
 ICtDFT=  3500011 ScaDFX=  1.000000  1.000000  1.000000  1.000000
 FoFCou: FMM=F IPFlag=           0 FMFlag=      100000 FMFlg1=           0
         NFxFlg=           0 DoJE=T BraDBF=F KetDBF=T FulRan=T
         wScrn=  0.000000 ICntrl=       500 IOpCl=  0 I1Cent=   200000004 NGrid=           0
         NMat0=    1 NMatS0=      1 NMatT0=    0 NMatD0=    1 NMtDS0=    0 NMtDT0=    0
 Symmetry not used in FoFCou.
 SCF Done:  E(RHF) =  -582.315318434     A.U. after   14 cycles
            NFock= 14  Conv=0.29D-08     -V/T= 2.0004

 **********************************************************************

            Population analysis using the SCF Density.

 **********************************************************************

 Alpha  occ. eigenvalues --  -68.76282 -20.58268 -20.57624 -11.25786 -11.23836
 Alpha  occ. eigenvalues --  -11.22213  -7.64766  -6.11217  -4.21845  -4.21825
 Alpha  occ. eigenvalues --   -4.21765  -1.39069  -1.35021  -1.07406  -0.94127
 Alpha  occ. eigenvalues --   -0.78031  -0.76622  -0.73798  -0.69729  -0.61487
 Alpha  occ. eigenvalues --   -0.59469  -0.58573  -0.57428  -0.57270  -0.56579
 Alpha  occ. eigenvalues --   -0.51862  -0.50137  -0.46742  -0.44882  -0.41970
 Alpha  occ. eigenvalues --   -0.35918
 Alpha virt. eigenvalues --    0.03183   0.04031   0.04536   0.04782   0.05592
 Alpha virt. eigenvalues --    0.06268   0.06656   0.07245   0.07426   0.08198
 Alpha virt. eigenvalues --    0.08880   0.09746   0.10082   0.10363   0.11249
 Alpha virt. eigenvalues --    0.12048   0.13218   0.14311   0.14616   0.15570
 Alpha virt. eigenvalues --    0.15836   0.16668   0.16982   0.17742   0.18281
 Alpha virt. eigenvalues --    0.18634   0.19715   0.20110   0.20756   0.21415
 Alpha virt. eigenvalues --    0.22787   0.23024   0.24293   0.24687   0.25806
 Alpha virt. eigenvalues --    0.26190   0.26493   0.26865   0.28740   0.29724
 Alpha virt. eigenvalues --    0.30198   0.30806   0.31042   0.32692   0.33478
 Alpha virt. eigenvalues --    0.34835   0.35139   0.36901   0.37057   0.38636
 Alpha virt. eigenvalues --    0.39229   0.40084   0.41343   0.42542   0.43284
 Alpha virt. eigenvalues --    0.43431   0.43888   0.44685   0.45586   0.46042
 Alpha virt. eigenvalues --    0.46630   0.47690   0.48561   0.48937   0.50533
 Alpha virt. eigenvalues --    0.51206   0.52255   0.53296   0.53938   0.54061
 Alpha virt. eigenvalues --    0.54978   0.56452   0.56808   0.57814   0.58916
 Alpha virt. eigenvalues --    0.59969   0.60621   0.60963   0.61698   0.62437
 Alpha virt. eigenvalues --    0.62821   0.63774   0.64065   0.65063   0.65779
 Alpha virt. eigenvalues --    0.66178   0.67718   0.68189   0.70114   0.70735
 Alpha virt. eigenvalues --    0.71558   0.73203   0.73684   0.73811   0.74417
 Alpha virt. eigenvalues --    0.75878   0.76921   0.78127   0.78358   0.80052
 Alpha virt. eigenvalues --    0.80830   0.81198   0.82265   0.83856   0.85283
 Alpha virt. eigenvalues --    0.87839   0.88349   0.90519   0.91718   0.92420
 Alpha virt. eigenvalues --    0.94678   0.96947   0.98201   0.99267   1.02853
 Alpha virt. eigenvalues --    1.03393   1.05753   1.06797   1.07639   1.09447
 Alpha virt. eigenvalues --    1.11765   1.13747   1.13979   1.15502   1.16914
 Alpha virt. eigenvalues --    1.18009   1.20049   1.23090   1.25202   1.27037
 Alpha virt. eigenvalues --    1.28479   1.29161   1.30541   1.35028   1.40102
 Alpha virt. eigenvalues --    1.42143   1.43660   1.44962   1.47260   1.47642
 Alpha virt. eigenvalues --    1.50864   1.53872   1.55666   1.58404   1.59364
 Alpha virt. eigenvalues --    1.63965   1.65893   1.68349   1.68610   1.70541
 Alpha virt. eigenvalues --    1.71787   1.74616   1.76188   1.79040   1.80099
 Alpha virt. eigenvalues --    1.83121   1.84629   1.88224   1.89261   1.91791
 Alpha virt. eigenvalues --    1.94189   1.96021   1.98060   2.01938   2.03423
 Alpha virt. eigenvalues --    2.06542   2.07319   2.09544   2.10674   2.12120
 Alpha virt. eigenvalues --    2.13990   2.15972   2.16771   2.18493   2.21303
 Alpha virt. eigenvalues --    2.22718   2.25467   2.26288   2.30259   2.32347
 Alpha virt. eigenvalues --    2.35114   2.37107   2.39882   2.40309   2.43762
 Alpha virt. eigenvalues --    2.44615   2.47217   2.51395   2.56661   2.61394
 Alpha virt. eigenvalues --    2.68152   2.69113   2.71982   2.76541   2.80499
 Alpha virt. eigenvalues --    2.87135   2.90648   2.97652   2.99005   3.01750
 Alpha virt. eigenvalues --    3.11198   3.12351   3.19013   3.44857   3.54797
 Alpha virt. eigenvalues --    3.65757   3.67672   3.71064   3.73519   3.74381
 Alpha virt. eigenvalues --    3.78059   3.88005   3.90168   4.26293   4.29619
          Condensed to atoms (all electrons):
 Mulliken charges:
               1
     1  C    0.225717
     2  B    0.984647
     3  O   -0.674927
     4  O   -0.725740
     5  C    0.317986
     6  C    0.153894
     7  H   -0.519746
     8  H   -0.126100
     9  H    0.054810
    10  H    0.044925
    11  H    0.225518
    12  H    0.285289
    13  Si   0.109753
    14  H    0.046894
    15  H    0.062708
    16  H   -0.465629
 Sum of Mulliken charges =  -0.00000
 Mulliken charges with hydrogens summed into heavy atoms:
               1
     1  C   -0.239912
     2  B    0.984647
     3  O   -0.449409
     4  O   -0.440451
     5  C   -0.201760
     6  C    0.127528
    13  Si   0.219355
 Electronic spatial extent (au):  <R**2>=           1433.6948
 Charge=             -0.0000 electrons
 Dipole moment (field-independent basis, Debye):
    X=              1.8080    Y=              1.5356    Z=             -0.0342  Tot=              2.3724
 NROrb=    246 NOA=    31 NOB=    31 NVA=   215 NVB=   215

 **** Warning!!: The largest alpha MO coefficient is  0.48776681D+02

    12 initial guesses have been made.
 Iteration     1 Dimension    12 NMult     0 NNew     12
 New state      1 was old state      2
 Iteration     2 Dimension    24 NMult    12 NNew     12
 Iteration     3 Dimension    27 NMult    24 NNew      3
 Iteration     4 Dimension    30 NMult    27 NNew      3
 Iteration     5 Dimension    33 NMult    30 NNew      3
 Iteration     6 Dimension    36 NMult    33 NNew      3
 Iteration     7 Dimension    39 NMult    36 NNew      3
 ***********************************************************************
 Stability analysis using <AA,BB:AA,BB> singles matrix:
 ***********************************************************************
 Ground to excited state transition densities written to RWF  633

 Eigenvectors of the stability matrix:
 
 Excited state symmetry could not be determined.
 Eigenvector   1:      Singlet-?Sym  Eigenvalue= 0.2557660  <S**2>=0.000
      31 -> 32         0.54499
      31 -> 36        -0.16986
      31 -> 37        -0.13896
      31 -> 42        -0.16382
      31 -> 47        -0.12154
      31 -> 51        -0.13390
 The wavefunction is stable under the perturbations considered.
 The wavefunction is already stable.

 **********************************************************************

            Population analysis using the SCF Density.

 **********************************************************************

 Alpha  occ. eigenvalues --  -68.76282 -20.58268 -20.57624 -11.25786 -11.23836
 Alpha  occ. eigenvalues --  -11.22213  -7.64766  -6.11217  -4.21845  -4.21825
 Alpha  occ. eigenvalues --   -4.21765  -1.39069  -1.35021  -1.07406  -0.94127
 Alpha  occ. eigenvalues --   -0.78031  -0.76622  -0.73798  -0.69729  -0.61487
 Alpha  occ. eigenvalues --   -0.59469  -0.58573  -0.57428  -0.57270  -0.56579
 Alpha  occ. eigenvalues --   -0.51862  -0.50137  -0.46742  -0.44882  -0.41970
 Alpha  occ. eigenvalues --   -0.35918
 Alpha virt. eigenvalues --    0.03183   0.04031   0.04536   0.04782   0.05592
 Alpha virt. eigenvalues --    0.06268   0.06656   0.07245   0.07426   0.08198
 Alpha virt. eigenvalues --    0.08880   0.09746   0.10082   0.10363   0.11249
 Alpha virt. eigenvalues --    0.12048   0.13218   0.14311   0.14616   0.15570
 Alpha virt. eigenvalues --    0.15836   0.16668   0.16982   0.17742   0.18281
 Alpha virt. eigenvalues --    0.18634   0.19715   0.20110   0.20756   0.21415
 Alpha virt. eigenvalues --    0.22787   0.23024   0.24293   0.24687   0.25806
 Alpha virt. eigenvalues --    0.26190   0.26493   0.26865   0.28740   0.29724
 Alpha virt. eigenvalues --    0.30198   0.30806   0.31042   0.32692   0.33478
 Alpha virt. eigenvalues --    0.34835   0.35139   0.36901   0.37057   0.38636
 Alpha virt. eigenvalues --    0.39229   0.40084   0.41343   0.42542   0.43284
 Alpha virt. eigenvalues --    0.43431   0.43888   0.44685   0.45586   0.46042
 Alpha virt. eigenvalues --    0.46630   0.47690   0.48561   0.48937   0.50533
 Alpha virt. eigenvalues --    0.51206   0.52255   0.53296   0.53938   0.54061
 Alpha virt. eigenvalues --    0.54978   0.56452   0.56808   0.57814   0.58916
 Alpha virt. eigenvalues --    0.59969   0.60621   0.60963   0.61698   0.62437
 Alpha virt. eigenvalues --    0.62821   0.63774   0.64065   0.65063   0.65779
 Alpha virt. eigenvalues --    0.66178   0.67718   0.68189   0.70114   0.70735
 Alpha virt. eigenvalues --    0.71558   0.73203   0.73684   0.73811   0.74417
 Alpha virt. eigenvalues --    0.75878   0.76921   0.78127   0.78358   0.80052
 Alpha virt. eigenvalues --    0.80830   0.81198   0.82265   0.83856   0.85283
 Alpha virt. eigenvalues --    0.87839   0.88349   0.90519   0.91718   0.92420
 Alpha virt. eigenvalues --    0.94678   0.96947   0.98201   0.99267   1.02853
 Alpha virt. eigenvalues --    1.03393   1.05753   1.06797   1.07639   1.09447
 Alpha virt. eigenvalues --    1.11765   1.13747   1.13979   1.15502   1.16914
 Alpha virt. eigenvalues --    1.18009   1.20049   1.23090   1.25202   1.27037
 Alpha virt. eigenvalues --    1.28479   1.29161   1.30541   1.35028   1.40102
 Alpha virt. eigenvalues --    1.42143   1.43660   1.44962   1.47260   1.47642
 Alpha virt. eigenvalues --    1.50864   1.53872   1.55666   1.58404   1.59364
 Alpha virt. eigenvalues --    1.63965   1.65893   1.68349   1.68610   1.70541
 Alpha virt. eigenvalues --    1.71787   1.74616   1.76188   1.79040   1.80099
 Alpha virt. eigenvalues --    1.83121   1.84629   1.88224   1.89261   1.91791
 Alpha virt. eigenvalues --    1.94189   1.96021   1.98060   2.01938   2.03423
 Alpha virt. eigenvalues --    2.06542   2.07319   2.09544   2.10674   2.12120
 Alpha virt. eigenvalues --    2.13990   2.15972   2.16771   2.18493   2.21303
 Alpha virt. eigenvalues --    2.22718   2.25467   2.26288   2.30259   2.32347
 Alpha virt. eigenvalues --    2.35114   2.37107   2.39882   2.40309   2.43762
 Alpha virt. eigenvalues --    2.44615   2.47217   2.51395   2.56661   2.61394
 Alpha virt. eigenvalues --    2.68152   2.69113   2.71982   2.76541   2.80499
 Alpha virt. eigenvalues --    2.87135   2.90648   2.97652   2.99005   3.01750
 Alpha virt. eigenvalues --    3.11198   3.12351   3.19013   3.44857   3.54797
 Alpha virt. eigenvalues --    3.65757   3.67672   3.71064   3.73519   3.74381
 Alpha virt. eigenvalues --    3.78059   3.88005   3.90168   4.26293   4.29619
          Condensed to atoms (all electrons):
 Mulliken charges:
               1
     1  C    0.225717
     2  B    0.984647
     3  O   -0.674927
     4  O   -0.725740
     5  C    0.317986
     6  C    0.153894
     7  H   -0.519746
     8  H   -0.126100
     9  H    0.054810
    10  H    0.044925
    11  H    0.225518
    12  H    0.285289
    13  Si   0.109753
    14  H    0.046894
    15  H    0.062708
    16  H   -0.465629
 Sum of Mulliken charges =  -0.00000
 Mulliken charges with hydrogens summed into heavy atoms:
               1
     1  C   -0.239912
     2  B    0.984647
     3  O   -0.449409
     4  O   -0.440451
     5  C   -0.201760
     6  C    0.127528
    13  Si   0.219355
 Electronic spatial extent (au):  <R**2>=           1433.6948
 Charge=             -0.0000 electrons
 Dipole moment (field-independent basis, Debye):
    X=              1.8080    Y=              1.5356    Z=             -0.0342  Tot=              2.3724
 Unable to Open any file for archive entry.
 1\1\GINC-SE090\Stability\RHF\Aug-CC-pVDZ\C3H9B1O2Si1\OHZDE\09-Apr-2025
 \0\\#t hf aug-cc-pvdz symm=none int=(grid=ultrafine) guess=(read,tchec
 k) stable=(opt,rrhf)\\title\\0,1\C,0,1.236933,-0.306055,0.478151\B,0,-
 1.852325,0.293758,-0.016837\O,0,-3.159576,-0.082298,-0.013813\O,0,-1.5
 62253,1.632938,-0.039063\C,0,2.265142,-0.075139,-0.348595\C,0,3.55854,
 0.592882,0.01867\H,0,2.190223,-0.401934,-1.386257\H,0,3.572855,0.89707
 9,1.067664\H,0,3.733846,1.479295,-0.601539\H,0,4.405587,-0.080031,-0.1
 56309\H,0,-3.757055,0.676869,-0.035158\H,0,-0.616237,1.808749,-0.03748
 9\Si,0,-0.379086,-1.116334,-0.019076\H,0,-0.204064,-1.67966,-1.384578\
 H,0,-0.692057,-2.237302,0.903788\H,0,1.346682,0.021576,1.514773\\Versi
 on=ES64L-G16RevC.01\HF=-582.3153184\RMSD=2.949e-09\Dipole=0.711329,0.6
 041419,-0.0134408\Quadrupole=2.4235115,-2.797355,0.3738435,-0.8470017,
 -0.5013481,0.3259925\PG=Unknown\\@
 The archive entry for this job was punched.


 SCIENCE IS A VERY HUMAN FORM OF KNOWLEDGE.
 WE ARE ALWAYS AT THE BRINK OF THE KNOWN,
 WE ALWAYS FEEL FORWARD FOR WHAT IS HOPED.
 EVERY JUDGEMENT IN SCIENCE STANDS ON THE EDGE OF ERROR, AND IS PERSONAL.
 SCIENCE IS A TRIBUTE TO WHAT WE CAN KNOW ALTHOUGH WE ARE FALLIBLE.

                     -- J. BRONOWSKI
 Job cpu time:       0 days  0 hours  8 minutes 56.6 seconds.
 Elapsed time:       0 days  0 hours  0 minutes 38.5 seconds.
 File lengths (MBytes):  RWF=    292 Int=      0 D2E=      0 Chk=      9 Scr=      1
 Normal termination of Gaussian 16 at Wed Apr  9 00:45:27 2025.
 Initial command:
 /arc/software/Gaussian/g16.c01/l1.exe "/tmp/slurm/4854990/Gau-625519.inp" -scrdir="/tmp/slurm/4854990/"
 Entering Link 1 = /arc/software/Gaussian/g16.c01/l1.exe PID=    625743.
  
 Copyright (c) 1988-2019, Gaussian, Inc.  All Rights Reserved.
  
 This is part of the Gaussian(R) 16 program.  It is based on
 the Gaussian(R) 09 system (copyright 2009, Gaussian, Inc.),
 the Gaussian(R) 03 system (copyright 2003, Gaussian, Inc.),
 the Gaussian(R) 98 system (copyright 1998, Gaussian, Inc.),
 the Gaussian(R) 94 system (copyright 1995, Gaussian, Inc.),
 the Gaussian 92(TM) system (copyright 1992, Gaussian, Inc.),
 the Gaussian 90(TM) system (copyright 1990, Gaussian, Inc.),
 the Gaussian 88(TM) system (copyright 1988, Gaussian, Inc.),
 the Gaussian 86(TM) system (copyright 1986, Carnegie Mellon
 University), and the Gaussian 82(TM) system (copyright 1983,
 Carnegie Mellon University). Gaussian is a federally registered
 trademark of Gaussian, Inc.
  
 This software contains proprietary and confidential information,
 including trade secrets, belonging to Gaussian, Inc.
  
 This software is provided under written license and may be
 used, copied, transmitted, or stored only in accord with that
 written license.
  
 The following legend is applicable only to US Government
 contracts under FAR:
  
                    RESTRICTED RIGHTS LEGEND
  
 Use, reproduction and disclosure by the US Government is
 subject to restrictions as set forth in subparagraphs (a)
 and (c) of the Commercial Computer Software - Restricted
 Rights clause in FAR 52.227-19.
  
 Gaussian, Inc.
 340 Quinnipiac St., Bldg. 40, Wallingford CT 06492
  
  
 ---------------------------------------------------------------
 Warning -- This program may not be used in any manner that
 competes with the business of Gaussian, Inc. or will provide
 assistance to any competitor of Gaussian, Inc.  The licensee
 of this program is prohibited from giving any competitor of
 Gaussian, Inc. access to this program.  By using this program,
 the user acknowledges that Gaussian, Inc. is engaged in the
 business of creating and licensing software in the field of
 computational chemistry and represents and warrants to the
 licensee that it is not a competitor of Gaussian, Inc. and that
 it will not use this program in any manner prohibited above.
 ---------------------------------------------------------------
  

 Cite this work as:
 Gaussian 16, Revision C.01,
 M. J. Frisch, G. W. Trucks, H. B. Schlegel, G. E. Scuseria, 
 M. A. Robb, J. R. Cheeseman, G. Scalmani, V. Barone, 
 G. A. Petersson, H. Nakatsuji, X. Li, M. Caricato, A. V. Marenich, 
 J. Bloino, B. G. Janesko, R. Gomperts, B. Mennucci, H. P. Hratchian, 
 J. V. Ortiz, A. F. Izmaylov, J. L. Sonnenberg, D. Williams-Young, 
 F. Ding, F. Lipparini, F. Egidi, J. Goings, B. Peng, A. Petrone, 
 T. Henderson, D. Ranasinghe, V. G. Zakrzewski, J. Gao, N. Rega, 
 G. Zheng, W. Liang, M. Hada, M. Ehara, K. Toyota, R. Fukuda, 
 J. Hasegawa, M. Ishida, T. Nakajima, Y. Honda, O. Kitao, H. Nakai, 
 T. Vreven, K. Throssell, J. A. Montgomery, Jr., J. E. Peralta, 
 F. Ogliaro, M. J. Bearpark, J. J. Heyd, E. N. Brothers, K. N. Kudin, 
 V. N. Staroverov, T. A. Keith, R. Kobayashi, J. Normand, 
 K. Raghavachari, A. P. Rendell, J. C. Burant, S. S. Iyengar, 
 J. Tomasi, M. Cossi, J. M. Millam, M. Klene, C. Adamo, R. Cammi, 
 J. W. Ochterski, R. L. Martin, K. Morokuma, O. Farkas, 
 J. B. Foresman, and D. J. Fox, Gaussian, Inc., Wallingford CT, 2019.
 
 ******************************************
 Gaussian 16:  ES64L-G16RevC.01  3-Jul-2019
                 9-Apr-2025 
 ******************************************
 %nprocs=16
 Will use up to   16 processors via shared memory.
 %mem=30GB
 %chk=BDE49_nonexpt_817_mol1.chk
 ----------------------------------------------------------------------
 #t hf aug-cc-pvdz iop(5/13=1,5/36=2,99/5=2) pseudo=read geom=check gue
 ss=(read,tcheck) scf=(maxcycle=1)
 ----------------------------------------------------------------------
 -----
 title
 -----
 Structure from the checkpoint file:  "BDE49_nonexpt_817_mol1.chk"
 Charge =  0 Multiplicity = 1
 Z-Matrix found in chk file.
 C,0,1.236933,-0.306055,0.478151
 B,0,-1.852325,0.293758,-0.016837
 O,0,-3.159576,-0.082298,-0.013813
 O,0,-1.562253,1.632938,-0.039063
 C,0,2.265142,-0.075139,-0.348595
 C,0,3.55854,0.592882,0.01867
 H,0,2.190223,-0.401934,-1.386257
 H,0,3.572855,0.897079,1.067664
 H,0,3.733846,1.479295,-0.601539
 H,0,4.405587,-0.080031,-0.156309
 H,0,-3.757055,0.676869,-0.035158
 H,0,-0.616237,1.808749,-0.037489
 Si,0,-0.379086,-1.116334,-0.019076
 H,0,-0.204064,-1.67966,-1.384578
 H,0,-0.692057,-2.237302,0.903788
 H,0,1.346682,0.021576,1.514773
 Recover connectivity data from disk.
                    Distance matrix (angstroms):
                    1          2          3          4          5
     1  C    0.000000
     2  B    3.185640   0.000000
     3  O    4.429603   1.360269   0.000000
     4  O    3.444219   1.370416   2.343952   0.000000
     5  C    1.339420   4.147250   5.435043   4.202653   0.000000
     6  C    2.531614   5.419243   6.752037   5.225665   1.501337
     7  H    2.096180   4.324522   5.532280   4.476239   1.090482
     8  H    2.692877   5.565314   6.888715   5.304306   2.158961
     9  H    3.253887   5.740443   7.092479   5.328100   2.153448
    10  H    3.239444   6.270617   7.566505   6.209921   2.149070
    11  H    5.115617   1.942963   0.966318   2.394001   6.077056
    12  H    2.858762   1.955387   3.169415   0.962215   3.456612
    13  Si   1.874914   2.039313   2.966544   2.993122   2.860876
    14  H    2.726357   2.912363   3.628445   3.824708   3.121654
    15  H    2.762587   2.932582   3.402159   4.077373   3.871490
    16  H    1.092690   3.557184   4.759593   3.670531   2.079679
                    6          7          8          9         10
     6  C    0.000000
     7  H    2.199038   0.000000
     8  H    1.092305   3.101747   0.000000
     9  H    1.095956   2.556869   1.775143   0.000000
    10  H    1.095864   2.554257   1.773780   1.755267   0.000000
    11  H    7.316275   6.193497   7.415679   7.555016   8.198555
    12  H    4.348592   3.818706   4.427301   4.398854   5.366593
    13  Si   4.292755   2.996815   4.566473   4.898241   4.897535
    14  H    4.614189   2.713890   5.188274   5.108746   5.031535
    15  H    5.182755   4.113444   5.295345   5.972246   5.635920
    16  H    2.730756   3.050721   2.433569   3.507460   3.487082
                   11         12         13         14         15
    11  H    0.000000
    12  H    3.338547   0.000000
    13  Si   3.824462   2.934739   0.000000
    14  H    4.471902   3.762118   1.487469   0.000000
    15  H    4.332231   4.154790   1.485328   2.405353   0.000000
    16  H    5.373995   3.075151   2.574064   3.702061   3.103593
                   16
    16  H    0.000000
 Framework group  C1[X(C3H9BO2Si)]
 Deg. of freedom    42
                         Standard orientation:                         
 ---------------------------------------------------------------------
 Center     Atomic      Atomic             Coordinates (Angstroms)
 Number     Number       Type             X           Y           Z
 ---------------------------------------------------------------------
      1          6           0        1.236933   -0.306055    0.478151
      2          5           0       -1.852325    0.293758   -0.016837
      3          8           0       -3.159576   -0.082298   -0.013813
      4          8           0       -1.562253    1.632938   -0.039063
      5          6           0        2.265142   -0.075139   -0.348595
      6          6           0        3.558540    0.592882    0.018670
      7          1           0        2.190223   -0.401934   -1.386257
      8          1           0        3.572855    0.897079    1.067664
      9          1           0        3.733846    1.479295   -0.601539
     10          1           0        4.405587   -0.080031   -0.156309
     11          1           0       -3.757055    0.676869   -0.035158
     12          1           0       -0.616237    1.808749   -0.037489
     13         14           0       -0.379086   -1.116334   -0.019076
     14          1           0       -0.204064   -1.679660   -1.384578
     15          1           0       -0.692057   -2.237302    0.903788
     16          1           0        1.346682    0.021576    1.514773
 ---------------------------------------------------------------------
 Rotational constants (GHZ):           4.5317915           0.9149535           0.7917480
 ======================================================================================================
                                       Pseudopotential Parameters
 ======================================================================================================
  Center     Atomic      Valence      Angular      Power
  Number     Number     Electrons     Momentum     of R      Exponent        Coefficient   SO-Coeffient
 ======================================================================================================
    1          6            6
                                      G and up 
                                                     0        0.0000010       -0.00011185    0.00000000
                                                     2        0.1200000       -0.02301220    0.00000000
                                                     2        0.1400000        0.13317600    0.00000000
                                                     2        0.1600000       -0.19690668    0.00000000
                                                     2        0.2200000        0.23163694    0.00000000
                                                     2        0.3000000       -0.36920489    0.00000000
                                                     2        0.4000000        0.36389709    0.00000000
                                                     2        0.7000000       -0.38862160    0.00000000
                                                     2        1.3000000        0.80803421    0.00000000
                                      S - G
                                                     0        0.0000010        0.00312304    0.00000000
                                                     2        0.1200000       -0.00632892    0.00000000
                                                     2        0.2200000       -0.03780897    0.00000000
                                                     2        0.4000000        0.26269560    0.00000000
                                                     2        0.9000000       -0.28209514    0.00000000
                                                     2        1.5000000       -0.72686737    0.00000000
                                      P - G
                                                     0        0.0000010       -0.01465594    0.00000000
                                                     2        0.1200000        0.07908409    0.00000000
                                                     2        0.1800000       -0.30615861    0.00000000
                                                     2        0.2600000        0.41506950    0.00000000
                                                     2        0.5000000       -0.36252345    0.00000000
                                                     2        0.9000000        0.15124193    0.00000000
                                                     2        3.0000000       -0.80425677    0.00000000
                                      D - G
                                                     0        0.0000010        0.01149631    0.00000000
                                                     2        0.1200000       -0.04713561    0.00000000
                                                     2        0.1600000        0.10865096    0.00000000
                                                     2        0.2800000       -0.15816701    0.00000000
                                                     2        0.7000000        0.65478804    0.00000000
                                                     2        1.3000000       -1.73816624    0.00000000
                                      F - G
                                                     0        0.0000010        0.00481868    0.00000000
                                                     2        0.1200000       -0.04746842    0.00000000
                                                     2        0.1600000        0.09327889    0.00000000
                                                     2        0.4000000       -0.19693326    0.00000000
                                                     2        0.9000000        0.34938253    0.00000000
    2          5            5
                                      G and up 
                                                     0        0.0000010       -0.00003285    0.00000000
                                                     2        0.1200000        0.02009075    0.00000000
                                                     2        0.1400000       -0.05866979    0.00000000
                                                     2        0.1800000        0.09995788    0.00000000
                                                     2        0.2400000       -0.11795078    0.00000000
                                                     2        0.4000000        0.15024519    0.00000000
                                                     2        0.7000000       -0.33885613    0.00000000
                                                     2        1.7000000        0.21467576    0.00000000
                                      S - G
                                                     0        0.0000010       -0.00100850    0.00000000
                                                     2        0.1200000       -0.13105755    0.00000000
                                                     2        0.1800000        0.21911891    0.00000000
                                      P - G
                                                     0        0.0000010        0.06216691    0.00000000
                                                     2        0.1200000       -0.01035601    0.00000000
                                                     2        0.1600000        0.01974098    0.00000000
                                                     2        0.2600000       -0.03556758    0.00000000
                                      D - G
                                                     0        0.0000010        0.03724396    0.00000000
                                                     2        0.1200000       -0.16834167    0.00000000
                                                     2        0.1800000        0.42333345    0.00000000
                                                     2        0.4000000       -1.11304036    0.00000000
                                                     2        0.7000000        1.72162222    0.00000000
                                      F - G
                                                     0        0.0000010       -0.04974272    0.00000000
                                                     2        0.1200000        0.10484788    0.00000000
                                                     2        0.1600000       -0.14333884    0.00000000
                                                     2        0.2800000       -0.09166252    0.00000000
                                                     2        0.5000000        0.53351878    0.00000000
    3          8            8
                                      G and up 
                                                     0        0.0000010        0.00001165    0.00000000
                                                     2        0.1200000       -0.01744018    0.00000000
                                                     2        0.1400000        0.05401326    0.00000000
                                                     2        0.1800000       -0.08231208    0.00000000
                                                     2        0.2600000        0.11570222    0.00000000
                                                     2        0.4000000       -0.20630360    0.00000000
                                                     2        0.7000000        0.38074319    0.00000000
                                                     2        1.2000000       -0.17045091    0.00000000
                                                     2        2.0000000       -1.45433187    0.00000000
                                      S - G
                                                     0        0.0000010       -0.00117944    0.00000000
                                                     2        0.1400000        0.04368312    0.00000000
                                                     2        0.3000000       -0.33477926    0.00000000
                                                     2        0.6000000        1.52630657    0.00000000
                                                     2        1.5000000       -2.50804716    0.00000000
                                                     2        3.0000000        2.89751681    0.00000000
                                      P - G
                                                     0        0.0000010        0.06576007    0.00000000
                                                     2        0.1200000       -0.10329304    0.00000000
                                                     2        0.2000000        0.24891756    0.00000000
                                                     2        0.4000000       -0.50800022    0.00000000
                                                     2        0.9000000        0.81480796    0.00000000
                                      D - G
                                                     0        0.0000010       -0.14101855    0.00000000
                                                     2        0.1200000        0.22105937    0.00000000
                                                     2        0.1800000       -0.45814988    0.00000000
                                                     2        0.3000000        0.46029282    0.00000000
                                      F - G
                                                     0        0.0000010        0.07483044    0.00000000
                                                     2        0.1200000       -0.09134252    0.00000000
                                                     2        0.1400000        0.04125459    0.00000000
                                                     2        0.3000000        0.37914837    0.00000000
                                                     2        0.5000000       -0.86881279    0.00000000
    4          8            8
                                      G and up 
                                                     0        0.0000010        0.00001165    0.00000000
                                                     2        0.1200000       -0.01744018    0.00000000
                                                     2        0.1400000        0.05401326    0.00000000
                                                     2        0.1800000       -0.08231208    0.00000000
                                                     2        0.2600000        0.11570222    0.00000000
                                                     2        0.4000000       -0.20630360    0.00000000
                                                     2        0.7000000        0.38074319    0.00000000
                                                     2        1.2000000       -0.17045091    0.00000000
                                                     2        2.0000000       -1.45433187    0.00000000
                                      S - G
                                                     0        0.0000010       -0.00117944    0.00000000
                                                     2        0.1400000        0.04368312    0.00000000
                                                     2        0.3000000       -0.33477926    0.00000000
                                                     2        0.6000000        1.52630657    0.00000000
                                                     2        1.5000000       -2.50804716    0.00000000
                                                     2        3.0000000        2.89751681    0.00000000
                                      P - G
                                                     0        0.0000010        0.06576007    0.00000000
                                                     2        0.1200000       -0.10329304    0.00000000
                                                     2        0.2000000        0.24891756    0.00000000
                                                     2        0.4000000       -0.50800022    0.00000000
                                                     2        0.9000000        0.81480796    0.00000000
                                      D - G
                                                     0        0.0000010       -0.14101855    0.00000000
                                                     2        0.1200000        0.22105937    0.00000000
                                                     2        0.1800000       -0.45814988    0.00000000
                                                     2        0.3000000        0.46029282    0.00000000
                                      F - G
                                                     0        0.0000010        0.07483044    0.00000000
                                                     2        0.1200000       -0.09134252    0.00000000
                                                     2        0.1400000        0.04125459    0.00000000
                                                     2        0.3000000        0.37914837    0.00000000
                                                     2        0.5000000       -0.86881279    0.00000000
    5          6            6
                                      G and up 
                                                     0        0.0000010       -0.00011185    0.00000000
                                                     2        0.1200000       -0.02301220    0.00000000
                                                     2        0.1400000        0.13317600    0.00000000
                                                     2        0.1600000       -0.19690668    0.00000000
                                                     2        0.2200000        0.23163694    0.00000000
                                                     2        0.3000000       -0.36920489    0.00000000
                                                     2        0.4000000        0.36389709    0.00000000
                                                     2        0.7000000       -0.38862160    0.00000000
                                                     2        1.3000000        0.80803421    0.00000000
                                      S - G
                                                     0        0.0000010        0.00312304    0.00000000
                                                     2        0.1200000       -0.00632892    0.00000000
                                                     2        0.2200000       -0.03780897    0.00000000
                                                     2        0.4000000        0.26269560    0.00000000
                                                     2        0.9000000       -0.28209514    0.00000000
                                                     2        1.5000000       -0.72686737    0.00000000
                                      P - G
                                                     0        0.0000010       -0.01465594    0.00000000
                                                     2        0.1200000        0.07908409    0.00000000
                                                     2        0.1800000       -0.30615861    0.00000000
                                                     2        0.2600000        0.41506950    0.00000000
                                                     2        0.5000000       -0.36252345    0.00000000
                                                     2        0.9000000        0.15124193    0.00000000
                                                     2        3.0000000       -0.80425677    0.00000000
                                      D - G
                                                     0        0.0000010        0.01149631    0.00000000
                                                     2        0.1200000       -0.04713561    0.00000000
                                                     2        0.1600000        0.10865096    0.00000000
                                                     2        0.2800000       -0.15816701    0.00000000
                                                     2        0.7000000        0.65478804    0.00000000
                                                     2        1.3000000       -1.73816624    0.00000000
                                      F - G
                                                     0        0.0000010        0.00481868    0.00000000
                                                     2        0.1200000       -0.04746842    0.00000000
                                                     2        0.1600000        0.09327889    0.00000000
                                                     2        0.4000000       -0.19693326    0.00000000
                                                     2        0.9000000        0.34938253    0.00000000
    6          6            6
                                      G and up 
                                                     0        0.0000010       -0.00011185    0.00000000
                                                     2        0.1200000       -0.02301220    0.00000000
                                                     2        0.1400000        0.13317600    0.00000000
                                                     2        0.1600000       -0.19690668    0.00000000
                                                     2        0.2200000        0.23163694    0.00000000
                                                     2        0.3000000       -0.36920489    0.00000000
                                                     2        0.4000000        0.36389709    0.00000000
                                                     2        0.7000000       -0.38862160    0.00000000
                                                     2        1.3000000        0.80803421    0.00000000
                                      S - G
                                                     0        0.0000010        0.00312304    0.00000000
                                                     2        0.1200000       -0.00632892    0.00000000
                                                     2        0.2200000       -0.03780897    0.00000000
                                                     2        0.4000000        0.26269560    0.00000000
                                                     2        0.9000000       -0.28209514    0.00000000
                                                     2        1.5000000       -0.72686737    0.00000000
                                      P - G
                                                     0        0.0000010       -0.01465594    0.00000000
                                                     2        0.1200000        0.07908409    0.00000000
                                                     2        0.1800000       -0.30615861    0.00000000
                                                     2        0.2600000        0.41506950    0.00000000
                                                     2        0.5000000       -0.36252345    0.00000000
                                                     2        0.9000000        0.15124193    0.00000000
                                                     2        3.0000000       -0.80425677    0.00000000
                                      D - G
                                                     0        0.0000010        0.01149631    0.00000000
                                                     2        0.1200000       -0.04713561    0.00000000
                                                     2        0.1600000        0.10865096    0.00000000
                                                     2        0.2800000       -0.15816701    0.00000000
                                                     2        0.7000000        0.65478804    0.00000000
                                                     2        1.3000000       -1.73816624    0.00000000
                                      F - G
                                                     0        0.0000010        0.00481868    0.00000000
                                                     2        0.1200000       -0.04746842    0.00000000
                                                     2        0.1600000        0.09327889    0.00000000
                                                     2        0.4000000       -0.19693326    0.00000000
                                                     2        0.9000000        0.34938253    0.00000000
    7          1            1
                                      F and up 
                                                     0        0.0000010       -0.00000699    0.00000000
                                                     2        0.1200000        0.00123686    0.00000000
                                                     2        0.1800000       -0.00752022    0.00000000
                                                     2        0.2600000        0.02503380    0.00000000
                                                     2        0.4000000       -0.08702670    0.00000000
                                                     2        0.6000000        0.30134159    0.00000000
                                                     2        0.8000000       -0.50204959    0.00000000
                                                     2        1.2000000        0.52208372    0.00000000
                                      S - F
                                                     0        0.0000010       -0.01618346    0.00000000
                                                     2        0.1200000       -0.07880581    0.00000000
                                                     2        0.1600000        0.32040539    0.00000000
                                                     2        0.2400000       -0.47500956    0.00000000
                                                     2        0.5000000        0.54013668    0.00000000
                                                     2        1.5000000       -1.40434292    0.00000000
                                                     2        3.0000000        1.46283806    0.00000000
                                      P - F
                                                     0        0.0000010        0.00612970    0.00000000
                                                     2        0.1200000        0.02254406    0.00000000
                                                     2        0.1800000       -0.13874529    0.00000000
                                                     2        0.3000000        0.38299049    0.00000000
                                                     2        0.5000000       -0.57923512    0.00000000
                                                     2        1.0000000        0.63021625    0.00000000
                                                     2        2.0000000       -0.79201034    0.00000000
                                      D - F
                                                     0        0.0000010       -0.00296226    0.00000000
                                                     2        0.1200000       -0.00547344    0.00000000
                                                     2        0.1400000        0.01837884    0.00000000
                                                     2        0.2400000       -0.05565704    0.00000000
                                                     2        0.4000000        0.15376597    0.00000000
                                                     2        0.8000000       -0.32464795    0.00000000
    8          1            1
                                      F and up 
                                                     0        0.0000010       -0.00000699    0.00000000
                                                     2        0.1200000        0.00123686    0.00000000
                                                     2        0.1800000       -0.00752022    0.00000000
                                                     2        0.2600000        0.02503380    0.00000000
                                                     2        0.4000000       -0.08702670    0.00000000
                                                     2        0.6000000        0.30134159    0.00000000
                                                     2        0.8000000       -0.50204959    0.00000000
                                                     2        1.2000000        0.52208372    0.00000000
                                      S - F
                                                     0        0.0000010       -0.01618346    0.00000000
                                                     2        0.1200000       -0.07880581    0.00000000
                                                     2        0.1600000        0.32040539    0.00000000
                                                     2        0.2400000       -0.47500956    0.00000000
                                                     2        0.5000000        0.54013668    0.00000000
                                                     2        1.5000000       -1.40434292    0.00000000
                                                     2        3.0000000        1.46283806    0.00000000
                                      P - F
                                                     0        0.0000010        0.00612970    0.00000000
                                                     2        0.1200000        0.02254406    0.00000000
                                                     2        0.1800000       -0.13874529    0.00000000
                                                     2        0.3000000        0.38299049    0.00000000
                                                     2        0.5000000       -0.57923512    0.00000000
                                                     2        1.0000000        0.63021625    0.00000000
                                                     2        2.0000000       -0.79201034    0.00000000
                                      D - F
                                                     0        0.0000010       -0.00296226    0.00000000
                                                     2        0.1200000       -0.00547344    0.00000000
                                                     2        0.1400000        0.01837884    0.00000000
                                                     2        0.2400000       -0.05565704    0.00000000
                                                     2        0.4000000        0.15376597    0.00000000
                                                     2        0.8000000       -0.32464795    0.00000000
    9          1            1
                                      F and up 
                                                     0        0.0000010       -0.00000699    0.00000000
                                                     2        0.1200000        0.00123686    0.00000000
                                                     2        0.1800000       -0.00752022    0.00000000
                                                     2        0.2600000        0.02503380    0.00000000
                                                     2        0.4000000       -0.08702670    0.00000000
                                                     2        0.6000000        0.30134159    0.00000000
                                                     2        0.8000000       -0.50204959    0.00000000
                                                     2        1.2000000        0.52208372    0.00000000
                                      S - F
                                                     0        0.0000010       -0.01618346    0.00000000
                                                     2        0.1200000       -0.07880581    0.00000000
                                                     2        0.1600000        0.32040539    0.00000000
                                                     2        0.2400000       -0.47500956    0.00000000
                                                     2        0.5000000        0.54013668    0.00000000
                                                     2        1.5000000       -1.40434292    0.00000000
                                                     2        3.0000000        1.46283806    0.00000000
                                      P - F
                                                     0        0.0000010        0.00612970    0.00000000
                                                     2        0.1200000        0.02254406    0.00000000
                                                     2        0.1800000       -0.13874529    0.00000000
                                                     2        0.3000000        0.38299049    0.00000000
                                                     2        0.5000000       -0.57923512    0.00000000
                                                     2        1.0000000        0.63021625    0.00000000
                                                     2        2.0000000       -0.79201034    0.00000000
                                      D - F
                                                     0        0.0000010       -0.00296226    0.00000000
                                                     2        0.1200000       -0.00547344    0.00000000
                                                     2        0.1400000        0.01837884    0.00000000
                                                     2        0.2400000       -0.05565704    0.00000000
                                                     2        0.4000000        0.15376597    0.00000000
                                                     2        0.8000000       -0.32464795    0.00000000
   10          1            1
                                      F and up 
                                                     0        0.0000010       -0.00000699    0.00000000
                                                     2        0.1200000        0.00123686    0.00000000
                                                     2        0.1800000       -0.00752022    0.00000000
                                                     2        0.2600000        0.02503380    0.00000000
                                                     2        0.4000000       -0.08702670    0.00000000
                                                     2        0.6000000        0.30134159    0.00000000
                                                     2        0.8000000       -0.50204959    0.00000000
                                                     2        1.2000000        0.52208372    0.00000000
                                      S - F
                                                     0        0.0000010       -0.01618346    0.00000000
                                                     2        0.1200000       -0.07880581    0.00000000
                                                     2        0.1600000        0.32040539    0.00000000
                                                     2        0.2400000       -0.47500956    0.00000000
                                                     2        0.5000000        0.54013668    0.00000000
                                                     2        1.5000000       -1.40434292    0.00000000
                                                     2        3.0000000        1.46283806    0.00000000
                                      P - F
                                                     0        0.0000010        0.00612970    0.00000000
                                                     2        0.1200000        0.02254406    0.00000000
                                                     2        0.1800000       -0.13874529    0.00000000
                                                     2        0.3000000        0.38299049    0.00000000
                                                     2        0.5000000       -0.57923512    0.00000000
                                                     2        1.0000000        0.63021625    0.00000000
                                                     2        2.0000000       -0.79201034    0.00000000
                                      D - F
                                                     0        0.0000010       -0.00296226    0.00000000
                                                     2        0.1200000       -0.00547344    0.00000000
                                                     2        0.1400000        0.01837884    0.00000000
                                                     2        0.2400000       -0.05565704    0.00000000
                                                     2        0.4000000        0.15376597    0.00000000
                                                     2        0.8000000       -0.32464795    0.00000000
   11          1            1
                                      F and up 
                                                     0        0.0000010       -0.00000699    0.00000000
                                                     2        0.1200000        0.00123686    0.00000000
                                                     2        0.1800000       -0.00752022    0.00000000
                                                     2        0.2600000        0.02503380    0.00000000
                                                     2        0.4000000       -0.08702670    0.00000000
                                                     2        0.6000000        0.30134159    0.00000000
                                                     2        0.8000000       -0.50204959    0.00000000
                                                     2        1.2000000        0.52208372    0.00000000
                                      S - F
                                                     0        0.0000010       -0.01618346    0.00000000
                                                     2        0.1200000       -0.07880581    0.00000000
                                                     2        0.1600000        0.32040539    0.00000000
                                                     2        0.2400000       -0.47500956    0.00000000
                                                     2        0.5000000        0.54013668    0.00000000
                                                     2        1.5000000       -1.40434292    0.00000000
                                                     2        3.0000000        1.46283806    0.00000000
                                      P - F
                                                     0        0.0000010        0.00612970    0.00000000
                                                     2        0.1200000        0.02254406    0.00000000
                                                     2        0.1800000       -0.13874529    0.00000000
                                                     2        0.3000000        0.38299049    0.00000000
                                                     2        0.5000000       -0.57923512    0.00000000
                                                     2        1.0000000        0.63021625    0.00000000
                                                     2        2.0000000       -0.79201034    0.00000000
                                      D - F
                                                     0        0.0000010       -0.00296226    0.00000000
                                                     2        0.1200000       -0.00547344    0.00000000
                                                     2        0.1400000        0.01837884    0.00000000
                                                     2        0.2400000       -0.05565704    0.00000000
                                                     2        0.4000000        0.15376597    0.00000000
                                                     2        0.8000000       -0.32464795    0.00000000
   12          1            1
                                      F and up 
                                                     0        0.0000010       -0.00000699    0.00000000
                                                     2        0.1200000        0.00123686    0.00000000
                                                     2        0.1800000       -0.00752022    0.00000000
                                                     2        0.2600000        0.02503380    0.00000000
                                                     2        0.4000000       -0.08702670    0.00000000
                                                     2        0.6000000        0.30134159    0.00000000
                                                     2        0.8000000       -0.50204959    0.00000000
                                                     2        1.2000000        0.52208372    0.00000000
                                      S - F
                                                     0        0.0000010       -0.01618346    0.00000000
                                                     2        0.1200000       -0.07880581    0.00000000
                                                     2        0.1600000        0.32040539    0.00000000
                                                     2        0.2400000       -0.47500956    0.00000000
                                                     2        0.5000000        0.54013668    0.00000000
                                                     2        1.5000000       -1.40434292    0.00000000
                                                     2        3.0000000        1.46283806    0.00000000
                                      P - F
                                                     0        0.0000010        0.00612970    0.00000000
                                                     2        0.1200000        0.02254406    0.00000000
                                                     2        0.1800000       -0.13874529    0.00000000
                                                     2        0.3000000        0.38299049    0.00000000
                                                     2        0.5000000       -0.57923512    0.00000000
                                                     2        1.0000000        0.63021625    0.00000000
                                                     2        2.0000000       -0.79201034    0.00000000
                                      D - F
                                                     0        0.0000010       -0.00296226    0.00000000
                                                     2        0.1200000       -0.00547344    0.00000000
                                                     2        0.1400000        0.01837884    0.00000000
                                                     2        0.2400000       -0.05565704    0.00000000
                                                     2        0.4000000        0.15376597    0.00000000
                                                     2        0.8000000       -0.32464795    0.00000000
   13         14           14
                                      G and up 
                                                     0        0.0000010       -0.00080730    0.00000000
                                                     2        0.1200000       -0.00055264    0.00000000
                                                     2        0.1400000        0.01406977    0.00000000
                                                     2        0.1800000       -0.03298471    0.00000000
                                                     2        0.2600000        0.01115055    0.00000000
                                                     2        0.4000000        0.04822265    0.00000000
                                                     2        1.0000000        0.55710288    0.00000000
                                      S - G
                                                     0        0.0000010        0.00443253    0.00000000
                                                     2        0.1200000       -0.39699075    0.00000000
                                                     2        0.1600000        0.69326200    0.00000000
                                                     2        0.2800000       -0.35872667    0.00000000
                                                     2        0.6000000        0.34281738    0.00000000
                                                     2        1.9000000       -2.57353518    0.00000000
                                      P - G
                                                     0        0.0000010        0.01853706    0.00000000
                                                     2        0.1200000        0.09826004    0.00000000
                                                     2        0.1800000       -0.15827199    0.00000000
                                                     2        0.6000000       -0.27745523    0.00000000
                                      D - G
                                                     0        0.0000010        0.06592581    0.00000000
                                                     2        0.1200000       -0.32414458    0.00000000
                                                     2        0.1600000        0.55726508    0.00000000
                                                     2        0.4000000       -0.80339056    0.00000000
                                      F - G
                                                     0        0.0000010       -0.02690402    0.00000000
                                                     2        0.1200000        0.11839193    0.00000000
                                                     2        0.1600000       -0.17978163    0.00000000
   14          1            1
                                      F and up 
                                                     0        0.0000010       -0.00000699    0.00000000
                                                     2        0.1200000        0.00123686    0.00000000
                                                     2        0.1800000       -0.00752022    0.00000000
                                                     2        0.2600000        0.02503380    0.00000000
                                                     2        0.4000000       -0.08702670    0.00000000
                                                     2        0.6000000        0.30134159    0.00000000
                                                     2        0.8000000       -0.50204959    0.00000000
                                                     2        1.2000000        0.52208372    0.00000000
                                      S - F
                                                     0        0.0000010       -0.01618346    0.00000000
                                                     2        0.1200000       -0.07880581    0.00000000
                                                     2        0.1600000        0.32040539    0.00000000
                                                     2        0.2400000       -0.47500956    0.00000000
                                                     2        0.5000000        0.54013668    0.00000000
                                                     2        1.5000000       -1.40434292    0.00000000
                                                     2        3.0000000        1.46283806    0.00000000
                                      P - F
                                                     0        0.0000010        0.00612970    0.00000000
                                                     2        0.1200000        0.02254406    0.00000000
                                                     2        0.1800000       -0.13874529    0.00000000
                                                     2        0.3000000        0.38299049    0.00000000
                                                     2        0.5000000       -0.57923512    0.00000000
                                                     2        1.0000000        0.63021625    0.00000000
                                                     2        2.0000000       -0.79201034    0.00000000
                                      D - F
                                                     0        0.0000010       -0.00296226    0.00000000
                                                     2        0.1200000       -0.00547344    0.00000000
                                                     2        0.1400000        0.01837884    0.00000000
                                                     2        0.2400000       -0.05565704    0.00000000
                                                     2        0.4000000        0.15376597    0.00000000
                                                     2        0.8000000       -0.32464795    0.00000000
   15          1            1
                                      F and up 
                                                     0        0.0000010       -0.00000699    0.00000000
                                                     2        0.1200000        0.00123686    0.00000000
                                                     2        0.1800000       -0.00752022    0.00000000
                                                     2        0.2600000        0.02503380    0.00000000
                                                     2        0.4000000       -0.08702670    0.00000000
                                                     2        0.6000000        0.30134159    0.00000000
                                                     2        0.8000000       -0.50204959    0.00000000
                                                     2        1.2000000        0.52208372    0.00000000
                                      S - F
                                                     0        0.0000010       -0.01618346    0.00000000
                                                     2        0.1200000       -0.07880581    0.00000000
                                                     2        0.1600000        0.32040539    0.00000000
                                                     2        0.2400000       -0.47500956    0.00000000
                                                     2        0.5000000        0.54013668    0.00000000
                                                     2        1.5000000       -1.40434292    0.00000000
                                                     2        3.0000000        1.46283806    0.00000000
                                      P - F
                                                     0        0.0000010        0.00612970    0.00000000
                                                     2        0.1200000        0.02254406    0.00000000
                                                     2        0.1800000       -0.13874529    0.00000000
                                                     2        0.3000000        0.38299049    0.00000000
                                                     2        0.5000000       -0.57923512    0.00000000
                                                     2        1.0000000        0.63021625    0.00000000
                                                     2        2.0000000       -0.79201034    0.00000000
                                      D - F
                                                     0        0.0000010       -0.00296226    0.00000000
                                                     2        0.1200000       -0.00547344    0.00000000
                                                     2        0.1400000        0.01837884    0.00000000
                                                     2        0.2400000       -0.05565704    0.00000000
                                                     2        0.4000000        0.15376597    0.00000000
                                                     2        0.8000000       -0.32464795    0.00000000
   16          1            1
                                      F and up 
                                                     0        0.0000010       -0.00000699    0.00000000
                                                     2        0.1200000        0.00123686    0.00000000
                                                     2        0.1800000       -0.00752022    0.00000000
                                                     2        0.2600000        0.02503380    0.00000000
                                                     2        0.4000000       -0.08702670    0.00000000
                                                     2        0.6000000        0.30134159    0.00000000
                                                     2        0.8000000       -0.50204959    0.00000000
                                                     2        1.2000000        0.52208372    0.00000000
                                      S - F
                                                     0        0.0000010       -0.01618346    0.00000000
                                                     2        0.1200000       -0.07880581    0.00000000
                                                     2        0.1600000        0.32040539    0.00000000
                                                     2        0.2400000       -0.47500956    0.00000000
                                                     2        0.5000000        0.54013668    0.00000000
                                                     2        1.5000000       -1.40434292    0.00000000
                                                     2        3.0000000        1.46283806    0.00000000
                                      P - F
                                                     0        0.0000010        0.00612970    0.00000000
                                                     2        0.1200000        0.02254406    0.00000000
                                                     2        0.1800000       -0.13874529    0.00000000
                                                     2        0.3000000        0.38299049    0.00000000
                                                     2        0.5000000       -0.57923512    0.00000000
                                                     2        1.0000000        0.63021625    0.00000000
                                                     2        2.0000000       -0.79201034    0.00000000
                                      D - F
                                                     0        0.0000010       -0.00296226    0.00000000
                                                     2        0.1200000       -0.00547344    0.00000000
                                                     2        0.1400000        0.01837884    0.00000000
                                                     2        0.2400000       -0.05565704    0.00000000
                                                     2        0.4000000        0.15376597    0.00000000
                                                     2        0.8000000       -0.32464795    0.00000000
 ======================================================================================================
   246 basis functions,   438 primitive gaussians,   260 cartesian basis functions
    31 alpha electrons       31 beta electrons
       nuclear repulsion energy       330.3787923959 Hartrees.
 NAtoms=   16 NActive=   16 NUniq=   16 SFac= 1.00D+00 NAtFMM=   60 NAOKFM=F Big=F
   1 Symmetry operations used in ECPInt.
 ECPInt:  NShTT=    6105 NPrTT=   30309 LenC2=    6032 LenP2D=   22296.
 LDataN:  DoStor=T MaxTD1= 6 Len=  172
 Initial guess from the checkpoint file:  "BDE49_nonexpt_817_mol1.chk"
 B after Tr=    -0.000000   -0.000000    0.000000
         Rot=    1.000000    0.000000   -0.000000   -0.000000 Ang=  -0.00 deg.
 >>>>>>>>>> Convergence criterion not met.
 SCF Done:  E(RHF) =  -582.436128891     A.U. after    2 cycles
            NFock=  1  Conv=0.77D-02     -V/T= 2.0002

 **********************************************************************

            Population analysis using the SCF Density.

 **********************************************************************

 Orbital symmetries:
       Occupied  (A) (A) (A) (A) (A) (A) (A) (A) (A) (A) (A) (A)
                 (A) (A) (A) (A) (A) (A) (A) (A) (A) (A) (A) (A)
                 (A) (A) (A) (A) (A) (A) (A)
       Virtual   (A) (A) (A) (A) (A) (A) (A) (A) (A) (A) (A) (A)
                 (A) (A) (A) (A) (A) (A) (A) (A) (A) (A) (A) (A)
                 (A) (A) (A) (A) (A) (A) (A) (A) (A) (A) (A) (A)
                 (A) (A) (A) (A) (A) (A) (A) (A) (A) (A) (A) (A)
                 (A) (A) (A) (A) (A) (A) (A) (A) (A) (A) (A) (A)
                 (A) (A) (A) (A) (A) (A) (A) (A) (A) (A) (A) (A)
                 (A) (A) (A) (A) (A) (A) (A) (A) (A) (A) (A) (A)
                 (A) (A) (A) (A) (A) (A) (A) (A) (A) (A) (A) (A)
                 (A) (A) (A) (A) (A) (A) (A) (A) (A) (A) (A) (A)
                 (A) (A) (A) (A) (A) (A) (A) (A) (A) (A) (A) (A)
                 (A) (A) (A) (A) (A) (A) (A) (A) (A) (A) (A) (A)
                 (A) (A) (A) (A) (A) (A) (A) (A) (A) (A) (A) (A)
                 (A) (A) (A) (A) (A) (A) (A) (A) (A) (A) (A) (A)
                 (A) (A) (A) (A) (A) (A) (A) (A) (A) (A) (A) (A)
                 (A) (A) (A) (A) (A) (A) (A) (A) (A) (A) (A) (A)
                 (A) (A) (A) (A) (A) (A) (A) (A) (A) (A) (A) (A)
                 (A) (A) (A) (A) (A) (A) (A) (A) (A) (A) (A) (A)
                 (A) (A) (A) (A) (A) (A) (A) (A) (A) (A) (A)
 The electronic state is 1-A.
 Alpha  occ. eigenvalues --  -69.04502 -20.58709 -20.58074 -11.26157 -11.24188
 Alpha  occ. eigenvalues --  -11.22579  -7.65779  -6.79963  -3.90761  -3.90731
 Alpha  occ. eigenvalues --   -3.90664  -1.34639  -1.30888  -1.06470  -0.93654
 Alpha  occ. eigenvalues --   -0.78594  -0.76909  -0.75031  -0.69348  -0.62773
 Alpha  occ. eigenvalues --   -0.59867  -0.58960  -0.58868  -0.58339  -0.57763
 Alpha  occ. eigenvalues --   -0.52266  -0.52162  -0.46854  -0.45168  -0.42256
 Alpha  occ. eigenvalues --   -0.36262
 Alpha virt. eigenvalues --    0.03089   0.04058   0.04607   0.04816   0.05668
 Alpha virt. eigenvalues --    0.06343   0.06742   0.07279   0.07425   0.08133
 Alpha virt. eigenvalues --    0.08790   0.09706   0.10059   0.10219   0.11221
 Alpha virt. eigenvalues --    0.11900   0.13172   0.14260   0.14549   0.15454
 Alpha virt. eigenvalues --    0.15749   0.16566   0.16952   0.17681   0.18243
 Alpha virt. eigenvalues --    0.18621   0.19600   0.20036   0.20593   0.21284
 Alpha virt. eigenvalues --    0.22620   0.22981   0.24197   0.24602   0.25741
 Alpha virt. eigenvalues --    0.26073   0.26361   0.26753   0.28694   0.29607
 Alpha virt. eigenvalues --    0.30072   0.30687   0.30989   0.32624   0.33424
 Alpha virt. eigenvalues --    0.34775   0.35013   0.36835   0.36960   0.38576
 Alpha virt. eigenvalues --    0.39140   0.40029   0.41238   0.42404   0.43207
 Alpha virt. eigenvalues --    0.43300   0.43801   0.44664   0.45459   0.45950
 Alpha virt. eigenvalues --    0.46529   0.47601   0.48473   0.48807   0.50486
 Alpha virt. eigenvalues --    0.51079   0.52107   0.53168   0.53794   0.53928
 Alpha virt. eigenvalues --    0.54943   0.56262   0.56682   0.57789   0.58781
 Alpha virt. eigenvalues --    0.59785   0.60522   0.60919   0.61590   0.62439
 Alpha virt. eigenvalues --    0.62715   0.63850   0.64047   0.64926   0.65705
 Alpha virt. eigenvalues --    0.66040   0.67438   0.68115   0.69929   0.70687
 Alpha virt. eigenvalues --    0.71498   0.73078   0.73677   0.73867   0.74184
 Alpha virt. eigenvalues --    0.75891   0.76731   0.78006   0.78325   0.79863
 Alpha virt. eigenvalues --    0.80663   0.81245   0.82217   0.83763   0.85551
 Alpha virt. eigenvalues --    0.87734   0.88185   0.90250   0.91559   0.92440
 Alpha virt. eigenvalues --    0.94956   0.96555   0.97857   0.99318   1.02357
 Alpha virt. eigenvalues --    1.03225   1.05437   1.05997   1.08131   1.09803
 Alpha virt. eigenvalues --    1.11524   1.13517   1.14093   1.14995   1.17027
 Alpha virt. eigenvalues --    1.17374   1.20490   1.22818   1.25886   1.27363
 Alpha virt. eigenvalues --    1.28120   1.28967   1.30454   1.34383   1.40289
 Alpha virt. eigenvalues --    1.42198   1.43340   1.44811   1.46983   1.47818
 Alpha virt. eigenvalues --    1.50356   1.53351   1.55317   1.57753   1.59144
 Alpha virt. eigenvalues --    1.63554   1.65477   1.67730   1.68054   1.69884
 Alpha virt. eigenvalues --    1.71316   1.74216   1.75572   1.78933   1.79761
 Alpha virt. eigenvalues --    1.82119   1.84853   1.87290   1.89385   1.91529
 Alpha virt. eigenvalues --    1.93857   1.95480   1.97535   2.01344   2.03159
 Alpha virt. eigenvalues --    2.05982   2.07121   2.09067   2.10231   2.11833
 Alpha virt. eigenvalues --    2.13019   2.15201   2.16417   2.18146   2.20628
 Alpha virt. eigenvalues --    2.22231   2.24577   2.25715   2.29489   2.32183
 Alpha virt. eigenvalues --    2.34106   2.36825   2.38460   2.39225   2.43329
 Alpha virt. eigenvalues --    2.44040   2.46485   2.51863   2.56599   2.60564
 Alpha virt. eigenvalues --    2.67192   2.67670   2.70734   2.75668   2.80744
 Alpha virt. eigenvalues --    2.86296   2.88989   2.96633   2.97827   3.00991
 Alpha virt. eigenvalues --    3.08951   3.10279   3.16646   3.43374   3.50257
 Alpha virt. eigenvalues --    3.52111   3.54013   3.55783   3.58207   3.59863
 Alpha virt. eigenvalues --    3.63313   3.73841   3.75350   4.11103   4.14708
          Condensed to atoms (all electrons):
 Mulliken charges:
               1
     1  C    0.461508
     2  B    0.992182
     3  O   -0.466244
     4  O   -0.506853
     5  C    0.119144
     6  C    0.152110
     7  H   -0.489018
     8  H   -0.116394
     9  H    0.050408
    10  H    0.041878
    11  H    0.179746
    12  H    0.220520
    13  Si  -0.407282
    14  H    0.059963
    15  H    0.126195
    16  H   -0.417864
 Sum of Mulliken charges =   0.00000
 Mulliken charges with hydrogens summed into heavy atoms:
               1
     1  C    0.043644
     2  B    0.992182
     3  O   -0.286498
     4  O   -0.286332
     5  C   -0.369874
     6  C    0.128002
    13  Si  -0.221124
 Electronic spatial extent (au):  <R**2>=           1433.2038
 Charge=              0.0000 electrons
 Dipole moment (field-independent basis, Debye):
    X=              1.8999    Y=              1.5342    Z=             -0.0330  Tot=              2.4422

 Test job not archived.
 1\1\GINC-SE090\SP\RHF\Aug-CC-pVDZ\C3H9B1O2Si1\OHZDE\09-Apr-2025\0\\#t 
 hf aug-cc-pvdz iop(5/13=1,5/36=2,99/5=2) pseudo=read geom=check guess=
 (read,tcheck) scf=(maxcycle=1)\\title\\0,1\C,0,1.236933,-0.306055,0.47
 8151\B,0,-1.852325,0.293758,-0.016837\O,0,-3.159576,-0.082298,-0.01381
 3\O,0,-1.562253,1.632938,-0.039063\C,0,2.265142,-0.075139,-0.348595\C,
 0,3.55854,0.592882,0.01867\H,0,2.190223,-0.401934,-1.386257\H,0,3.5728
 55,0.897079,1.067664\H,0,3.733846,1.479295,-0.601539\H,0,4.405587,-0.0
 80031,-0.156309\H,0,-3.757055,0.676869,-0.035158\H,0,-0.616237,1.80874
 9,-0.037489\Si,0,-0.379086,-1.116334,-0.019076\H,0,-0.204064,-1.67966,
 -1.384578\H,0,-0.692057,-2.237302,0.903788\H,0,1.346682,0.021576,1.514
 773\\Version=ES64L-G16RevC.01\State=1-A\HF=-582.4361289\RMSD=7.651e-03
 \Dipole=0.7474787,0.6036128,-0.0129792\Quadrupole=2.3344043,-2.8212109
 ,0.4868066,-0.8542154,-0.5056718,0.3285663\PG=C01 [X(C3H9B1O2Si1)]\\@


 IN THE UNIVERSE THE DIFFICULT THINGS ARE DONE AS IF THEY WERE EASY.

                                                          -- LAO-TSU
 Job cpu time:       0 days  0 hours  1 minutes 15.7 seconds.
 Elapsed time:       0 days  0 hours  0 minutes  5.7 seconds.
 File lengths (MBytes):  RWF=     14 Int=      0 D2E=      0 Chk=      9 Scr=      1
 Normal termination of Gaussian 16 at Wed Apr  9 00:45:33 2025.
