 Entering Gaussian System, Link 0=g16
 Input=BDE49_expt_127_mol2.gjf
 Output=BDE49_expt_127_mol2.log
 Initial command:
 /arc/software/Gaussian/g16.c01/l1.exe "/tmp/slurm/4841185/Gau-4045007.inp" -scrdir="/tmp/slurm/4841185/"
 Entering Link 1 = /arc/software/Gaussian/g16.c01/l1.exe PID=   4045010.
  
 Copyright (c) 1988-2019, Gaussian, Inc.  All Rights Reserved.
  
 This is part of the Gaussian(R) 16 program.  It is based on
 the Gaussian(R) 09 system (copyright 2009, Gaussian, Inc.),
 the Gaussian(R) 03 system (copyright 2003, Gaussian, Inc.),
 the Gaussian(R) 98 system (copyright 1998, Gaussian, Inc.),
 the Gaussian(R) 94 system (copyright 1995, Gaussian, Inc.),
 the Gaussian 92(TM) system (copyright 1992, Gaussian, Inc.),
 the Gaussian 90(TM) system (copyright 1990, Gaussian, Inc.),
 the Gaussian 88(TM) system (copyright 1988, Gaussian, Inc.),
 the Gaussian 86(TM) system (copyright 1986, Carnegie Mellon
 University), and the Gaussian 82(TM) system (copyright 1983,
 Carnegie Mellon University). Gaussian is a federally registered
 trademark of Gaussian, Inc.
  
 This software contains proprietary and confidential information,
 including trade secrets, belonging to Gaussian, Inc.
  
 This software is provided under written license and may be
 used, copied, transmitted, or stored only in accord with that
 written license.
  
 The following legend is applicable only to US Government
 contracts under FAR:
  
                    RESTRICTED RIGHTS LEGEND
  
 Use, reproduction and disclosure by the US Government is
 subject to restrictions as set forth in subparagraphs (a)
 and (c) of the Commercial Computer Software - Restricted
 Rights clause in FAR 52.227-19.
  
 Gaussian, Inc.
 340 Quinnipiac St., Bldg. 40, Wallingford CT 06492
  
  
 ---------------------------------------------------------------
 Warning -- This program may not be used in any manner that
 competes with the business of Gaussian, Inc. or will provide
 assistance to any competitor of Gaussian, Inc.  The licensee
 of this program is prohibited from giving any competitor of
 Gaussian, Inc. access to this program.  By using this program,
 the user acknowledges that Gaussian, Inc. is engaged in the
 business of creating and licensing software in the field of
 computational chemistry and represents and warrants to the
 licensee that it is not a competitor of Gaussian, Inc. and that
 it will not use this program in any manner prohibited above.
 ---------------------------------------------------------------
  

 Cite this work as:
 Gaussian 16, Revision C.01,
 M. J. Frisch, G. W. Trucks, H. B. Schlegel, G. E. Scuseria, 
 M. A. Robb, J. R. Cheeseman, G. Scalmani, V. Barone, 
 G. A. Petersson, H. Nakatsuji, X. Li, M. Caricato, A. V. Marenich, 
 J. Bloino, B. G. Janesko, R. Gomperts, B. Mennucci, H. P. Hratchian, 
 J. V. Ortiz, A. F. Izmaylov, J. L. Sonnenberg, D. Williams-Young, 
 F. Ding, F. Lipparini, F. Egidi, J. Goings, B. Peng, A. Petrone, 
 T. Henderson, D. Ranasinghe, V. G. Zakrzewski, J. Gao, N. Rega, 
 G. Zheng, W. Liang, M. Hada, M. Ehara, K. Toyota, R. Fukuda, 
 J. Hasegawa, M. Ishida, T. Nakajima, Y. Honda, O. Kitao, H. Nakai, 
 T. Vreven, K. Throssell, J. A. Montgomery, Jr., J. E. Peralta, 
 F. Ogliaro, M. J. Bearpark, J. J. Heyd, E. N. Brothers, K. N. Kudin, 
 V. N. Staroverov, T. A. Keith, R. Kobayashi, J. Normand, 
 K. Raghavachari, A. P. Rendell, J. C. Burant, S. S. Iyengar, 
 J. Tomasi, M. Cossi, J. M. Millam, M. Klene, C. Adamo, R. Cammi, 
 J. W. Ochterski, R. L. Martin, K. Morokuma, O. Farkas, 
 J. B. Foresman, and D. J. Fox, Gaussian, Inc., Wallingford CT, 2019.
 
 ******************************************
 Gaussian 16:  ES64L-G16RevC.01  3-Jul-2019
                 8-Apr-2025 
 ******************************************
 %nprocs=16
 Will use up to   16 processors via shared memory.
 %mem=30GB
 %chk=BDE49_expt_127_mol2.chk
 ----------------------------------------------------------------------
 #t hf aug-cc-pvdz symm=none int=(grid=ultrafine) guess=(read,tcheck) s
 table=opt
 ----------------------------------------------------------------------
 -----
 title
 -----
 Symbolic Z-matrix:
 Charge =  0 Multiplicity = 2
 C                     1.22276  -0.25094  -0.02922 
 C                    -0.03276   0.52094   0.06418 
 H                     2.13469   0.21822  -0.37455 
 H                     1.26298  -1.25138   0.38132 
 H                    -0.09729   1.28501  -0.71868 
 H                    -0.13315   1.0269    1.03751 
 F                    -1.14525  -0.32208  -0.05948 
 
                    Distance matrix (angstroms):
                    1          2          3          4          5
     1  C    0.000000
     2  C    1.476768   0.000000
     3  H    1.082116   2.232033   0.000000
     4  H    1.082147   2.218252   1.868398   0.000000
     5  H    2.139398   1.095825   2.497643   3.081170   0.000000
     6  H    2.146911   1.101565   2.791226   2.751418   1.775414
     7  F    2.369268   1.401285   3.339039   2.618676   2.028672
                    6          7
     6  H    0.000000
     7  F    2.011836   0.000000
 Symmetry turned off by external request.
 Rotational constants (GHZ):          41.3234569           9.9537610           8.5634605
   105 basis functions,   173 primitive gaussians,   111 cartesian basis functions
    13 alpha electrons       12 beta electrons
       nuclear repulsion energy        72.1248922192 Hartrees.
 NAtoms=    7 NActive=    7 NUniq=    7 SFac= 1.00D+00 NAtFMM=   60 NAOKFM=F Big=F
 ExpMin= 2.97D-02 ExpMax= 1.47D+04 ExpMxC= 5.03D+02 IAcc=3 IRadAn=         5 AccDes= 0.00D+00
 Harris functional with IExCor=  205 and IRadAn=       5 diagonalized for initial guess.
 HarFok:  IExCor=  205 AccDes= 0.00D+00 IRadAn=         5 IDoV= 1 UseB2=F ITyADJ=14
 ICtDFT=  3500011 ScaDFX=  1.000000  1.000000  1.000000  1.000000
 FoFCou: FMM=F IPFlag=           0 FMFlag=      100000 FMFlg1=           0
         NFxFlg=           0 DoJE=T BraDBF=F KetDBF=T FulRan=T
         wScrn=  0.000000 ICntrl=       500 IOpCl=  0 I1Cent=   200000004 NGrid=           0
         NMat0=    1 NMatS0=      1 NMatT0=    0 NMatD0=    1 NMtDS0=    0 NMtDT0=    0
 Symmetry not used in FoFCou.
 Initial guess <Sx>= 0.0000 <Sy>= 0.0000 <Sz>= 0.5000 <S**2>= 0.7500 S= 0.5000
 SCF Done:  E(UHF) =  -177.470148649     A.U. after   15 cycles
            NFock= 15  Conv=0.55D-08     -V/T= 2.0011
 <Sx>= 0.0000 <Sy>= 0.0000 <Sz>= 0.5000 <S**2>= 0.7626 S= 0.5063
 <L.S>=  0.00000000000    
 Annihilation of the first spin contaminant:
 S**2 before annihilation     0.7626,   after     0.7501

 **********************************************************************

            Population analysis using the SCF Density.

 **********************************************************************

 Alpha  occ. eigenvalues --  -26.28784 -11.32337 -11.25436  -1.58713  -1.05003
 Alpha  occ. eigenvalues --   -0.86412  -0.70325  -0.69644  -0.65917  -0.58981
 Alpha  occ. eigenvalues --   -0.54009  -0.53373  -0.37657
 Alpha virt. eigenvalues --    0.03550   0.04985   0.05221   0.06071   0.10966
 Alpha virt. eigenvalues --    0.12329   0.12865   0.13526   0.16676   0.17014
 Alpha virt. eigenvalues --    0.18365   0.20737   0.25085   0.25947   0.28303
 Alpha virt. eigenvalues --    0.31108   0.32347   0.34706   0.36302   0.37225
 Alpha virt. eigenvalues --    0.38693   0.41151   0.42318   0.43204   0.46162
 Alpha virt. eigenvalues --    0.48637   0.50432   0.52140   0.53349   0.56053
 Alpha virt. eigenvalues --    0.57264   0.59457   0.60499   0.62424   0.62814
 Alpha virt. eigenvalues --    0.64793   0.66623   0.68317   0.69502   0.71129
 Alpha virt. eigenvalues --    0.74983   0.81186   0.82819   0.85934   1.00911
 Alpha virt. eigenvalues --    1.01687   1.03243   1.07374   1.11909   1.20700
 Alpha virt. eigenvalues --    1.33114   1.38869   1.44063   1.47204   1.51053
 Alpha virt. eigenvalues --    1.59842   1.61497   1.62779   1.64129   1.72262
 Alpha virt. eigenvalues --    1.75598   1.77149   1.82872   1.88518   1.91815
 Alpha virt. eigenvalues --    1.93596   1.96442   2.00318   2.03972   2.06139
 Alpha virt. eigenvalues --    2.10815   2.21720   2.23568   2.29039   2.29918
 Alpha virt. eigenvalues --    2.41497   2.43303   2.51855   2.57452   2.64807
 Alpha virt. eigenvalues --    2.67125   2.71223   2.84258   2.90240   3.14103
 Alpha virt. eigenvalues --    3.15261   3.62211   5.01063   5.02594   5.10796
 Alpha virt. eigenvalues --    5.11900   5.13848
  Beta  occ. eigenvalues --  -26.28710 -11.32670 -11.22985  -1.58477  -1.00857
  Beta  occ. eigenvalues --   -0.81853  -0.69787  -0.68661  -0.65227  -0.57583
  Beta  occ. eigenvalues --   -0.52532  -0.52125
  Beta virt. eigenvalues --    0.03634   0.05016   0.05247   0.05805   0.07898
  Beta virt. eigenvalues --    0.11309   0.12394   0.13613   0.16348   0.17255
  Beta virt. eigenvalues --    0.18188   0.19189   0.21123   0.25557   0.26786
  Beta virt. eigenvalues --    0.28584   0.31755   0.33213   0.35568   0.36601
  Beta virt. eigenvalues --    0.38109   0.39150   0.41572   0.42517   0.43671
  Beta virt. eigenvalues --    0.48359   0.49643   0.50614   0.52885   0.54324
  Beta virt. eigenvalues --    0.57457   0.58412   0.59964   0.61283   0.63352
  Beta virt. eigenvalues --    0.64073   0.66544   0.67462   0.69629   0.70616
  Beta virt. eigenvalues --    0.72526   0.76092   0.81913   0.83964   0.86432
  Beta virt. eigenvalues --    1.01986   1.03367   1.07443   1.09917   1.12964
  Beta virt. eigenvalues --    1.21409   1.34094   1.39045   1.44318   1.48415
  Beta virt. eigenvalues --    1.51534   1.60057   1.62294   1.63952   1.67219
  Beta virt. eigenvalues --    1.74045   1.77337   1.79351   1.83362   1.89094
  Beta virt. eigenvalues --    1.92174   1.94432   1.97278   2.00765   2.05261
  Beta virt. eigenvalues --    2.07617   2.11628   2.23420   2.24371   2.30304
  Beta virt. eigenvalues --    2.31224   2.41680   2.44218   2.52167   2.58662
  Beta virt. eigenvalues --    2.65769   2.67644   2.71830   2.84692   2.90557
  Beta virt. eigenvalues --    3.14848   3.15852   3.62361   5.01091   5.02618
  Beta virt. eigenvalues --    5.10927   5.12066   5.14046
          Condensed to atoms (all electrons):
          Atomic-Atomic Spin Densities.
 Mulliken charges and spin densities:
               1          2
     1  C    0.294904   1.352412
     2  C    0.864148  -0.188013
     3  H   -0.174169  -0.112634
     4  H   -0.173627  -0.103379
     5  H   -0.128948   0.014578
     6  H   -0.079850   0.032261
     7  F   -0.602459   0.004777
 Sum of Mulliken charges =  -0.00000   1.00000
 Mulliken charges and spin densities with hydrogens summed into heavy atoms:
               1          2
     1  C   -0.052891   1.136398
     2  C    0.655350  -0.141175
     7  F   -0.602459   0.004777
 Electronic spatial extent (au):  <R**2>=            170.3695
 Charge=             -0.0000 electrons
 Dipole moment (field-independent basis, Debye):
    X=              1.7927    Y=              1.2474    Z=              0.2761  Tot=              2.2014
                          Isotropic Fermi Contact Couplings
        Atom                 a.u.       MegaHertz       Gauss      10(-4) cm-1
     1  C(13)              0.20911     235.07436      83.88038      78.41236
     2  C(13)             -0.06204     -69.74448     -24.88656     -23.26425
     3  H(1)              -0.02603    -116.33261     -41.51037     -38.80438
     4  H(1)              -0.02498    -111.67083     -39.84693     -37.24938
     5  H(1)               0.01002      44.77802      15.97791      14.93634
     6  H(1)               0.02379     106.36077      37.95217      35.47813
     7  F(19)              0.01618      68.06604      24.28766      22.70439
 --------------------------------------------------------
       Center         ----  Spin Dipole Couplings  ----
                      3XX-RR        3YY-RR        3ZZ-RR
 --------------------------------------------------------
     1   Atom       -0.463487     -0.356120      0.819607
     2   Atom        0.014203     -0.007396     -0.006807
     3   Atom        0.040682     -0.039863     -0.000819
     4   Atom       -0.076687      0.071681      0.005005
     5   Atom        0.004825      0.003425     -0.008250
     6   Atom        0.008568      0.000640     -0.009208
     7   Atom        0.088296     -0.033410     -0.054886
 --------------------------------------------------------
                        XY            XZ            YZ
 --------------------------------------------------------
     1   Atom        0.121941      0.321648      0.490279
     2   Atom        0.008616     -0.013197     -0.007368
     3   Atom        0.067442     -0.027788      0.002289
     4   Atom        0.001819      0.017340     -0.032413
     5   Atom       -0.013818      0.006496     -0.000875
     6   Atom       -0.009309     -0.002823      0.004792
     7   Atom        0.056340      0.014375      0.011525
 --------------------------------------------------------


 ---------------------------------------------------------------------------------
              Anisotropic Spin Dipole Couplings in Principal Axis System
 ---------------------------------------------------------------------------------

       Atom             a.u.   MegaHertz   Gauss  10(-4) cm-1        Axes

              Baa    -0.5431   -72.875   -26.004   -24.308  0.8615 -0.5074 -0.0208
     1 C(13)  Bbb    -0.5311   -71.267   -25.430   -23.772  0.4585  0.7947 -0.3977
              Bcc     1.0742   144.142    51.433    48.081  0.2183  0.3330  0.9173
 
              Baa    -0.0151    -2.027    -0.723    -0.676  0.2046  0.5473  0.8116
     2 C(13)  Bbb    -0.0093    -1.244    -0.444    -0.415 -0.5032  0.7700 -0.3924
              Bcc     0.0244     3.271     1.167     1.091  0.8396  0.3281 -0.4329
 
              Baa    -0.0813   -43.398   -15.485   -14.476 -0.5084  0.8377 -0.1993
     3 H(1)   Bbb    -0.0039    -2.081    -0.743    -0.694  0.1297  0.3033  0.9440
              Bcc     0.0852    45.479    16.228    15.170  0.8513  0.4541 -0.2628
 
              Baa    -0.0807   -43.056   -15.363   -14.362  0.9740 -0.0582 -0.2191
     4 H(1)   Bbb    -0.0043    -2.290    -0.817    -0.764  0.2246  0.3778  0.8982
              Bcc     0.0850    45.346    16.181    15.126 -0.0305  0.9240 -0.3811
 
              Baa    -0.0133    -7.087    -2.529    -2.364 -0.5845 -0.4480  0.6765
     5 H(1)   Bbb    -0.0057    -3.059    -1.091    -1.020  0.3571  0.6067  0.7102
              Bcc     0.0190    10.146     3.620     3.384  0.7286 -0.6567  0.1947
 
              Baa    -0.0112    -5.984    -2.135    -1.996 -0.0682 -0.4194  0.9052
     6 H(1)   Bbb    -0.0045    -2.411    -0.860    -0.804  0.5896  0.7150  0.3757
              Bcc     0.0157     8.395     2.996     2.800  0.8048 -0.5594 -0.1986
 
              Baa    -0.0616   -30.939   -11.040   -10.320  0.1722 -0.6475  0.7424
     7 F(19)  Bbb    -0.0506   -25.423    -9.072    -8.480 -0.3396  0.6684  0.6618
              Bcc     0.1122    56.363    20.112    18.801  0.9247  0.3660  0.1048
 

 ---------------------------------------------------------------------------------

 NROrb=    105 NOA=    13 NOB=    12 NVA=    92 NVB=    93

 **** Warning!!: The largest alpha MO coefficient is  0.24903971D+02


 **** Warning!!: The largest beta MO coefficient is  0.24924700D+02

    12 initial guesses have been made.
 Iteration     1 Dimension    12 NMult     0 NNew     12
 Iteration     2 Dimension    24 NMult    12 NNew     12
 Iteration     3 Dimension    27 NMult    24 NNew      3
 Iteration     4 Dimension    30 NMult    27 NNew      3
 Iteration     5 Dimension    33 NMult    30 NNew      3
 Iteration     6 Dimension    36 NMult    33 NNew      3
 Iteration     7 Dimension    39 NMult    36 NNew      3
 ***********************************************************************
 Stability analysis using <AA,BB:AA,BB> singles matrix:
 ***********************************************************************
 Ground to excited state transition densities written to RWF  633

 Eigenvectors of the stability matrix:
 
 Excited state symmetry could not be determined.
 Eigenvector   1:  2.076-?Sym  Eigenvalue= 0.2380744  <S**2>=0.828
     13A -> 14A        0.79864
     13A -> 15A        0.25833
     13A -> 21A       -0.12055
     13A -> 22A        0.11121
     13A -> 23A       -0.35488
     13A -> 25A        0.16502
     13A -> 27A        0.13659
 The wavefunction is stable under the perturbations considered.
 The wavefunction is already stable.

 **********************************************************************

            Population analysis using the SCF Density.

 **********************************************************************

 Alpha  occ. eigenvalues --  -26.28784 -11.32337 -11.25436  -1.58713  -1.05003
 Alpha  occ. eigenvalues --   -0.86412  -0.70325  -0.69644  -0.65917  -0.58981
 Alpha  occ. eigenvalues --   -0.54009  -0.53373  -0.37657
 Alpha virt. eigenvalues --    0.03550   0.04985   0.05221   0.06071   0.10966
 Alpha virt. eigenvalues --    0.12329   0.12865   0.13526   0.16676   0.17014
 Alpha virt. eigenvalues --    0.18365   0.20737   0.25085   0.25947   0.28303
 Alpha virt. eigenvalues --    0.31108   0.32347   0.34706   0.36302   0.37225
 Alpha virt. eigenvalues --    0.38693   0.41151   0.42318   0.43204   0.46162
 Alpha virt. eigenvalues --    0.48637   0.50432   0.52140   0.53349   0.56053
 Alpha virt. eigenvalues --    0.57264   0.59457   0.60499   0.62424   0.62814
 Alpha virt. eigenvalues --    0.64793   0.66623   0.68317   0.69502   0.71129
 Alpha virt. eigenvalues --    0.74983   0.81186   0.82819   0.85934   1.00911
 Alpha virt. eigenvalues --    1.01687   1.03243   1.07374   1.11909   1.20700
 Alpha virt. eigenvalues --    1.33114   1.38869   1.44063   1.47204   1.51053
 Alpha virt. eigenvalues --    1.59842   1.61497   1.62779   1.64129   1.72262
 Alpha virt. eigenvalues --    1.75598   1.77149   1.82872   1.88518   1.91815
 Alpha virt. eigenvalues --    1.93596   1.96442   2.00318   2.03972   2.06139
 Alpha virt. eigenvalues --    2.10815   2.21720   2.23568   2.29039   2.29918
 Alpha virt. eigenvalues --    2.41497   2.43303   2.51855   2.57452   2.64807
 Alpha virt. eigenvalues --    2.67125   2.71223   2.84258   2.90240   3.14103
 Alpha virt. eigenvalues --    3.15261   3.62211   5.01063   5.02594   5.10796
 Alpha virt. eigenvalues --    5.11900   5.13848
  Beta  occ. eigenvalues --  -26.28710 -11.32670 -11.22985  -1.58477  -1.00857
  Beta  occ. eigenvalues --   -0.81853  -0.69787  -0.68661  -0.65227  -0.57583
  Beta  occ. eigenvalues --   -0.52532  -0.52125
  Beta virt. eigenvalues --    0.03634   0.05016   0.05247   0.05805   0.07898
  Beta virt. eigenvalues --    0.11309   0.12394   0.13613   0.16348   0.17255
  Beta virt. eigenvalues --    0.18188   0.19189   0.21123   0.25557   0.26786
  Beta virt. eigenvalues --    0.28584   0.31755   0.33213   0.35568   0.36601
  Beta virt. eigenvalues --    0.38109   0.39150   0.41572   0.42517   0.43671
  Beta virt. eigenvalues --    0.48359   0.49643   0.50614   0.52885   0.54324
  Beta virt. eigenvalues --    0.57457   0.58412   0.59964   0.61283   0.63352
  Beta virt. eigenvalues --    0.64073   0.66544   0.67462   0.69629   0.70616
  Beta virt. eigenvalues --    0.72526   0.76092   0.81913   0.83964   0.86432
  Beta virt. eigenvalues --    1.01986   1.03367   1.07443   1.09917   1.12964
  Beta virt. eigenvalues --    1.21409   1.34094   1.39045   1.44318   1.48415
  Beta virt. eigenvalues --    1.51534   1.60057   1.62294   1.63952   1.67219
  Beta virt. eigenvalues --    1.74045   1.77337   1.79351   1.83362   1.89094
  Beta virt. eigenvalues --    1.92174   1.94432   1.97278   2.00765   2.05261
  Beta virt. eigenvalues --    2.07617   2.11628   2.23420   2.24371   2.30304
  Beta virt. eigenvalues --    2.31224   2.41680   2.44218   2.52167   2.58662
  Beta virt. eigenvalues --    2.65769   2.67644   2.71830   2.84692   2.90557
  Beta virt. eigenvalues --    3.14848   3.15852   3.62361   5.01091   5.02618
  Beta virt. eigenvalues --    5.10927   5.12066   5.14046
          Condensed to atoms (all electrons):
          Atomic-Atomic Spin Densities.
 Mulliken charges and spin densities:
               1          2
     1  C    0.294904   1.352412
     2  C    0.864148  -0.188013
     3  H   -0.174169  -0.112634
     4  H   -0.173627  -0.103379
     5  H   -0.128948   0.014578
     6  H   -0.079850   0.032261
     7  F   -0.602459   0.004777
 Sum of Mulliken charges =  -0.00000   1.00000
 Mulliken charges and spin densities with hydrogens summed into heavy atoms:
               1          2
     1  C   -0.052891   1.136398
     2  C    0.655350  -0.141175
     7  F   -0.602459   0.004777
 Electronic spatial extent (au):  <R**2>=            170.3695
 Charge=             -0.0000 electrons
 Dipole moment (field-independent basis, Debye):
    X=              1.7927    Y=              1.2474    Z=              0.2761  Tot=              2.2014
                          Isotropic Fermi Contact Couplings
        Atom                 a.u.       MegaHertz       Gauss      10(-4) cm-1
     1  C(13)              0.20911     235.07436      83.88038      78.41236
     2  C(13)             -0.06204     -69.74448     -24.88656     -23.26425
     3  H(1)              -0.02603    -116.33261     -41.51037     -38.80438
     4  H(1)              -0.02498    -111.67083     -39.84693     -37.24938
     5  H(1)               0.01002      44.77802      15.97791      14.93634
     6  H(1)               0.02379     106.36077      37.95217      35.47813
     7  F(19)              0.01618      68.06604      24.28766      22.70439
 --------------------------------------------------------
       Center         ----  Spin Dipole Couplings  ----
                      3XX-RR        3YY-RR        3ZZ-RR
 --------------------------------------------------------
     1   Atom       -0.463487     -0.356120      0.819607
     2   Atom        0.014203     -0.007396     -0.006807
     3   Atom        0.040682     -0.039863     -0.000819
     4   Atom       -0.076687      0.071681      0.005005
     5   Atom        0.004825      0.003425     -0.008250
     6   Atom        0.008568      0.000640     -0.009208
     7   Atom        0.088296     -0.033410     -0.054886
 --------------------------------------------------------
                        XY            XZ            YZ
 --------------------------------------------------------
     1   Atom        0.121941      0.321648      0.490279
     2   Atom        0.008616     -0.013197     -0.007368
     3   Atom        0.067442     -0.027788      0.002289
     4   Atom        0.001819      0.017340     -0.032413
     5   Atom       -0.013818      0.006496     -0.000875
     6   Atom       -0.009309     -0.002823      0.004792
     7   Atom        0.056340      0.014375      0.011525
 --------------------------------------------------------


 ---------------------------------------------------------------------------------
              Anisotropic Spin Dipole Couplings in Principal Axis System
 ---------------------------------------------------------------------------------

       Atom             a.u.   MegaHertz   Gauss  10(-4) cm-1        Axes

              Baa    -0.5431   -72.875   -26.004   -24.308  0.8615 -0.5074 -0.0208
     1 C(13)  Bbb    -0.5311   -71.267   -25.430   -23.772  0.4585  0.7947 -0.3977
              Bcc     1.0742   144.142    51.433    48.081  0.2183  0.3330  0.9173
 
              Baa    -0.0151    -2.027    -0.723    -0.676  0.2046  0.5473  0.8116
     2 C(13)  Bbb    -0.0093    -1.244    -0.444    -0.415 -0.5032  0.7700 -0.3924
              Bcc     0.0244     3.271     1.167     1.091  0.8396  0.3281 -0.4329
 
              Baa    -0.0813   -43.398   -15.485   -14.476 -0.5084  0.8377 -0.1993
     3 H(1)   Bbb    -0.0039    -2.081    -0.743    -0.694  0.1297  0.3033  0.9440
              Bcc     0.0852    45.479    16.228    15.170  0.8513  0.4541 -0.2628
 
              Baa    -0.0807   -43.056   -15.363   -14.362  0.9740 -0.0582 -0.2191
     4 H(1)   Bbb    -0.0043    -2.290    -0.817    -0.764  0.2246  0.3778  0.8982
              Bcc     0.0850    45.346    16.181    15.126 -0.0305  0.9240 -0.3811
 
              Baa    -0.0133    -7.087    -2.529    -2.364 -0.5845 -0.4480  0.6765
     5 H(1)   Bbb    -0.0057    -3.059    -1.091    -1.020  0.3571  0.6067  0.7102
              Bcc     0.0190    10.146     3.620     3.384  0.7286 -0.6567  0.1947
 
              Baa    -0.0112    -5.984    -2.135    -1.996 -0.0682 -0.4194  0.9052
     6 H(1)   Bbb    -0.0045    -2.411    -0.860    -0.804  0.5896  0.7150  0.3757
              Bcc     0.0157     8.395     2.996     2.800  0.8048 -0.5594 -0.1986
 
              Baa    -0.0616   -30.939   -11.040   -10.320  0.1722 -0.6475  0.7424
     7 F(19)  Bbb    -0.0506   -25.423    -9.072    -8.480 -0.3396  0.6684  0.6618
              Bcc     0.1122    56.363    20.112    18.801  0.9247  0.3660  0.1048
 

 ---------------------------------------------------------------------------------

 Unable to Open any file for archive entry.
 1\1\GINC-SE227\Stability\UHF\Aug-CC-pVDZ\C2H4F1\OHZDE\08-Apr-2025\0\\#
 t hf aug-cc-pvdz symm=none int=(grid=ultrafine) guess=(read,tcheck) st
 able=opt\\title\\0,2\C,0,1.222759,-0.250935,-0.029215\C,0,-0.032762,0.
 520938,0.064175\H,0,2.134691,0.218215,-0.374546\H,0,1.262983,-1.251379
 ,0.381317\H,0,-0.09729,1.285012,-0.718678\H,0,-0.133146,1.026896,1.037
 507\F,0,-1.145247,-0.322084,-0.059484\\Version=ES64L-G16RevC.01\HF=-17
 7.4701486\S2=0.762569\S2-1=0.\S2A=0.750103\RMSD=5.512e-09\Dipole=0.705
 3046,0.4907728,0.1086266\Quadrupole=-0.9752172,0.8737766,0.1014406,-0.
 6113316,-0.2669824,-0.4704857\PG=Unknown\\@
 The archive entry for this job was punched.


 ACHIEVEMENT--  THE MAN WHO ROWS THE BOAT GENERALLY 
                DOESN'T HAVE TIME TO ROCK IT.

                   -- FROM THE BACK OF A SUGAR PACKET
 Job cpu time:       0 days  0 hours  0 minutes 30.0 seconds.
 Elapsed time:       0 days  0 hours  0 minutes  3.4 seconds.
 File lengths (MBytes):  RWF=     78 Int=      0 D2E=      0 Chk=      3 Scr=      1
 Normal termination of Gaussian 16 at Tue Apr  8 22:38:23 2025.
 Initial command:
 /arc/software/Gaussian/g16.c01/l1.exe "/tmp/slurm/4841185/Gau-4045007.inp" -scrdir="/tmp/slurm/4841185/"
 Entering Link 1 = /arc/software/Gaussian/g16.c01/l1.exe PID=   4045341.
  
 Copyright (c) 1988-2019, Gaussian, Inc.  All Rights Reserved.
  
 This is part of the Gaussian(R) 16 program.  It is based on
 the Gaussian(R) 09 system (copyright 2009, Gaussian, Inc.),
 the Gaussian(R) 03 system (copyright 2003, Gaussian, Inc.),
 the Gaussian(R) 98 system (copyright 1998, Gaussian, Inc.),
 the Gaussian(R) 94 system (copyright 1995, Gaussian, Inc.),
 the Gaussian 92(TM) system (copyright 1992, Gaussian, Inc.),
 the Gaussian 90(TM) system (copyright 1990, Gaussian, Inc.),
 the Gaussian 88(TM) system (copyright 1988, Gaussian, Inc.),
 the Gaussian 86(TM) system (copyright 1986, Carnegie Mellon
 University), and the Gaussian 82(TM) system (copyright 1983,
 Carnegie Mellon University). Gaussian is a federally registered
 trademark of Gaussian, Inc.
  
 This software contains proprietary and confidential information,
 including trade secrets, belonging to Gaussian, Inc.
  
 This software is provided under written license and may be
 used, copied, transmitted, or stored only in accord with that
 written license.
  
 The following legend is applicable only to US Government
 contracts under FAR:
  
                    RESTRICTED RIGHTS LEGEND
  
 Use, reproduction and disclosure by the US Government is
 subject to restrictions as set forth in subparagraphs (a)
 and (c) of the Commercial Computer Software - Restricted
 Rights clause in FAR 52.227-19.
  
 Gaussian, Inc.
 340 Quinnipiac St., Bldg. 40, Wallingford CT 06492
  
  
 ---------------------------------------------------------------
 Warning -- This program may not be used in any manner that
 competes with the business of Gaussian, Inc. or will provide
 assistance to any competitor of Gaussian, Inc.  The licensee
 of this program is prohibited from giving any competitor of
 Gaussian, Inc. access to this program.  By using this program,
 the user acknowledges that Gaussian, Inc. is engaged in the
 business of creating and licensing software in the field of
 computational chemistry and represents and warrants to the
 licensee that it is not a competitor of Gaussian, Inc. and that
 it will not use this program in any manner prohibited above.
 ---------------------------------------------------------------
  

 Cite this work as:
 Gaussian 16, Revision C.01,
 M. J. Frisch, G. W. Trucks, H. B. Schlegel, G. E. Scuseria, 
 M. A. Robb, J. R. Cheeseman, G. Scalmani, V. Barone, 
 G. A. Petersson, H. Nakatsuji, X. Li, M. Caricato, A. V. Marenich, 
 J. Bloino, B. G. Janesko, R. Gomperts, B. Mennucci, H. P. Hratchian, 
 J. V. Ortiz, A. F. Izmaylov, J. L. Sonnenberg, D. Williams-Young, 
 F. Ding, F. Lipparini, F. Egidi, J. Goings, B. Peng, A. Petrone, 
 T. Henderson, D. Ranasinghe, V. G. Zakrzewski, J. Gao, N. Rega, 
 G. Zheng, W. Liang, M. Hada, M. Ehara, K. Toyota, R. Fukuda, 
 J. Hasegawa, M. Ishida, T. Nakajima, Y. Honda, O. Kitao, H. Nakai, 
 T. Vreven, K. Throssell, J. A. Montgomery, Jr., J. E. Peralta, 
 F. Ogliaro, M. J. Bearpark, J. J. Heyd, E. N. Brothers, K. N. Kudin, 
 V. N. Staroverov, T. A. Keith, R. Kobayashi, J. Normand, 
 K. Raghavachari, A. P. Rendell, J. C. Burant, S. S. Iyengar, 
 J. Tomasi, M. Cossi, J. M. Millam, M. Klene, C. Adamo, R. Cammi, 
 J. W. Ochterski, R. L. Martin, K. Morokuma, O. Farkas, 
 J. B. Foresman, and D. J. Fox, Gaussian, Inc., Wallingford CT, 2019.
 
 ******************************************
 Gaussian 16:  ES64L-G16RevC.01  3-Jul-2019
                 8-Apr-2025 
 ******************************************
 %nprocs=16
 Will use up to   16 processors via shared memory.
 %mem=30GB
 %chk=BDE49_expt_127_mol2.chk
 ----------------------------------------------------------------------
 #t hf aug-cc-pvdz iop(5/13=1,5/36=2,99/5=2) pseudo=read geom=check gue
 ss=(read,tcheck) scf=(maxcycle=1)
 ----------------------------------------------------------------------
 -----
 title
 -----
 Structure from the checkpoint file:  "BDE49_expt_127_mol2.chk"
 Charge =  0 Multiplicity = 2
 Z-Matrix found in chk file.
 C,0,1.222759,-0.250935,-0.029215
 C,0,-0.032762,0.520938,0.064175
 H,0,2.134691,0.218215,-0.374546
 H,0,1.262983,-1.251379,0.381317
 H,0,-0.09729,1.285012,-0.718678
 H,0,-0.133146,1.026896,1.037507
 F,0,-1.145247,-0.322084,-0.059484
 Recover connectivity data from disk.
                    Distance matrix (angstroms):
                    1          2          3          4          5
     1  C    0.000000
     2  C    1.476768   0.000000
     3  H    1.082116   2.232033   0.000000
     4  H    1.082147   2.218252   1.868398   0.000000
     5  H    2.139398   1.095825   2.497643   3.081170   0.000000
     6  H    2.146911   1.101565   2.791226   2.751418   1.775414
     7  F    2.369268   1.401285   3.339039   2.618676   2.028672
                    6          7
     6  H    0.000000
     7  F    2.011836   0.000000
 Framework group  C1[X(C2H4F)]
 Deg. of freedom    15
                         Standard orientation:                         
 ---------------------------------------------------------------------
 Center     Atomic      Atomic             Coordinates (Angstroms)
 Number     Number       Type             X           Y           Z
 ---------------------------------------------------------------------
      1          6           0        1.222759   -0.250935   -0.029215
      2          6           0       -0.032762    0.520938    0.064175
      3          1           0        2.134691    0.218215   -0.374546
      4          1           0        1.262983   -1.251379    0.381317
      5          1           0       -0.097290    1.285012   -0.718678
      6          1           0       -0.133146    1.026896    1.037507
      7          9           0       -1.145247   -0.322084   -0.059484
 ---------------------------------------------------------------------
 Rotational constants (GHZ):          41.3234569           9.9537610           8.5634605
 ======================================================================================================
                                       Pseudopotential Parameters
 ======================================================================================================
  Center     Atomic      Valence      Angular      Power
  Number     Number     Electrons     Momentum     of R      Exponent        Coefficient   SO-Coeffient
 ======================================================================================================
    1          6            6
                                      G and up 
                                                     0        0.0000010       -0.00011185    0.00000000
                                                     2        0.1200000       -0.02301220    0.00000000
                                                     2        0.1400000        0.13317600    0.00000000
                                                     2        0.1600000       -0.19690668    0.00000000
                                                     2        0.2200000        0.23163694    0.00000000
                                                     2        0.3000000       -0.36920489    0.00000000
                                                     2        0.4000000        0.36389709    0.00000000
                                                     2        0.7000000       -0.38862160    0.00000000
                                                     2        1.3000000        0.80803421    0.00000000
                                      S - G
                                                     0        0.0000010        0.00312304    0.00000000
                                                     2        0.1200000       -0.00632892    0.00000000
                                                     2        0.2200000       -0.03780897    0.00000000
                                                     2        0.4000000        0.26269560    0.00000000
                                                     2        0.9000000       -0.28209514    0.00000000
                                                     2        1.5000000       -0.72686737    0.00000000
                                      P - G
                                                     0        0.0000010       -0.01465594    0.00000000
                                                     2        0.1200000        0.07908409    0.00000000
                                                     2        0.1800000       -0.30615861    0.00000000
                                                     2        0.2600000        0.41506950    0.00000000
                                                     2        0.5000000       -0.36252345    0.00000000
                                                     2        0.9000000        0.15124193    0.00000000
                                                     2        3.0000000       -0.80425677    0.00000000
                                      D - G
                                                     0        0.0000010        0.01149631    0.00000000
                                                     2        0.1200000       -0.04713561    0.00000000
                                                     2        0.1600000        0.10865096    0.00000000
                                                     2        0.2800000       -0.15816701    0.00000000
                                                     2        0.7000000        0.65478804    0.00000000
                                                     2        1.3000000       -1.73816624    0.00000000
                                      F - G
                                                     0        0.0000010        0.00481868    0.00000000
                                                     2        0.1200000       -0.04746842    0.00000000
                                                     2        0.1600000        0.09327889    0.00000000
                                                     2        0.4000000       -0.19693326    0.00000000
                                                     2        0.9000000        0.34938253    0.00000000
    2          6            6
                                      G and up 
                                                     0        0.0000010       -0.00011185    0.00000000
                                                     2        0.1200000       -0.02301220    0.00000000
                                                     2        0.1400000        0.13317600    0.00000000
                                                     2        0.1600000       -0.19690668    0.00000000
                                                     2        0.2200000        0.23163694    0.00000000
                                                     2        0.3000000       -0.36920489    0.00000000
                                                     2        0.4000000        0.36389709    0.00000000
                                                     2        0.7000000       -0.38862160    0.00000000
                                                     2        1.3000000        0.80803421    0.00000000
                                      S - G
                                                     0        0.0000010        0.00312304    0.00000000
                                                     2        0.1200000       -0.00632892    0.00000000
                                                     2        0.2200000       -0.03780897    0.00000000
                                                     2        0.4000000        0.26269560    0.00000000
                                                     2        0.9000000       -0.28209514    0.00000000
                                                     2        1.5000000       -0.72686737    0.00000000
                                      P - G
                                                     0        0.0000010       -0.01465594    0.00000000
                                                     2        0.1200000        0.07908409    0.00000000
                                                     2        0.1800000       -0.30615861    0.00000000
                                                     2        0.2600000        0.41506950    0.00000000
                                                     2        0.5000000       -0.36252345    0.00000000
                                                     2        0.9000000        0.15124193    0.00000000
                                                     2        3.0000000       -0.80425677    0.00000000
                                      D - G
                                                     0        0.0000010        0.01149631    0.00000000
                                                     2        0.1200000       -0.04713561    0.00000000
                                                     2        0.1600000        0.10865096    0.00000000
                                                     2        0.2800000       -0.15816701    0.00000000
                                                     2        0.7000000        0.65478804    0.00000000
                                                     2        1.3000000       -1.73816624    0.00000000
                                      F - G
                                                     0        0.0000010        0.00481868    0.00000000
                                                     2        0.1200000       -0.04746842    0.00000000
                                                     2        0.1600000        0.09327889    0.00000000
                                                     2        0.4000000       -0.19693326    0.00000000
                                                     2        0.9000000        0.34938253    0.00000000
    3          1            1
                                      F and up 
                                                     0        0.0000010       -0.00000699    0.00000000
                                                     2        0.1200000        0.00123686    0.00000000
                                                     2        0.1800000       -0.00752022    0.00000000
                                                     2        0.2600000        0.02503380    0.00000000
                                                     2        0.4000000       -0.08702670    0.00000000
                                                     2        0.6000000        0.30134159    0.00000000
                                                     2        0.8000000       -0.50204959    0.00000000
                                                     2        1.2000000        0.52208372    0.00000000
                                      S - F
                                                     0        0.0000010       -0.01618346    0.00000000
                                                     2        0.1200000       -0.07880581    0.00000000
                                                     2        0.1600000        0.32040539    0.00000000
                                                     2        0.2400000       -0.47500956    0.00000000
                                                     2        0.5000000        0.54013668    0.00000000
                                                     2        1.5000000       -1.40434292    0.00000000
                                                     2        3.0000000        1.46283806    0.00000000
                                      P - F
                                                     0        0.0000010        0.00612970    0.00000000
                                                     2        0.1200000        0.02254406    0.00000000
                                                     2        0.1800000       -0.13874529    0.00000000
                                                     2        0.3000000        0.38299049    0.00000000
                                                     2        0.5000000       -0.57923512    0.00000000
                                                     2        1.0000000        0.63021625    0.00000000
                                                     2        2.0000000       -0.79201034    0.00000000
                                      D - F
                                                     0        0.0000010       -0.00296226    0.00000000
                                                     2        0.1200000       -0.00547344    0.00000000
                                                     2        0.1400000        0.01837884    0.00000000
                                                     2        0.2400000       -0.05565704    0.00000000
                                                     2        0.4000000        0.15376597    0.00000000
                                                     2        0.8000000       -0.32464795    0.00000000
    4          1            1
                                      F and up 
                                                     0        0.0000010       -0.00000699    0.00000000
                                                     2        0.1200000        0.00123686    0.00000000
                                                     2        0.1800000       -0.00752022    0.00000000
                                                     2        0.2600000        0.02503380    0.00000000
                                                     2        0.4000000       -0.08702670    0.00000000
                                                     2        0.6000000        0.30134159    0.00000000
                                                     2        0.8000000       -0.50204959    0.00000000
                                                     2        1.2000000        0.52208372    0.00000000
                                      S - F
                                                     0        0.0000010       -0.01618346    0.00000000
                                                     2        0.1200000       -0.07880581    0.00000000
                                                     2        0.1600000        0.32040539    0.00000000
                                                     2        0.2400000       -0.47500956    0.00000000
                                                     2        0.5000000        0.54013668    0.00000000
                                                     2        1.5000000       -1.40434292    0.00000000
                                                     2        3.0000000        1.46283806    0.00000000
                                      P - F
                                                     0        0.0000010        0.00612970    0.00000000
                                                     2        0.1200000        0.02254406    0.00000000
                                                     2        0.1800000       -0.13874529    0.00000000
                                                     2        0.3000000        0.38299049    0.00000000
                                                     2        0.5000000       -0.57923512    0.00000000
                                                     2        1.0000000        0.63021625    0.00000000
                                                     2        2.0000000       -0.79201034    0.00000000
                                      D - F
                                                     0        0.0000010       -0.00296226    0.00000000
                                                     2        0.1200000       -0.00547344    0.00000000
                                                     2        0.1400000        0.01837884    0.00000000
                                                     2        0.2400000       -0.05565704    0.00000000
                                                     2        0.4000000        0.15376597    0.00000000
                                                     2        0.8000000       -0.32464795    0.00000000
    5          1            1
                                      F and up 
                                                     0        0.0000010       -0.00000699    0.00000000
                                                     2        0.1200000        0.00123686    0.00000000
                                                     2        0.1800000       -0.00752022    0.00000000
                                                     2        0.2600000        0.02503380    0.00000000
                                                     2        0.4000000       -0.08702670    0.00000000
                                                     2        0.6000000        0.30134159    0.00000000
                                                     2        0.8000000       -0.50204959    0.00000000
                                                     2        1.2000000        0.52208372    0.00000000
                                      S - F
                                                     0        0.0000010       -0.01618346    0.00000000
                                                     2        0.1200000       -0.07880581    0.00000000
                                                     2        0.1600000        0.32040539    0.00000000
                                                     2        0.2400000       -0.47500956    0.00000000
                                                     2        0.5000000        0.54013668    0.00000000
                                                     2        1.5000000       -1.40434292    0.00000000
                                                     2        3.0000000        1.46283806    0.00000000
                                      P - F
                                                     0        0.0000010        0.00612970    0.00000000
                                                     2        0.1200000        0.02254406    0.00000000
                                                     2        0.1800000       -0.13874529    0.00000000
                                                     2        0.3000000        0.38299049    0.00000000
                                                     2        0.5000000       -0.57923512    0.00000000
                                                     2        1.0000000        0.63021625    0.00000000
                                                     2        2.0000000       -0.79201034    0.00000000
                                      D - F
                                                     0        0.0000010       -0.00296226    0.00000000
                                                     2        0.1200000       -0.00547344    0.00000000
                                                     2        0.1400000        0.01837884    0.00000000
                                                     2        0.2400000       -0.05565704    0.00000000
                                                     2        0.4000000        0.15376597    0.00000000
                                                     2        0.8000000       -0.32464795    0.00000000
    6          1            1
                                      F and up 
                                                     0        0.0000010       -0.00000699    0.00000000
                                                     2        0.1200000        0.00123686    0.00000000
                                                     2        0.1800000       -0.00752022    0.00000000
                                                     2        0.2600000        0.02503380    0.00000000
                                                     2        0.4000000       -0.08702670    0.00000000
                                                     2        0.6000000        0.30134159    0.00000000
                                                     2        0.8000000       -0.50204959    0.00000000
                                                     2        1.2000000        0.52208372    0.00000000
                                      S - F
                                                     0        0.0000010       -0.01618346    0.00000000
                                                     2        0.1200000       -0.07880581    0.00000000
                                                     2        0.1600000        0.32040539    0.00000000
                                                     2        0.2400000       -0.47500956    0.00000000
                                                     2        0.5000000        0.54013668    0.00000000
                                                     2        1.5000000       -1.40434292    0.00000000
                                                     2        3.0000000        1.46283806    0.00000000
                                      P - F
                                                     0        0.0000010        0.00612970    0.00000000
                                                     2        0.1200000        0.02254406    0.00000000
                                                     2        0.1800000       -0.13874529    0.00000000
                                                     2        0.3000000        0.38299049    0.00000000
                                                     2        0.5000000       -0.57923512    0.00000000
                                                     2        1.0000000        0.63021625    0.00000000
                                                     2        2.0000000       -0.79201034    0.00000000
                                      D - F
                                                     0        0.0000010       -0.00296226    0.00000000
                                                     2        0.1200000       -0.00547344    0.00000000
                                                     2        0.1400000        0.01837884    0.00000000
                                                     2        0.2400000       -0.05565704    0.00000000
                                                     2        0.4000000        0.15376597    0.00000000
                                                     2        0.8000000       -0.32464795    0.00000000
    7          9            9
                                      G and up 
                                                     0        0.0000010        0.00013061    0.00000000
                                                     2        0.1200000        0.06713281    0.00000000
                                                     2        0.1400000       -0.24167382    0.00000000
                                                     2        0.1800000        0.63223557    0.00000000
                                                     2        0.2200000       -0.82578269    0.00000000
                                                     2        0.3000000        0.62544157    0.00000000
                                                     2        0.5000000       -0.74972011    0.00000000
                                                     2        0.8000000        1.07821461    0.00000000
                                                     2        2.5000000       -1.10703579    0.00000000
                                      S - G
                                                     0        0.0000010        0.01584301    0.00000000
                                                     2        0.1200000        0.08016155    0.00000000
                                                     2        0.1800000       -0.34633115    0.00000000
                                                     2        0.3000000        0.65132194    0.00000000
                                                     2        2.5000000       -2.36634383    0.00000000
                                      P - G
                                                     0        0.0000010        0.01590244    0.00000000
                                                     2        0.1200000       -0.11156199    0.00000000
                                                     2        0.1600000        0.22434929    0.00000000
                                                     2        0.3000000       -0.27751209    0.00000000
                                      D - G
                                                     0        0.0000010       -0.03628923    0.00000000
                                                     2        0.1200000        0.04690238    0.00000000
                                                     2        0.2600000       -0.08720270    0.00000000
                                      F - G
                                                     0        0.0000010        0.01127523    0.00000000
                                                     2        0.1400000       -0.04328550    0.00000000
                                                     2        0.2400000        0.03116441    0.00000000
                                                     2        0.4000000        0.20516616    0.00000000
 ======================================================================================================
   105 basis functions,   173 primitive gaussians,   111 cartesian basis functions
    13 alpha electrons       12 beta electrons
       nuclear repulsion energy        72.1248922192 Hartrees.
 NAtoms=    7 NActive=    7 NUniq=    7 SFac= 1.00D+00 NAtFMM=   60 NAOKFM=F Big=F
   1 Symmetry operations used in ECPInt.
 ECPInt:  NShTT=    1128 NPrTT=    4900 LenC2=    1129 LenP2D=    4311.
 LDataN:  DoStor=T MaxTD1= 6 Len=  172
 Initial guess from the checkpoint file:  "BDE49_expt_127_mol2.chk"
 B after Tr=     0.000000   -0.000000   -0.000000
         Rot=    1.000000   -0.000000    0.000000   -0.000000 Ang=  -0.00 deg.
 Initial guess <Sx>= 0.0000 <Sy>= 0.0000 <Sz>= 0.5000 <S**2>= 0.7626 S= 0.5063
 >>>>>>>>>> Convergence criterion not met.
 SCF Done:  E(UHF) =  -177.531394296     A.U. after    2 cycles
            NFock=  1  Conv=0.51D-02     -V/T= 1.9925
 <Sx>= 0.0000 <Sy>= 0.0000 <Sz>= 0.5000 <S**2>= 0.7626 S= 0.5063
 <L.S>=  0.00000000000    
 Annihilation of the first spin contaminant:
 S**2 before annihilation     0.7626,   after     0.7501

 **********************************************************************

            Population analysis using the SCF Density.

 **********************************************************************

 Orbital symmetries:
 Alpha Orbitals:
       Occupied  (A) (A) (A) (A) (A) (A) (A) (A) (A) (A) (A) (A)
                 (A)
       Virtual   (A) (A) (A) (A) (A) (A) (A) (A) (A) (A) (A) (A)
                 (A) (A) (A) (A) (A) (A) (A) (A) (A) (A) (A) (A)
                 (A) (A) (A) (A) (A) (A) (A) (A) (A) (A) (A) (A)
                 (A) (A) (A) (A) (A) (A) (A) (A) (A) (A) (A) (A)
                 (A) (A) (A) (A) (A) (A) (A) (A) (A) (A) (A) (A)
                 (A) (A) (A) (A) (A) (A) (A) (A) (A) (A) (A) (A)
                 (A) (A) (A) (A) (A) (A) (A) (A) (A) (A) (A) (A)
                 (A) (A) (A) (A) (A) (A) (A) (A)
 Beta  Orbitals:
       Occupied  (A) (A) (A) (A) (A) (A) (A) (A) (A) (A) (A) (A)
       Virtual   (A) (A) (A) (A) (A) (A) (A) (A) (A) (A) (A) (A)
                 (A) (A) (A) (A) (A) (A) (A) (A) (A) (A) (A) (A)
                 (A) (A) (A) (A) (A) (A) (A) (A) (A) (A) (A) (A)
                 (A) (A) (A) (A) (A) (A) (A) (A) (A) (A) (A) (A)
                 (A) (A) (A) (A) (A) (A) (A) (A) (A) (A) (A) (A)
                 (A) (A) (A) (A) (A) (A) (A) (A) (A) (A) (A) (A)
                 (A) (A) (A) (A) (A) (A) (A) (A) (A) (A) (A) (A)
                 (A) (A) (A) (A) (A) (A) (A) (A) (A)
 The electronic state is 2-A.
 Alpha  occ. eigenvalues --  -26.10059 -11.32780 -11.25775  -1.63117  -1.05026
 Alpha  occ. eigenvalues --   -0.87724  -0.74230  -0.73913  -0.69883  -0.60648
 Alpha  occ. eigenvalues --   -0.56158  -0.54852  -0.38101
 Alpha virt. eigenvalues --    0.03503   0.04979   0.05221   0.06071   0.10928
 Alpha virt. eigenvalues --    0.12305   0.12842   0.13511   0.16619   0.16957
 Alpha virt. eigenvalues --    0.18336   0.20673   0.24886   0.25651   0.27760
 Alpha virt. eigenvalues --    0.30896   0.32051   0.34583   0.36042   0.37164
 Alpha virt. eigenvalues --    0.38632   0.40985   0.42268   0.43110   0.46024
 Alpha virt. eigenvalues --    0.48456   0.50261   0.51918   0.52466   0.55734
 Alpha virt. eigenvalues --    0.57177   0.59417   0.60541   0.62381   0.62821
 Alpha virt. eigenvalues --    0.64522   0.66401   0.68131   0.69423   0.71047
 Alpha virt. eigenvalues --    0.74562   0.80763   0.82608   0.85567   1.00265
 Alpha virt. eigenvalues --    1.01513   1.02972   1.06699   1.11655   1.20109
 Alpha virt. eigenvalues --    1.32668   1.38636   1.43579   1.46927   1.50447
 Alpha virt. eigenvalues --    1.59825   1.60831   1.62347   1.63714   1.70924
 Alpha virt. eigenvalues --    1.73999   1.75570   1.82652   1.86281   1.89917
 Alpha virt. eigenvalues --    1.92115   1.95032   1.99203   2.03245   2.05684
 Alpha virt. eigenvalues --    2.09013   2.20761   2.21880   2.27603   2.28904
 Alpha virt. eigenvalues --    2.39052   2.41931   2.51212   2.56410   2.63067
 Alpha virt. eigenvalues --    2.65715   2.70177   2.83330   2.88766   3.12035
 Alpha virt. eigenvalues --    3.14118   3.53777   4.99401   5.00908   5.08924
 Alpha virt. eigenvalues --    5.09976   5.11816
  Beta  occ. eigenvalues --  -26.09982 -11.33113 -11.23312  -1.62855  -1.01311
  Beta  occ. eigenvalues --   -0.82974  -0.73909  -0.73192  -0.68982  -0.59028
  Beta  occ. eigenvalues --   -0.54370  -0.53614
  Beta virt. eigenvalues --    0.03588   0.05012   0.05243   0.05784   0.07772
  Beta virt. eigenvalues --    0.11269   0.12368   0.13600   0.16281   0.17203
  Beta virt. eigenvalues --    0.18096   0.19043   0.21066   0.25363   0.26485
  Beta virt. eigenvalues --    0.28061   0.31578   0.32891   0.35420   0.36374
  Beta virt. eigenvalues --    0.38061   0.39086   0.41413   0.42467   0.43584
  Beta virt. eigenvalues --    0.48188   0.49325   0.50390   0.52611   0.53682
  Beta virt. eigenvalues --    0.57224   0.58338   0.59922   0.61329   0.63244
  Beta virt. eigenvalues --    0.64081   0.66276   0.67270   0.69419   0.70525
  Beta virt. eigenvalues --    0.72426   0.75664   0.81565   0.83701   0.86100
  Beta virt. eigenvalues --    1.01823   1.03109   1.06729   1.09216   1.12657
  Beta virt. eigenvalues --    1.20797   1.33690   1.38815   1.43858   1.48149
  Beta virt. eigenvalues --    1.50935   1.60026   1.61759   1.63557   1.66630
  Beta virt. eigenvalues --    1.72090   1.76071   1.78207   1.83201   1.86681
  Beta virt. eigenvalues --    1.90185   1.93187   1.95799   1.99737   2.04554
  Beta virt. eigenvalues --    2.06950   2.09892   2.22468   2.22629   2.28880
  Beta virt. eigenvalues --    2.30086   2.39347   2.42765   2.51526   2.57595
  Beta virt. eigenvalues --    2.63973   2.66229   2.70786   2.83768   2.89080
  Beta virt. eigenvalues --    3.12799   3.14644   3.53920   4.99430   5.00932
  Beta virt. eigenvalues --    5.09056   5.10142   5.12015
          Condensed to atoms (all electrons):
          Atomic-Atomic Spin Densities.
 Mulliken charges and spin densities:
               1          2
     1  C    0.348544   1.342835
     2  C    0.648412  -0.183168
     3  H   -0.189699  -0.109743
     4  H   -0.183283  -0.101061
     5  H   -0.119119   0.014724
     6  H   -0.083599   0.031754
     7  F   -0.421254   0.004658
 Sum of Mulliken charges =  -0.00000   1.00000
 Mulliken charges and spin densities with hydrogens summed into heavy atoms:
               1          2
     1  C   -0.024439   1.132032
     2  C    0.445693  -0.136690
     7  F   -0.421254   0.004658
 Electronic spatial extent (au):  <R**2>=            169.4184
 Charge=             -0.0000 electrons
 Dipole moment (field-independent basis, Debye):
    X=              1.9746    Y=              1.3719    Z=              0.2937  Tot=              2.4223
                          Isotropic Fermi Contact Couplings
        Atom                 a.u.       MegaHertz       Gauss      10(-4) cm-1
     1  C(13)              0.21399     240.56602      85.83994      80.24419
     2  C(13)             -0.06357     -71.46332     -25.49989     -23.83760
     3  H(1)              -0.02583    -115.47725     -41.20515     -38.51906
     4  H(1)              -0.02476    -110.67347     -39.49105     -36.91670
     5  H(1)               0.00995      44.45326      15.86203      14.82801
     6  H(1)               0.02339     104.55900      37.30925      34.87713
     7  F(19)              0.01746      73.45995      26.21234      24.50360
 --------------------------------------------------------
       Center         ----  Spin Dipole Couplings  ----
                      3XX-RR        3YY-RR        3ZZ-RR
 --------------------------------------------------------
     1   Atom       -0.468056     -0.358672      0.826728
     2   Atom        0.015435     -0.007964     -0.007471
     3   Atom        0.041056     -0.039866     -0.001190
     4   Atom       -0.076901      0.072197      0.004704
     5   Atom        0.004850      0.003357     -0.008207
     6   Atom        0.008528      0.000646     -0.009173
     7   Atom        0.088920     -0.033095     -0.055825
 --------------------------------------------------------
                        XY            XZ            YZ
 --------------------------------------------------------
     1   Atom        0.122226      0.322589      0.494404
     2   Atom        0.009723     -0.013977     -0.008093
     3   Atom        0.067699     -0.027971      0.002219
     4   Atom        0.001787      0.017269     -0.032620
     5   Atom       -0.013915      0.006606     -0.000954
     6   Atom       -0.009298     -0.002803      0.004973
     7   Atom        0.058564      0.015585      0.012089
 --------------------------------------------------------


 ---------------------------------------------------------------------------------
              Anisotropic Spin Dipole Couplings in Principal Axis System
 ---------------------------------------------------------------------------------

       Atom             a.u.   MegaHertz   Gauss  10(-4) cm-1        Axes

              Baa    -0.5473   -73.444   -26.207   -24.498  0.8676 -0.4966 -0.0250
     1 C(13)  Bbb    -0.5353   -71.829   -25.630   -23.960  0.4474  0.8015 -0.3969
              Bcc     1.0826   145.273    51.837    48.458  0.2171  0.3332  0.9175
 
              Baa    -0.0163    -2.191    -0.782    -0.731  0.1792  0.5687  0.8028
     2 C(13)  Bbb    -0.0101    -1.358    -0.485    -0.453 -0.5134  0.7501 -0.4168
              Bcc     0.0264     3.549     1.266     1.184  0.8393  0.3374 -0.4264
 
              Baa    -0.0815   -43.479   -15.514   -14.503 -0.5084  0.8375 -0.2002
     3 H(1)   Bbb    -0.0043    -2.289    -0.817    -0.763  0.1287  0.3038  0.9440
              Bcc     0.0858    45.768    16.331    15.267  0.8515  0.4541 -0.2623
 
              Baa    -0.0809   -43.156   -15.399   -14.395  0.9741 -0.0580 -0.2186
     4 H(1)   Bbb    -0.0046    -2.480    -0.885    -0.827  0.2242  0.3764  0.8989
              Bcc     0.0855    45.635    16.284    15.222 -0.0302  0.9247 -0.3796
 
              Baa    -0.0134    -7.128    -2.543    -2.378 -0.5884 -0.4515  0.6708
     5 H(1)   Bbb    -0.0058    -3.087    -1.102    -1.030  0.3494  0.6062  0.7145
              Bcc     0.0191    10.215     3.645     3.407  0.7292 -0.6547  0.1989
 
              Baa    -0.0113    -6.044    -2.157    -2.016 -0.0753 -0.4318  0.8988
     6 H(1)   Bbb    -0.0044    -2.352    -0.839    -0.785  0.5918  0.7061  0.3888
              Bcc     0.0157     8.396     2.996     2.801  0.8026 -0.5612 -0.2024
 
              Baa    -0.0627   -31.490   -11.236   -10.504  0.1731 -0.6460  0.7434
     7 F(19)  Bbb    -0.0519   -26.062    -9.300    -8.693 -0.3497  0.6653  0.6596
              Bcc     0.1146    57.552    20.536    19.197  0.9207  0.3742  0.1107
 

 ---------------------------------------------------------------------------------


 Test job not archived.
 1\1\GINC-SE227\SP\UHF\Aug-CC-pVDZ\C2H4F1(2)\OHZDE\08-Apr-2025\0\\#t hf
  aug-cc-pvdz iop(5/13=1,5/36=2,99/5=2) pseudo=read geom=check guess=(r
 ead,tcheck) scf=(maxcycle=1)\\title\\0,2\C,0,1.222759,-0.250935,-0.029
 215\C,0,-0.032762,0.520938,0.064175\H,0,2.134691,0.218215,-0.374546\H,
 0,1.262983,-1.251379,0.381317\H,0,-0.09729,1.285012,-0.718678\H,0,-0.1
 33146,1.026896,1.037507\F,0,-1.145247,-0.322084,-0.059484\\Version=ES6
 4L-G16RevC.01\State=2-A\HF=-177.5313943\S2=0.762628\S2-1=0.\S2A=0.7501
 03\RMSD=5.052e-03\Dipole=0.776864,0.5397548,0.1155581\Quadrupole=-1.05
 54483,0.9366155,0.1188328,-0.6439427,-0.277703,-0.4652998\PG=C01 [X(C2
 H4F1)]\\@


  DISAPPOINTMENT IS THE NURSE OF WISDOM.               
                              SIR BOYLE ROCHE                 
 Job cpu time:       0 days  0 hours  0 minutes 12.5 seconds.
 Elapsed time:       0 days  0 hours  0 minutes  1.5 seconds.
 File lengths (MBytes):  RWF=      6 Int=      0 D2E=      0 Chk=      3 Scr=      1
 Normal termination of Gaussian 16 at Tue Apr  8 22:38:24 2025.
