 Entering Gaussian System, Link 0=g16
 Input=BDE49_nonexpt_2514_mol1.gjf
 Output=BDE49_nonexpt_2514_mol1.log
 Initial command:
 /arc/software/Gaussian/g16.c01/l1.exe "/tmp/slurm/4852399/Gau-857260.inp" -scrdir="/tmp/slurm/4852399/"
 Entering Link 1 = /arc/software/Gaussian/g16.c01/l1.exe PID=    857261.
  
 Copyright (c) 1988-2019, Gaussian, Inc.  All Rights Reserved.
  
 This is part of the Gaussian(R) 16 program.  It is based on
 the Gaussian(R) 09 system (copyright 2009, Gaussian, Inc.),
 the Gaussian(R) 03 system (copyright 2003, Gaussian, Inc.),
 the Gaussian(R) 98 system (copyright 1998, Gaussian, Inc.),
 the Gaussian(R) 94 system (copyright 1995, Gaussian, Inc.),
 the Gaussian 92(TM) system (copyright 1992, Gaussian, Inc.),
 the Gaussian 90(TM) system (copyright 1990, Gaussian, Inc.),
 the Gaussian 88(TM) system (copyright 1988, Gaussian, Inc.),
 the Gaussian 86(TM) system (copyright 1986, Carnegie Mellon
 University), and the Gaussian 82(TM) system (copyright 1983,
 Carnegie Mellon University). Gaussian is a federally registered
 trademark of Gaussian, Inc.
  
 This software contains proprietary and confidential information,
 including trade secrets, belonging to Gaussian, Inc.
  
 This software is provided under written license and may be
 used, copied, transmitted, or stored only in accord with that
 written license.
  
 The following legend is applicable only to US Government
 contracts under FAR:
  
                    RESTRICTED RIGHTS LEGEND
  
 Use, reproduction and disclosure by the US Government is
 subject to restrictions as set forth in subparagraphs (a)
 and (c) of the Commercial Computer Software - Restricted
 Rights clause in FAR 52.227-19.
  
 Gaussian, Inc.
 340 Quinnipiac St., Bldg. 40, Wallingford CT 06492
  
  
 ---------------------------------------------------------------
 Warning -- This program may not be used in any manner that
 competes with the business of Gaussian, Inc. or will provide
 assistance to any competitor of Gaussian, Inc.  The licensee
 of this program is prohibited from giving any competitor of
 Gaussian, Inc. access to this program.  By using this program,
 the user acknowledges that Gaussian, Inc. is engaged in the
 business of creating and licensing software in the field of
 computational chemistry and represents and warrants to the
 licensee that it is not a competitor of Gaussian, Inc. and that
 it will not use this program in any manner prohibited above.
 ---------------------------------------------------------------
  

 Cite this work as:
 Gaussian 16, Revision C.01,
 M. J. Frisch, G. W. Trucks, H. B. Schlegel, G. E. Scuseria, 
 M. A. Robb, J. R. Cheeseman, G. Scalmani, V. Barone, 
 G. A. Petersson, H. Nakatsuji, X. Li, M. Caricato, A. V. Marenich, 
 J. Bloino, B. G. Janesko, R. Gomperts, B. Mennucci, H. P. Hratchian, 
 J. V. Ortiz, A. F. Izmaylov, J. L. Sonnenberg, D. Williams-Young, 
 F. Ding, F. Lipparini, F. Egidi, J. Goings, B. Peng, A. Petrone, 
 T. Henderson, D. Ranasinghe, V. G. Zakrzewski, J. Gao, N. Rega, 
 G. Zheng, W. Liang, M. Hada, M. Ehara, K. Toyota, R. Fukuda, 
 J. Hasegawa, M. Ishida, T. Nakajima, Y. Honda, O. Kitao, H. Nakai, 
 T. Vreven, K. Throssell, J. A. Montgomery, Jr., J. E. Peralta, 
 F. Ogliaro, M. J. Bearpark, J. J. Heyd, E. N. Brothers, K. N. Kudin, 
 V. N. Staroverov, T. A. Keith, R. Kobayashi, J. Normand, 
 K. Raghavachari, A. P. Rendell, J. C. Burant, S. S. Iyengar, 
 J. Tomasi, M. Cossi, J. M. Millam, M. Klene, C. Adamo, R. Cammi, 
 J. W. Ochterski, R. L. Martin, K. Morokuma, O. Farkas, 
 J. B. Foresman, and D. J. Fox, Gaussian, Inc., Wallingford CT, 2019.
 
 ******************************************
 Gaussian 16:  ES64L-G16RevC.01  3-Jul-2019
                 9-Apr-2025 
 ******************************************
 %nprocs=16
 Will use up to   16 processors via shared memory.
 %mem=30GB
 %chk=BDE49_nonexpt_2514_mol1.chk
 ----------------------------------------------------------------------
 #t hf aug-cc-pvdz symm=none int=(grid=ultrafine) guess=(read,tcheck) s
 table=(opt,rrhf)
 ----------------------------------------------------------------------
 -----
 title
 -----
 Symbolic Z-matrix:
 Charge =  0 Multiplicity = 1
 S                     1.13673   0.20767  0. 
 C                     1.92346  -1.42135   0. 
 O                     1.50258   0.84549   1.26719 
 O                     1.50258   0.84548  -1.2672 
 H                     1.6391   -1.96193   0.90258 
 H                     2.99729  -1.22511   0. 
 H                     1.6391   -1.96194  -0.90257 
 Si                   -1.1085   -0.05948   0. 
 C                    -1.7032    1.71142   0.00001 
 H                    -1.34175   2.2409   -0.88443 
 H                    -1.34175   2.2409    0.88444 
 C                    -1.56685  -0.9839    1.56322 
 H                    -2.65584  -1.01897   1.67187 
 H                    -1.15424  -0.48132   2.44118 
 H                    -1.20194  -2.01438   1.55359 
 C                    -1.56685  -0.9839   -1.56322 
 H                    -1.15424  -0.48131  -2.44118 
 H                    -2.65585  -1.01897  -1.67187 
 H                    -1.20195  -2.01437  -1.55359 
 H                    -2.79727   1.74523   0.00001 
 
                    Distance matrix (angstroms):
                    1          2          3          4          5
     1  S    0.000000
     2  C    1.809046   0.000000
     3  O    1.465069   2.630865   0.000000
     4  O    1.465069   2.630865   2.534386   0.000000
     5  H    2.402953   1.089834   2.834281   3.550791   0.000000
     6  H    2.348301   1.091607   2.850840   2.850841   1.789473
     7  H    2.402953   1.089833   3.550791   2.834282   1.805157
     8  Si   2.261070   3.323777   3.040142   3.040142   3.461688
     9  C    3.213484   4.792383   3.554238   3.554245   5.047684
    10  H    3.325528   4.985574   3.829733   3.191228   5.453685
    11  H    3.325529   4.985571   3.191221   3.829743   5.152628
    12  C    3.342579   3.849320   3.585479   4.558427   3.416295
    13  H    4.322435   4.891534   4.575199   5.422800   4.464026
    14  H    3.417986   4.039217   3.193328   4.750909   3.515999
    15  H    3.580579   3.540265   3.946555   4.842525   2.915150
    16  C    3.342579   3.849326   4.558426   3.585472   4.161113
    17  H    3.417984   4.039225   4.750905   3.193319   4.601716
    18  H    4.322435   4.891540   5.422800   4.575194   5.095448
    19  H    3.580578   3.540272   4.842527   3.946545   3.755944
    20  H    4.223795   5.684411   4.572085   4.572090   5.851414
                    6          7          8          9         10
     6  H    0.000000
     7  H    1.789473   0.000000
     8  Si   4.268042   3.461689   0.000000
     9  C    5.542362   5.047688   1.868088   0.000000
    10  H    5.623409   5.152636   2.475555   1.092342   0.000000
    11  H    5.623407   5.453686   2.475555   1.092342   1.768861
    12  C    4.830437   4.161104   1.873045   3.118814   4.054751
    13  H    5.898773   5.095440   2.471852   3.340316   4.346063
    14  H    4.873166   4.601705   2.477784   3.326981   4.301779
    15  H    4.546438   3.755932   2.498800   4.067735   4.906209
    16  C    4.830442   3.416303   1.873045   3.118815   3.303145
    17  H    4.873173   3.516013   2.477782   3.326981   3.141509
    18  H    5.898778   4.464034   2.471852   3.340317   3.601896
    19  H    4.546443   2.915155   2.498800   4.067735   4.309839
    20  H    6.511511   5.851418   2.471622   1.094588   1.773815
                   11         12         13         14         15
    11  H    0.000000
    12  C    3.303144   0.000000
    13  H    3.601895   1.094967   0.000000
    14  H    3.141508   1.092545   1.770800   0.000000
    15  H    4.309838   1.093219   1.765971   1.772112   0.000000
    16  C    4.054752   3.126445   3.413647   4.056859   3.302964
    17  H    4.301779   4.056858   4.411475   4.882366   4.279111
    18  H    4.346064   3.413647   3.343744   4.411476   3.675362
    19  H    4.906209   3.302963   3.675361   4.279111   3.107184
    20  H    1.773815   3.377242   3.233569   3.690042   4.369596
                   16         17         18         19         20
    16  C    0.000000
    17  H    1.092544   0.000000
    18  H    1.094968   1.770801   0.000000
    19  H    1.093219   1.772113   1.765972   0.000000
    20  H    3.377242   3.690041   3.233569   4.369596   0.000000
 Symmetry turned off by external request.
 Rotational constants (GHZ):           1.8360790           1.0810748           1.0724574
   300 basis functions,   552 primitive gaussians,   316 cartesian basis functions
    41 alpha electrons       41 beta electrons
       nuclear repulsion energy       612.6197349991 Hartrees.
 NAtoms=   20 NActive=   20 NUniq=   20 SFac= 1.00D+00 NAtFMM=   60 NAOKFM=F Big=F
 ExpMin= 2.50D-02 ExpMax= 1.11D+05 ExpMxC= 2.69D+03 IAcc=3 IRadAn=         5 AccDes= 0.00D+00
 Harris functional with IExCor=  205 and IRadAn=       5 diagonalized for initial guess.
 HarFok:  IExCor=  205 AccDes= 0.00D+00 IRadAn=         5 IDoV= 1 UseB2=F ITyADJ=14
 ICtDFT=  3500011 ScaDFX=  1.000000  1.000000  1.000000  1.000000
 FoFCou: FMM=F IPFlag=           0 FMFlag=      100000 FMFlg1=           0
         NFxFlg=           0 DoJE=T BraDBF=F KetDBF=T FulRan=T
         wScrn=  0.000000 ICntrl=       500 IOpCl=  0 I1Cent=   200000004 NGrid=           0
         NMat0=    1 NMatS0=      1 NMatT0=    0 NMatD0=    1 NMtDS0=    0 NMtDT0=    0
 Symmetry not used in FoFCou.
 SCF Done:  E(RHF) =  -994.646901447     A.U. after   13 cycles
            NFock= 13  Conv=0.70D-08     -V/T= 2.0006

 **********************************************************************

            Population analysis using the SCF Density.

 **********************************************************************

 Alpha  occ. eigenvalues --  -92.16084 -68.81425 -20.53510 -20.53508 -11.27391
 Alpha  occ. eigenvalues --  -11.23539 -11.23539 -11.22673  -9.13725  -6.82228
 Alpha  occ. eigenvalues --   -6.82088  -6.82000  -6.16036  -4.26703  -4.26586
 Alpha  occ. eigenvalues --   -4.26583  -1.42621  -1.31666  -1.02955  -0.99573
 Alpha  occ. eigenvalues --   -0.95412  -0.94838  -0.84082  -0.70168  -0.64503
 Alpha  occ. eigenvalues --   -0.63706  -0.62458  -0.59369  -0.59043  -0.58667
 Alpha  occ. eigenvalues --   -0.58238  -0.56952  -0.56734  -0.55758  -0.55408
 Alpha  occ. eigenvalues --   -0.48236  -0.46299  -0.46280  -0.46048  -0.44716
 Alpha  occ. eigenvalues --   -0.38228
 Alpha virt. eigenvalues --    0.02255   0.03597   0.04279   0.04749   0.05920
 Alpha virt. eigenvalues --    0.05924   0.06312   0.06993   0.07192   0.08719
 Alpha virt. eigenvalues --    0.08777   0.09154   0.10869   0.10978   0.11505
 Alpha virt. eigenvalues --    0.12671   0.13164   0.13570   0.14075   0.14779
 Alpha virt. eigenvalues --    0.16014   0.16614   0.16629   0.16956   0.17492
 Alpha virt. eigenvalues --    0.17750   0.18737   0.18965   0.19241   0.19251
 Alpha virt. eigenvalues --    0.19571   0.20539   0.20663   0.21001   0.21948
 Alpha virt. eigenvalues --    0.23049   0.23566   0.24428   0.24768   0.25343
 Alpha virt. eigenvalues --    0.26329   0.26360   0.26912   0.27995   0.28163
 Alpha virt. eigenvalues --    0.29534   0.30743   0.32089   0.32950   0.33517
 Alpha virt. eigenvalues --    0.34399   0.35038   0.35418   0.35868   0.37749
 Alpha virt. eigenvalues --    0.38083   0.39167   0.40070   0.40806   0.42320
 Alpha virt. eigenvalues --    0.43351   0.44089   0.44399   0.44460   0.45088
 Alpha virt. eigenvalues --    0.45502   0.45640   0.46291   0.46711   0.46818
 Alpha virt. eigenvalues --    0.47344   0.47978   0.48649   0.48748   0.49875
 Alpha virt. eigenvalues --    0.50467   0.51292   0.51500   0.53237   0.53562
 Alpha virt. eigenvalues --    0.54280   0.54531   0.56048   0.56835   0.56971
 Alpha virt. eigenvalues --    0.57239   0.57733   0.58815   0.60135   0.60169
 Alpha virt. eigenvalues --    0.60237   0.61401   0.61966   0.63037   0.63186
 Alpha virt. eigenvalues --    0.63593   0.64491   0.65963   0.66796   0.67491
 Alpha virt. eigenvalues --    0.68120   0.68856   0.69404   0.70286   0.70977
 Alpha virt. eigenvalues --    0.71223   0.72519   0.72716   0.73205   0.74496
 Alpha virt. eigenvalues --    0.74617   0.76585   0.77061   0.77833   0.78154
 Alpha virt. eigenvalues --    0.79725   0.80763   0.81858   0.82841   0.83727
 Alpha virt. eigenvalues --    0.84805   0.85179   0.86480   0.87867   0.88270
 Alpha virt. eigenvalues --    0.88819   0.89375   0.93378   0.95819   0.96819
 Alpha virt. eigenvalues --    0.97979   0.99604   1.02230   1.03643   1.05259
 Alpha virt. eigenvalues --    1.06458   1.08136   1.09445   1.10751   1.11510
 Alpha virt. eigenvalues --    1.12518   1.14882   1.16829   1.17454   1.18630
 Alpha virt. eigenvalues --    1.19725   1.20143   1.20997   1.21336   1.23088
 Alpha virt. eigenvalues --    1.23363   1.26960   1.27478   1.28357   1.29385
 Alpha virt. eigenvalues --    1.33870   1.34049   1.35231   1.36456   1.37824
 Alpha virt. eigenvalues --    1.40258   1.40701   1.42556   1.44028   1.46731
 Alpha virt. eigenvalues --    1.48154   1.48379   1.49458   1.53622   1.54179
 Alpha virt. eigenvalues --    1.55581   1.56275   1.59894   1.62554   1.63193
 Alpha virt. eigenvalues --    1.63427   1.64840   1.69462   1.74875   1.75465
 Alpha virt. eigenvalues --    1.77370   1.80805   1.82865   1.83654   1.84456
 Alpha virt. eigenvalues --    1.85865   1.85998   1.89592   1.90926   1.91477
 Alpha virt. eigenvalues --    1.92723   1.93280   1.93938   1.96050   1.96193
 Alpha virt. eigenvalues --    2.00562   2.02964   2.04140   2.06505   2.08427
 Alpha virt. eigenvalues --    2.10336   2.10880   2.11035   2.14173   2.18004
 Alpha virt. eigenvalues --    2.18897   2.19739   2.21143   2.22369   2.22509
 Alpha virt. eigenvalues --    2.23564   2.23891   2.25779   2.27312   2.27961
 Alpha virt. eigenvalues --    2.28105   2.28622   2.30192   2.31679   2.33165
 Alpha virt. eigenvalues --    2.34984   2.35375   2.41495   2.44165   2.50606
 Alpha virt. eigenvalues --    2.50806   2.55093   2.57127   2.57490   2.59988
 Alpha virt. eigenvalues --    2.60271   2.61427   2.63794   2.64787   2.65320
 Alpha virt. eigenvalues --    2.85613   2.86864   2.87089   2.87546   2.98409
 Alpha virt. eigenvalues --    3.00222   3.00325   3.01525   3.05010   3.05434
 Alpha virt. eigenvalues --    3.06623   3.07482   3.21778   3.31187   3.77549
 Alpha virt. eigenvalues --    3.78045   3.78230   3.81470   3.82038   3.83319
 Alpha virt. eigenvalues --    3.83648   3.84116   3.88584   4.02614
          Condensed to atoms (all electrons):
 Mulliken charges:
               1
     1  S    2.054410
     2  C    0.089897
     3  O   -1.233728
     4  O   -1.233729
     5  H   -0.066543
     6  H   -0.016141
     7  H   -0.066544
     8  Si   1.852471
     9  C    0.401745
    10  H   -0.278188
    11  H   -0.278187
    12  C    0.396773
    13  H   -0.306163
    14  H   -0.229963
    15  H   -0.318187
    16  C    0.396771
    17  H   -0.229963
    18  H   -0.306160
    19  H   -0.318187
    20  H   -0.310384
 Sum of Mulliken charges =  -0.00000
 Mulliken charges with hydrogens summed into heavy atoms:
               1
     1  S    2.054410
     2  C   -0.059330
     3  O   -1.233728
     4  O   -1.233729
     8  Si   1.852471
     9  C   -0.465014
    12  C   -0.457540
    16  C   -0.457539
 Electronic spatial extent (au):  <R**2>=           1418.0296
 Charge=             -0.0000 electrons
 Dipole moment (field-independent basis, Debye):
    X=             -4.0926    Y=             -4.3446    Z=              0.0000  Tot=              5.9686
 NROrb=    300 NOA=    41 NOB=    41 NVA=   259 NVB=   259

 **** Warning!!: The largest alpha MO coefficient is  0.61717835D+02

    12 initial guesses have been made.
 Iteration     1 Dimension    12 NMult     0 NNew     12
 Iteration     2 Dimension    24 NMult    12 NNew     12
 New state      1 was old state      2
 Iteration     3 Dimension    27 NMult    24 NNew      3
 Iteration     4 Dimension    30 NMult    27 NNew      3
 Iteration     5 Dimension    33 NMult    30 NNew      3
 Iteration     6 Dimension    36 NMult    33 NNew      3
 Iteration     7 Dimension    39 NMult    36 NNew      3
 Iteration     8 Dimension    42 NMult    39 NNew      3
 ***********************************************************************
 Stability analysis using <AA,BB:AA,BB> singles matrix:
 ***********************************************************************
 Ground to excited state transition densities written to RWF  633

 Eigenvectors of the stability matrix:
 
 Excited state symmetry could not be determined.
 Eigenvector   1:      Singlet-?Sym  Eigenvalue= 0.2785910  <S**2>=0.000
      41 -> 43         0.11509
      41 -> 47         0.11393
      41 -> 55        -0.21230
      41 -> 59        -0.23369
      41 -> 61        -0.21632
      41 -> 62         0.12099
      41 -> 63         0.21852
      41 -> 65        -0.12763
      41 -> 66        -0.24068
      41 -> 70        -0.20740
      41 -> 72         0.12173
      41 -> 78         0.11331
 The wavefunction is stable under the perturbations considered.
 The wavefunction is already stable.

 **********************************************************************

            Population analysis using the SCF Density.

 **********************************************************************

 Alpha  occ. eigenvalues --  -92.16084 -68.81425 -20.53510 -20.53508 -11.27391
 Alpha  occ. eigenvalues --  -11.23539 -11.23539 -11.22673  -9.13725  -6.82228
 Alpha  occ. eigenvalues --   -6.82088  -6.82000  -6.16036  -4.26703  -4.26586
 Alpha  occ. eigenvalues --   -4.26583  -1.42621  -1.31666  -1.02955  -0.99573
 Alpha  occ. eigenvalues --   -0.95412  -0.94838  -0.84082  -0.70168  -0.64503
 Alpha  occ. eigenvalues --   -0.63706  -0.62458  -0.59369  -0.59043  -0.58667
 Alpha  occ. eigenvalues --   -0.58238  -0.56952  -0.56734  -0.55758  -0.55408
 Alpha  occ. eigenvalues --   -0.48236  -0.46299  -0.46280  -0.46048  -0.44716
 Alpha  occ. eigenvalues --   -0.38228
 Alpha virt. eigenvalues --    0.02255   0.03597   0.04279   0.04749   0.05920
 Alpha virt. eigenvalues --    0.05924   0.06312   0.06993   0.07192   0.08719
 Alpha virt. eigenvalues --    0.08777   0.09154   0.10869   0.10978   0.11505
 Alpha virt. eigenvalues --    0.12671   0.13164   0.13570   0.14075   0.14779
 Alpha virt. eigenvalues --    0.16014   0.16614   0.16629   0.16956   0.17492
 Alpha virt. eigenvalues --    0.17750   0.18737   0.18965   0.19241   0.19251
 Alpha virt. eigenvalues --    0.19571   0.20539   0.20663   0.21001   0.21948
 Alpha virt. eigenvalues --    0.23049   0.23566   0.24428   0.24768   0.25343
 Alpha virt. eigenvalues --    0.26329   0.26360   0.26912   0.27995   0.28163
 Alpha virt. eigenvalues --    0.29534   0.30743   0.32089   0.32950   0.33517
 Alpha virt. eigenvalues --    0.34399   0.35038   0.35418   0.35868   0.37749
 Alpha virt. eigenvalues --    0.38083   0.39167   0.40070   0.40806   0.42320
 Alpha virt. eigenvalues --    0.43351   0.44089   0.44399   0.44460   0.45088
 Alpha virt. eigenvalues --    0.45502   0.45640   0.46291   0.46711   0.46818
 Alpha virt. eigenvalues --    0.47344   0.47978   0.48649   0.48748   0.49875
 Alpha virt. eigenvalues --    0.50467   0.51292   0.51500   0.53237   0.53562
 Alpha virt. eigenvalues --    0.54280   0.54531   0.56048   0.56835   0.56971
 Alpha virt. eigenvalues --    0.57239   0.57733   0.58815   0.60135   0.60169
 Alpha virt. eigenvalues --    0.60237   0.61401   0.61966   0.63037   0.63186
 Alpha virt. eigenvalues --    0.63593   0.64491   0.65963   0.66796   0.67491
 Alpha virt. eigenvalues --    0.68120   0.68856   0.69404   0.70286   0.70977
 Alpha virt. eigenvalues --    0.71223   0.72519   0.72716   0.73205   0.74496
 Alpha virt. eigenvalues --    0.74617   0.76585   0.77061   0.77833   0.78154
 Alpha virt. eigenvalues --    0.79725   0.80763   0.81858   0.82841   0.83727
 Alpha virt. eigenvalues --    0.84805   0.85179   0.86480   0.87867   0.88270
 Alpha virt. eigenvalues --    0.88819   0.89375   0.93378   0.95819   0.96819
 Alpha virt. eigenvalues --    0.97979   0.99604   1.02230   1.03643   1.05259
 Alpha virt. eigenvalues --    1.06458   1.08136   1.09445   1.10751   1.11510
 Alpha virt. eigenvalues --    1.12518   1.14882   1.16829   1.17454   1.18630
 Alpha virt. eigenvalues --    1.19725   1.20143   1.20997   1.21336   1.23088
 Alpha virt. eigenvalues --    1.23363   1.26960   1.27478   1.28357   1.29385
 Alpha virt. eigenvalues --    1.33870   1.34049   1.35231   1.36456   1.37824
 Alpha virt. eigenvalues --    1.40258   1.40701   1.42556   1.44028   1.46731
 Alpha virt. eigenvalues --    1.48154   1.48379   1.49458   1.53622   1.54179
 Alpha virt. eigenvalues --    1.55581   1.56275   1.59894   1.62554   1.63193
 Alpha virt. eigenvalues --    1.63427   1.64840   1.69462   1.74875   1.75465
 Alpha virt. eigenvalues --    1.77370   1.80805   1.82865   1.83654   1.84456
 Alpha virt. eigenvalues --    1.85865   1.85998   1.89592   1.90926   1.91477
 Alpha virt. eigenvalues --    1.92723   1.93280   1.93938   1.96050   1.96193
 Alpha virt. eigenvalues --    2.00562   2.02964   2.04140   2.06505   2.08427
 Alpha virt. eigenvalues --    2.10336   2.10880   2.11035   2.14173   2.18004
 Alpha virt. eigenvalues --    2.18897   2.19739   2.21143   2.22369   2.22509
 Alpha virt. eigenvalues --    2.23564   2.23891   2.25779   2.27312   2.27961
 Alpha virt. eigenvalues --    2.28105   2.28622   2.30192   2.31679   2.33165
 Alpha virt. eigenvalues --    2.34984   2.35375   2.41495   2.44165   2.50606
 Alpha virt. eigenvalues --    2.50806   2.55093   2.57127   2.57490   2.59988
 Alpha virt. eigenvalues --    2.60271   2.61427   2.63794   2.64787   2.65320
 Alpha virt. eigenvalues --    2.85613   2.86864   2.87089   2.87546   2.98409
 Alpha virt. eigenvalues --    3.00222   3.00325   3.01525   3.05010   3.05434
 Alpha virt. eigenvalues --    3.06623   3.07482   3.21778   3.31187   3.77549
 Alpha virt. eigenvalues --    3.78045   3.78230   3.81470   3.82038   3.83319
 Alpha virt. eigenvalues --    3.83648   3.84116   3.88584   4.02614
          Condensed to atoms (all electrons):
 Mulliken charges:
               1
     1  S    2.054410
     2  C    0.089897
     3  O   -1.233728
     4  O   -1.233729
     5  H   -0.066543
     6  H   -0.016141
     7  H   -0.066544
     8  Si   1.852471
     9  C    0.401745
    10  H   -0.278188
    11  H   -0.278187
    12  C    0.396773
    13  H   -0.306163
    14  H   -0.229963
    15  H   -0.318187
    16  C    0.396771
    17  H   -0.229963
    18  H   -0.306160
    19  H   -0.318187
    20  H   -0.310384
 Sum of Mulliken charges =  -0.00000
 Mulliken charges with hydrogens summed into heavy atoms:
               1
     1  S    2.054410
     2  C   -0.059330
     3  O   -1.233728
     4  O   -1.233729
     8  Si   1.852471
     9  C   -0.465014
    12  C   -0.457540
    16  C   -0.457539
 Electronic spatial extent (au):  <R**2>=           1418.0296
 Charge=             -0.0000 electrons
 Dipole moment (field-independent basis, Debye):
    X=             -4.0926    Y=             -4.3446    Z=              0.0000  Tot=              5.9686
 Unable to Open any file for archive entry.
 1\1\GINC-SE058\Stability\RHF\Aug-CC-pVDZ\C4H12O2S1Si1\OHZDE\09-Apr-202
 5\0\\#t hf aug-cc-pvdz symm=none int=(grid=ultrafine) guess=(read,tche
 ck) stable=(opt,rrhf)\\title\\0,1\S,0,1.136732,0.207667,-0.000002\C,0,
 1.923462,-1.421352,0.000003\O,0,1.502579,0.845485,1.267188\O,0,1.50257
 6,0.845476,-1.267198\H,0,1.639101,-1.961929,0.902584\H,0,2.997285,-1.2
 25114,0.000002\H,0,1.6391,-1.961936,-0.902573\Si,0,-1.108501,-0.05948,
 0.000001\C,0,-1.703199,1.71142,0.000005\H,0,-1.341753,2.240902,-0.8844
 25\H,0,-1.341751,2.240899,0.884436\C,0,-1.566845,-0.983902,1.563223\H,
 0,-2.655844,-1.01897,1.671874\H,0,-1.154238,-0.481315,2.441184\H,0,-1.
 201944,-2.014379,1.553591\C,0,-1.566849,-0.983898,-1.563222\H,0,-1.154
 244,-0.481308,-2.441182\H,0,-2.655849,-1.018966,-1.67187\H,0,-1.201948
 ,-2.014375,-1.553593\H,0,-2.797265,1.745234,0.000006\\Version=ES64L-G1
 6RevC.01\HF=-994.6469014\RMSD=6.951e-09\Dipole=-1.6101378,-1.7093023,0
 .0000088\Quadrupole=1.8879846,1.4953932,-3.3833779,-6.2028701,0.000020
 5,-0.0000084\PG=Unknown\\@
 The archive entry for this job was punched.


 IT CANNOT BE MY BEAUTY, FOR I HAVE NONE; AND IT CANNOT BE MY WIT,
 FOR HE HAS NOT ENOUGH TO KNOW THAT I HAVE ANY.
 -- CATHARINE SEDLEY, PUZZLED ABOUT WHY SHE WAS MISTRESS TO JAMES II
 Job cpu time:       0 days  0 hours 20 minutes 36.3 seconds.
 Elapsed time:       0 days  0 hours  1 minutes 27.2 seconds.
 File lengths (MBytes):  RWF=    442 Int=      0 D2E=      0 Chk=     13 Scr=      1
 Normal termination of Gaussian 16 at Wed Apr  9 00:15:57 2025.
 Initial command:
 /arc/software/Gaussian/g16.c01/l1.exe "/tmp/slurm/4852399/Gau-857260.inp" -scrdir="/tmp/slurm/4852399/"
 Entering Link 1 = /arc/software/Gaussian/g16.c01/l1.exe PID=    857577.
  
 Copyright (c) 1988-2019, Gaussian, Inc.  All Rights Reserved.
  
 This is part of the Gaussian(R) 16 program.  It is based on
 the Gaussian(R) 09 system (copyright 2009, Gaussian, Inc.),
 the Gaussian(R) 03 system (copyright 2003, Gaussian, Inc.),
 the Gaussian(R) 98 system (copyright 1998, Gaussian, Inc.),
 the Gaussian(R) 94 system (copyright 1995, Gaussian, Inc.),
 the Gaussian 92(TM) system (copyright 1992, Gaussian, Inc.),
 the Gaussian 90(TM) system (copyright 1990, Gaussian, Inc.),
 the Gaussian 88(TM) system (copyright 1988, Gaussian, Inc.),
 the Gaussian 86(TM) system (copyright 1986, Carnegie Mellon
 University), and the Gaussian 82(TM) system (copyright 1983,
 Carnegie Mellon University). Gaussian is a federally registered
 trademark of Gaussian, Inc.
  
 This software contains proprietary and confidential information,
 including trade secrets, belonging to Gaussian, Inc.
  
 This software is provided under written license and may be
 used, copied, transmitted, or stored only in accord with that
 written license.
  
 The following legend is applicable only to US Government
 contracts under FAR:
  
                    RESTRICTED RIGHTS LEGEND
  
 Use, reproduction and disclosure by the US Government is
 subject to restrictions as set forth in subparagraphs (a)
 and (c) of the Commercial Computer Software - Restricted
 Rights clause in FAR 52.227-19.
  
 Gaussian, Inc.
 340 Quinnipiac St., Bldg. 40, Wallingford CT 06492
  
  
 ---------------------------------------------------------------
 Warning -- This program may not be used in any manner that
 competes with the business of Gaussian, Inc. or will provide
 assistance to any competitor of Gaussian, Inc.  The licensee
 of this program is prohibited from giving any competitor of
 Gaussian, Inc. access to this program.  By using this program,
 the user acknowledges that Gaussian, Inc. is engaged in the
 business of creating and licensing software in the field of
 computational chemistry and represents and warrants to the
 licensee that it is not a competitor of Gaussian, Inc. and that
 it will not use this program in any manner prohibited above.
 ---------------------------------------------------------------
  

 Cite this work as:
 Gaussian 16, Revision C.01,
 M. J. Frisch, G. W. Trucks, H. B. Schlegel, G. E. Scuseria, 
 M. A. Robb, J. R. Cheeseman, G. Scalmani, V. Barone, 
 G. A. Petersson, H. Nakatsuji, X. Li, M. Caricato, A. V. Marenich, 
 J. Bloino, B. G. Janesko, R. Gomperts, B. Mennucci, H. P. Hratchian, 
 J. V. Ortiz, A. F. Izmaylov, J. L. Sonnenberg, D. Williams-Young, 
 F. Ding, F. Lipparini, F. Egidi, J. Goings, B. Peng, A. Petrone, 
 T. Henderson, D. Ranasinghe, V. G. Zakrzewski, J. Gao, N. Rega, 
 G. Zheng, W. Liang, M. Hada, M. Ehara, K. Toyota, R. Fukuda, 
 J. Hasegawa, M. Ishida, T. Nakajima, Y. Honda, O. Kitao, H. Nakai, 
 T. Vreven, K. Throssell, J. A. Montgomery, Jr., J. E. Peralta, 
 F. Ogliaro, M. J. Bearpark, J. J. Heyd, E. N. Brothers, K. N. Kudin, 
 V. N. Staroverov, T. A. Keith, R. Kobayashi, J. Normand, 
 K. Raghavachari, A. P. Rendell, J. C. Burant, S. S. Iyengar, 
 J. Tomasi, M. Cossi, J. M. Millam, M. Klene, C. Adamo, R. Cammi, 
 J. W. Ochterski, R. L. Martin, K. Morokuma, O. Farkas, 
 J. B. Foresman, and D. J. Fox, Gaussian, Inc., Wallingford CT, 2019.
 
 ******************************************
 Gaussian 16:  ES64L-G16RevC.01  3-Jul-2019
                 9-Apr-2025 
 ******************************************
 %nprocs=16
 Will use up to   16 processors via shared memory.
 %mem=30GB
 %chk=BDE49_nonexpt_2514_mol1.chk
 ----------------------------------------------------------------------
 #t hf aug-cc-pvdz iop(5/13=1,5/36=2,99/5=2) pseudo=read geom=check gue
 ss=(read,tcheck) scf=(maxcycle=1)
 ----------------------------------------------------------------------
 -----
 title
 -----
 Structure from the checkpoint file:  "BDE49_nonexpt_2514_mol1.chk"
 Charge =  0 Multiplicity = 1
 Z-Matrix found in chk file.
 S,0,1.136732,0.207667,-0.000002
 C,0,1.923462,-1.421352,0.000003
 O,0,1.502579,0.845485,1.267188
 O,0,1.502576,0.845476,-1.267198
 H,0,1.639101,-1.961929,0.902584
 H,0,2.997285,-1.225114,0.000002
 H,0,1.6391,-1.961936,-0.902573
 Si,0,-1.108501,-0.05948,0.000001
 C,0,-1.703199,1.71142,0.000005
 H,0,-1.341753,2.240902,-0.884425
 H,0,-1.341751,2.240899,0.884436
 C,0,-1.566845,-0.983902,1.563223
 H,0,-2.655844,-1.01897,1.671874
 H,0,-1.154238,-0.481315,2.441184
 H,0,-1.201944,-2.014379,1.553591
 C,0,-1.566849,-0.983898,-1.563222
 H,0,-1.154244,-0.481308,-2.441182
 H,0,-2.655849,-1.018966,-1.67187
 H,0,-1.201948,-2.014375,-1.553593
 H,0,-2.797265,1.745234,0.000006
 Recover connectivity data from disk.
                    Distance matrix (angstroms):
                    1          2          3          4          5
     1  S    0.000000
     2  C    1.809046   0.000000
     3  O    1.465069   2.630865   0.000000
     4  O    1.465069   2.630865   2.534386   0.000000
     5  H    2.402953   1.089834   2.834281   3.550791   0.000000
     6  H    2.348301   1.091607   2.850840   2.850841   1.789473
     7  H    2.402953   1.089833   3.550791   2.834282   1.805157
     8  Si   2.261070   3.323777   3.040142   3.040142   3.461688
     9  C    3.213484   4.792383   3.554238   3.554245   5.047684
    10  H    3.325528   4.985574   3.829733   3.191228   5.453685
    11  H    3.325529   4.985571   3.191221   3.829743   5.152628
    12  C    3.342579   3.849320   3.585479   4.558427   3.416295
    13  H    4.322435   4.891534   4.575199   5.422800   4.464026
    14  H    3.417986   4.039217   3.193328   4.750909   3.515999
    15  H    3.580579   3.540265   3.946555   4.842525   2.915150
    16  C    3.342579   3.849326   4.558426   3.585472   4.161113
    17  H    3.417984   4.039225   4.750905   3.193319   4.601716
    18  H    4.322435   4.891540   5.422800   4.575194   5.095448
    19  H    3.580578   3.540272   4.842527   3.946545   3.755944
    20  H    4.223795   5.684411   4.572085   4.572090   5.851414
                    6          7          8          9         10
     6  H    0.000000
     7  H    1.789473   0.000000
     8  Si   4.268042   3.461689   0.000000
     9  C    5.542362   5.047688   1.868088   0.000000
    10  H    5.623409   5.152636   2.475555   1.092342   0.000000
    11  H    5.623407   5.453686   2.475555   1.092342   1.768861
    12  C    4.830437   4.161104   1.873045   3.118814   4.054751
    13  H    5.898773   5.095440   2.471852   3.340316   4.346063
    14  H    4.873166   4.601705   2.477784   3.326981   4.301779
    15  H    4.546438   3.755932   2.498800   4.067735   4.906209
    16  C    4.830442   3.416303   1.873045   3.118815   3.303145
    17  H    4.873173   3.516013   2.477782   3.326981   3.141509
    18  H    5.898778   4.464034   2.471852   3.340317   3.601896
    19  H    4.546443   2.915155   2.498800   4.067735   4.309839
    20  H    6.511511   5.851418   2.471622   1.094588   1.773815
                   11         12         13         14         15
    11  H    0.000000
    12  C    3.303144   0.000000
    13  H    3.601895   1.094967   0.000000
    14  H    3.141508   1.092545   1.770800   0.000000
    15  H    4.309838   1.093219   1.765971   1.772112   0.000000
    16  C    4.054752   3.126445   3.413647   4.056859   3.302964
    17  H    4.301779   4.056858   4.411475   4.882366   4.279111
    18  H    4.346064   3.413647   3.343744   4.411476   3.675362
    19  H    4.906209   3.302963   3.675361   4.279111   3.107184
    20  H    1.773815   3.377242   3.233569   3.690042   4.369596
                   16         17         18         19         20
    16  C    0.000000
    17  H    1.092544   0.000000
    18  H    1.094968   1.770801   0.000000
    19  H    1.093219   1.772113   1.765972   0.000000
    20  H    3.377242   3.690041   3.233569   4.369596   0.000000
 Framework group  C1[X(C4H12O2SSi)]
 Deg. of freedom    54
                         Standard orientation:                         
 ---------------------------------------------------------------------
 Center     Atomic      Atomic             Coordinates (Angstroms)
 Number     Number       Type             X           Y           Z
 ---------------------------------------------------------------------
      1         16           0       -1.136732    0.207667    0.000002
      2          6           0       -1.923462   -1.421352   -0.000003
      3          8           0       -1.502579    0.845485   -1.267188
      4          8           0       -1.502576    0.845476    1.267198
      5          1           0       -1.639101   -1.961929   -0.902584
      6          1           0       -2.997285   -1.225114   -0.000002
      7          1           0       -1.639100   -1.961936    0.902573
      8         14           0        1.108501   -0.059480   -0.000001
      9          6           0        1.703199    1.711420   -0.000005
     10          1           0        1.341753    2.240902    0.884425
     11          1           0        1.341751    2.240899   -0.884436
     12          6           0        1.566845   -0.983902   -1.563223
     13          1           0        2.655844   -1.018970   -1.671874
     14          1           0        1.154238   -0.481315   -2.441184
     15          1           0        1.201944   -2.014379   -1.553591
     16          6           0        1.566849   -0.983898    1.563222
     17          1           0        1.154244   -0.481308    2.441182
     18          1           0        2.655849   -1.018966    1.671870
     19          1           0        1.201948   -2.014375    1.553593
     20          1           0        2.797265    1.745234   -0.000006
 ---------------------------------------------------------------------
 Rotational constants (GHZ):           1.8360790           1.0810748           1.0724574
 ======================================================================================================
                                       Pseudopotential Parameters
 ======================================================================================================
  Center     Atomic      Valence      Angular      Power
  Number     Number     Electrons     Momentum     of R      Exponent        Coefficient   SO-Coeffient
 ======================================================================================================
    1         16           16
                                      G and up 
                                                     0        0.0000010       -0.00108337    0.00000000
                                                     2        0.1200000        0.02393503    0.00000000
                                                     2        0.1400000       -0.04929246    0.00000000
                                                     2        0.2200000        0.11673929    0.00000000
                                                     2        0.3000000       -0.24406081    0.00000000
                                                     2        0.5000000        0.65938599    0.00000000
                                                     2        0.9000000       -2.67146103    0.00000000
                                                     2        1.6000000        1.72231217    0.00000000
                                      S - G
                                                     0        0.0000010       -0.00315363    0.00000000
                                                     2        0.1600000        0.09915567    0.00000000
                                                     2        0.3000000       -0.42531365    0.00000000
                                                     2        0.6000000        1.27985937    0.00000000
                                      P - G
                                                     0        0.0000010        0.05906535    0.00000000
                                                     2        0.1200000       -0.03516302    0.00000000
                                                     2        0.1600000        0.00585339    0.00000000
                                                     2        0.5000000        0.34013084    0.00000000
                                      D - G
                                                     0        0.0000010        0.03484679    0.00000000
                                                     2        0.1200000        0.00763944    0.00000000
                                                     2        0.2400000       -0.16368217    0.00000000
                                                     2        0.7000000        1.04339930    0.00000000
                                      F - G
                                                     0        0.0000010       -0.02227713    0.00000000
                                                     2        0.1200000       -0.15866626    0.00000000
                                                     2        0.1600000        0.42479417    0.00000000
                                                     2        0.2600000       -0.42884495    0.00000000
    2          6            6
                                      G and up 
                                                     0        0.0000010       -0.00011185    0.00000000
                                                     2        0.1200000       -0.02301220    0.00000000
                                                     2        0.1400000        0.13317600    0.00000000
                                                     2        0.1600000       -0.19690668    0.00000000
                                                     2        0.2200000        0.23163694    0.00000000
                                                     2        0.3000000       -0.36920489    0.00000000
                                                     2        0.4000000        0.36389709    0.00000000
                                                     2        0.7000000       -0.38862160    0.00000000
                                                     2        1.3000000        0.80803421    0.00000000
                                      S - G
                                                     0        0.0000010        0.00312304    0.00000000
                                                     2        0.1200000       -0.00632892    0.00000000
                                                     2        0.2200000       -0.03780897    0.00000000
                                                     2        0.4000000        0.26269560    0.00000000
                                                     2        0.9000000       -0.28209514    0.00000000
                                                     2        1.5000000       -0.72686737    0.00000000
                                      P - G
                                                     0        0.0000010       -0.01465594    0.00000000
                                                     2        0.1200000        0.07908409    0.00000000
                                                     2        0.1800000       -0.30615861    0.00000000
                                                     2        0.2600000        0.41506950    0.00000000
                                                     2        0.5000000       -0.36252345    0.00000000
                                                     2        0.9000000        0.15124193    0.00000000
                                                     2        3.0000000       -0.80425677    0.00000000
                                      D - G
                                                     0        0.0000010        0.01149631    0.00000000
                                                     2        0.1200000       -0.04713561    0.00000000
                                                     2        0.1600000        0.10865096    0.00000000
                                                     2        0.2800000       -0.15816701    0.00000000
                                                     2        0.7000000        0.65478804    0.00000000
                                                     2        1.3000000       -1.73816624    0.00000000
                                      F - G
                                                     0        0.0000010        0.00481868    0.00000000
                                                     2        0.1200000       -0.04746842    0.00000000
                                                     2        0.1600000        0.09327889    0.00000000
                                                     2        0.4000000       -0.19693326    0.00000000
                                                     2        0.9000000        0.34938253    0.00000000
    3          8            8
                                      G and up 
                                                     0        0.0000010        0.00001165    0.00000000
                                                     2        0.1200000       -0.01744018    0.00000000
                                                     2        0.1400000        0.05401326    0.00000000
                                                     2        0.1800000       -0.08231208    0.00000000
                                                     2        0.2600000        0.11570222    0.00000000
                                                     2        0.4000000       -0.20630360    0.00000000
                                                     2        0.7000000        0.38074319    0.00000000
                                                     2        1.2000000       -0.17045091    0.00000000
                                                     2        2.0000000       -1.45433187    0.00000000
                                      S - G
                                                     0        0.0000010       -0.00117944    0.00000000
                                                     2        0.1400000        0.04368312    0.00000000
                                                     2        0.3000000       -0.33477926    0.00000000
                                                     2        0.6000000        1.52630657    0.00000000
                                                     2        1.5000000       -2.50804716    0.00000000
                                                     2        3.0000000        2.89751681    0.00000000
                                      P - G
                                                     0        0.0000010        0.06576007    0.00000000
                                                     2        0.1200000       -0.10329304    0.00000000
                                                     2        0.2000000        0.24891756    0.00000000
                                                     2        0.4000000       -0.50800022    0.00000000
                                                     2        0.9000000        0.81480796    0.00000000
                                      D - G
                                                     0        0.0000010       -0.14101855    0.00000000
                                                     2        0.1200000        0.22105937    0.00000000
                                                     2        0.1800000       -0.45814988    0.00000000
                                                     2        0.3000000        0.46029282    0.00000000
                                      F - G
                                                     0        0.0000010        0.07483044    0.00000000
                                                     2        0.1200000       -0.09134252    0.00000000
                                                     2        0.1400000        0.04125459    0.00000000
                                                     2        0.3000000        0.37914837    0.00000000
                                                     2        0.5000000       -0.86881279    0.00000000
    4          8            8
                                      G and up 
                                                     0        0.0000010        0.00001165    0.00000000
                                                     2        0.1200000       -0.01744018    0.00000000
                                                     2        0.1400000        0.05401326    0.00000000
                                                     2        0.1800000       -0.08231208    0.00000000
                                                     2        0.2600000        0.11570222    0.00000000
                                                     2        0.4000000       -0.20630360    0.00000000
                                                     2        0.7000000        0.38074319    0.00000000
                                                     2        1.2000000       -0.17045091    0.00000000
                                                     2        2.0000000       -1.45433187    0.00000000
                                      S - G
                                                     0        0.0000010       -0.00117944    0.00000000
                                                     2        0.1400000        0.04368312    0.00000000
                                                     2        0.3000000       -0.33477926    0.00000000
                                                     2        0.6000000        1.52630657    0.00000000
                                                     2        1.5000000       -2.50804716    0.00000000
                                                     2        3.0000000        2.89751681    0.00000000
                                      P - G
                                                     0        0.0000010        0.06576007    0.00000000
                                                     2        0.1200000       -0.10329304    0.00000000
                                                     2        0.2000000        0.24891756    0.00000000
                                                     2        0.4000000       -0.50800022    0.00000000
                                                     2        0.9000000        0.81480796    0.00000000
                                      D - G
                                                     0        0.0000010       -0.14101855    0.00000000
                                                     2        0.1200000        0.22105937    0.00000000
                                                     2        0.1800000       -0.45814988    0.00000000
                                                     2        0.3000000        0.46029282    0.00000000
                                      F - G
                                                     0        0.0000010        0.07483044    0.00000000
                                                     2        0.1200000       -0.09134252    0.00000000
                                                     2        0.1400000        0.04125459    0.00000000
                                                     2        0.3000000        0.37914837    0.00000000
                                                     2        0.5000000       -0.86881279    0.00000000
    5          1            1
                                      F and up 
                                                     0        0.0000010       -0.00000699    0.00000000
                                                     2        0.1200000        0.00123686    0.00000000
                                                     2        0.1800000       -0.00752022    0.00000000
                                                     2        0.2600000        0.02503380    0.00000000
                                                     2        0.4000000       -0.08702670    0.00000000
                                                     2        0.6000000        0.30134159    0.00000000
                                                     2        0.8000000       -0.50204959    0.00000000
                                                     2        1.2000000        0.52208372    0.00000000
                                      S - F
                                                     0        0.0000010       -0.01618346    0.00000000
                                                     2        0.1200000       -0.07880581    0.00000000
                                                     2        0.1600000        0.32040539    0.00000000
                                                     2        0.2400000       -0.47500956    0.00000000
                                                     2        0.5000000        0.54013668    0.00000000
                                                     2        1.5000000       -1.40434292    0.00000000
                                                     2        3.0000000        1.46283806    0.00000000
                                      P - F
                                                     0        0.0000010        0.00612970    0.00000000
                                                     2        0.1200000        0.02254406    0.00000000
                                                     2        0.1800000       -0.13874529    0.00000000
                                                     2        0.3000000        0.38299049    0.00000000
                                                     2        0.5000000       -0.57923512    0.00000000
                                                     2        1.0000000        0.63021625    0.00000000
                                                     2        2.0000000       -0.79201034    0.00000000
                                      D - F
                                                     0        0.0000010       -0.00296226    0.00000000
                                                     2        0.1200000       -0.00547344    0.00000000
                                                     2        0.1400000        0.01837884    0.00000000
                                                     2        0.2400000       -0.05565704    0.00000000
                                                     2        0.4000000        0.15376597    0.00000000
                                                     2        0.8000000       -0.32464795    0.00000000
    6          1            1
                                      F and up 
                                                     0        0.0000010       -0.00000699    0.00000000
                                                     2        0.1200000        0.00123686    0.00000000
                                                     2        0.1800000       -0.00752022    0.00000000
                                                     2        0.2600000        0.02503380    0.00000000
                                                     2        0.4000000       -0.08702670    0.00000000
                                                     2        0.6000000        0.30134159    0.00000000
                                                     2        0.8000000       -0.50204959    0.00000000
                                                     2        1.2000000        0.52208372    0.00000000
                                      S - F
                                                     0        0.0000010       -0.01618346    0.00000000
                                                     2        0.1200000       -0.07880581    0.00000000
                                                     2        0.1600000        0.32040539    0.00000000
                                                     2        0.2400000       -0.47500956    0.00000000
                                                     2        0.5000000        0.54013668    0.00000000
                                                     2        1.5000000       -1.40434292    0.00000000
                                                     2        3.0000000        1.46283806    0.00000000
                                      P - F
                                                     0        0.0000010        0.00612970    0.00000000
                                                     2        0.1200000        0.02254406    0.00000000
                                                     2        0.1800000       -0.13874529    0.00000000
                                                     2        0.3000000        0.38299049    0.00000000
                                                     2        0.5000000       -0.57923512    0.00000000
                                                     2        1.0000000        0.63021625    0.00000000
                                                     2        2.0000000       -0.79201034    0.00000000
                                      D - F
                                                     0        0.0000010       -0.00296226    0.00000000
                                                     2        0.1200000       -0.00547344    0.00000000
                                                     2        0.1400000        0.01837884    0.00000000
                                                     2        0.2400000       -0.05565704    0.00000000
                                                     2        0.4000000        0.15376597    0.00000000
                                                     2        0.8000000       -0.32464795    0.00000000
    7          1            1
                                      F and up 
                                                     0        0.0000010       -0.00000699    0.00000000
                                                     2        0.1200000        0.00123686    0.00000000
                                                     2        0.1800000       -0.00752022    0.00000000
                                                     2        0.2600000        0.02503380    0.00000000
                                                     2        0.4000000       -0.08702670    0.00000000
                                                     2        0.6000000        0.30134159    0.00000000
                                                     2        0.8000000       -0.50204959    0.00000000
                                                     2        1.2000000        0.52208372    0.00000000
                                      S - F
                                                     0        0.0000010       -0.01618346    0.00000000
                                                     2        0.1200000       -0.07880581    0.00000000
                                                     2        0.1600000        0.32040539    0.00000000
                                                     2        0.2400000       -0.47500956    0.00000000
                                                     2        0.5000000        0.54013668    0.00000000
                                                     2        1.5000000       -1.40434292    0.00000000
                                                     2        3.0000000        1.46283806    0.00000000
                                      P - F
                                                     0        0.0000010        0.00612970    0.00000000
                                                     2        0.1200000        0.02254406    0.00000000
                                                     2        0.1800000       -0.13874529    0.00000000
                                                     2        0.3000000        0.38299049    0.00000000
                                                     2        0.5000000       -0.57923512    0.00000000
                                                     2        1.0000000        0.63021625    0.00000000
                                                     2        2.0000000       -0.79201034    0.00000000
                                      D - F
                                                     0        0.0000010       -0.00296226    0.00000000
                                                     2        0.1200000       -0.00547344    0.00000000
                                                     2        0.1400000        0.01837884    0.00000000
                                                     2        0.2400000       -0.05565704    0.00000000
                                                     2        0.4000000        0.15376597    0.00000000
                                                     2        0.8000000       -0.32464795    0.00000000
    8         14           14
                                      G and up 
                                                     0        0.0000010       -0.00080730    0.00000000
                                                     2        0.1200000       -0.00055264    0.00000000
                                                     2        0.1400000        0.01406977    0.00000000
                                                     2        0.1800000       -0.03298471    0.00000000
                                                     2        0.2600000        0.01115055    0.00000000
                                                     2        0.4000000        0.04822265    0.00000000
                                                     2        1.0000000        0.55710288    0.00000000
                                      S - G
                                                     0        0.0000010        0.00443253    0.00000000
                                                     2        0.1200000       -0.39699075    0.00000000
                                                     2        0.1600000        0.69326200    0.00000000
                                                     2        0.2800000       -0.35872667    0.00000000
                                                     2        0.6000000        0.34281738    0.00000000
                                                     2        1.9000000       -2.57353518    0.00000000
                                      P - G
                                                     0        0.0000010        0.01853706    0.00000000
                                                     2        0.1200000        0.09826004    0.00000000
                                                     2        0.1800000       -0.15827199    0.00000000
                                                     2        0.6000000       -0.27745523    0.00000000
                                      D - G
                                                     0        0.0000010        0.06592581    0.00000000
                                                     2        0.1200000       -0.32414458    0.00000000
                                                     2        0.1600000        0.55726508    0.00000000
                                                     2        0.4000000       -0.80339056    0.00000000
                                      F - G
                                                     0        0.0000010       -0.02690402    0.00000000
                                                     2        0.1200000        0.11839193    0.00000000
                                                     2        0.1600000       -0.17978163    0.00000000
    9          6            6
                                      G and up 
                                                     0        0.0000010       -0.00011185    0.00000000
                                                     2        0.1200000       -0.02301220    0.00000000
                                                     2        0.1400000        0.13317600    0.00000000
                                                     2        0.1600000       -0.19690668    0.00000000
                                                     2        0.2200000        0.23163694    0.00000000
                                                     2        0.3000000       -0.36920489    0.00000000
                                                     2        0.4000000        0.36389709    0.00000000
                                                     2        0.7000000       -0.38862160    0.00000000
                                                     2        1.3000000        0.80803421    0.00000000
                                      S - G
                                                     0        0.0000010        0.00312304    0.00000000
                                                     2        0.1200000       -0.00632892    0.00000000
                                                     2        0.2200000       -0.03780897    0.00000000
                                                     2        0.4000000        0.26269560    0.00000000
                                                     2        0.9000000       -0.28209514    0.00000000
                                                     2        1.5000000       -0.72686737    0.00000000
                                      P - G
                                                     0        0.0000010       -0.01465594    0.00000000
                                                     2        0.1200000        0.07908409    0.00000000
                                                     2        0.1800000       -0.30615861    0.00000000
                                                     2        0.2600000        0.41506950    0.00000000
                                                     2        0.5000000       -0.36252345    0.00000000
                                                     2        0.9000000        0.15124193    0.00000000
                                                     2        3.0000000       -0.80425677    0.00000000
                                      D - G
                                                     0        0.0000010        0.01149631    0.00000000
                                                     2        0.1200000       -0.04713561    0.00000000
                                                     2        0.1600000        0.10865096    0.00000000
                                                     2        0.2800000       -0.15816701    0.00000000
                                                     2        0.7000000        0.65478804    0.00000000
                                                     2        1.3000000       -1.73816624    0.00000000
                                      F - G
                                                     0        0.0000010        0.00481868    0.00000000
                                                     2        0.1200000       -0.04746842    0.00000000
                                                     2        0.1600000        0.09327889    0.00000000
                                                     2        0.4000000       -0.19693326    0.00000000
                                                     2        0.9000000        0.34938253    0.00000000
   10          1            1
                                      F and up 
                                                     0        0.0000010       -0.00000699    0.00000000
                                                     2        0.1200000        0.00123686    0.00000000
                                                     2        0.1800000       -0.00752022    0.00000000
                                                     2        0.2600000        0.02503380    0.00000000
                                                     2        0.4000000       -0.08702670    0.00000000
                                                     2        0.6000000        0.30134159    0.00000000
                                                     2        0.8000000       -0.50204959    0.00000000
                                                     2        1.2000000        0.52208372    0.00000000
                                      S - F
                                                     0        0.0000010       -0.01618346    0.00000000
                                                     2        0.1200000       -0.07880581    0.00000000
                                                     2        0.1600000        0.32040539    0.00000000
                                                     2        0.2400000       -0.47500956    0.00000000
                                                     2        0.5000000        0.54013668    0.00000000
                                                     2        1.5000000       -1.40434292    0.00000000
                                                     2        3.0000000        1.46283806    0.00000000
                                      P - F
                                                     0        0.0000010        0.00612970    0.00000000
                                                     2        0.1200000        0.02254406    0.00000000
                                                     2        0.1800000       -0.13874529    0.00000000
                                                     2        0.3000000        0.38299049    0.00000000
                                                     2        0.5000000       -0.57923512    0.00000000
                                                     2        1.0000000        0.63021625    0.00000000
                                                     2        2.0000000       -0.79201034    0.00000000
                                      D - F
                                                     0        0.0000010       -0.00296226    0.00000000
                                                     2        0.1200000       -0.00547344    0.00000000
                                                     2        0.1400000        0.01837884    0.00000000
                                                     2        0.2400000       -0.05565704    0.00000000
                                                     2        0.4000000        0.15376597    0.00000000
                                                     2        0.8000000       -0.32464795    0.00000000
   11          1            1
                                      F and up 
                                                     0        0.0000010       -0.00000699    0.00000000
                                                     2        0.1200000        0.00123686    0.00000000
                                                     2        0.1800000       -0.00752022    0.00000000
                                                     2        0.2600000        0.02503380    0.00000000
                                                     2        0.4000000       -0.08702670    0.00000000
                                                     2        0.6000000        0.30134159    0.00000000
                                                     2        0.8000000       -0.50204959    0.00000000
                                                     2        1.2000000        0.52208372    0.00000000
                                      S - F
                                                     0        0.0000010       -0.01618346    0.00000000
                                                     2        0.1200000       -0.07880581    0.00000000
                                                     2        0.1600000        0.32040539    0.00000000
                                                     2        0.2400000       -0.47500956    0.00000000
                                                     2        0.5000000        0.54013668    0.00000000
                                                     2        1.5000000       -1.40434292    0.00000000
                                                     2        3.0000000        1.46283806    0.00000000
                                      P - F
                                                     0        0.0000010        0.00612970    0.00000000
                                                     2        0.1200000        0.02254406    0.00000000
                                                     2        0.1800000       -0.13874529    0.00000000
                                                     2        0.3000000        0.38299049    0.00000000
                                                     2        0.5000000       -0.57923512    0.00000000
                                                     2        1.0000000        0.63021625    0.00000000
                                                     2        2.0000000       -0.79201034    0.00000000
                                      D - F
                                                     0        0.0000010       -0.00296226    0.00000000
                                                     2        0.1200000       -0.00547344    0.00000000
                                                     2        0.1400000        0.01837884    0.00000000
                                                     2        0.2400000       -0.05565704    0.00000000
                                                     2        0.4000000        0.15376597    0.00000000
                                                     2        0.8000000       -0.32464795    0.00000000
   12          6            6
                                      G and up 
                                                     0        0.0000010       -0.00011185    0.00000000
                                                     2        0.1200000       -0.02301220    0.00000000
                                                     2        0.1400000        0.13317600    0.00000000
                                                     2        0.1600000       -0.19690668    0.00000000
                                                     2        0.2200000        0.23163694    0.00000000
                                                     2        0.3000000       -0.36920489    0.00000000
                                                     2        0.4000000        0.36389709    0.00000000
                                                     2        0.7000000       -0.38862160    0.00000000
                                                     2        1.3000000        0.80803421    0.00000000
                                      S - G
                                                     0        0.0000010        0.00312304    0.00000000
                                                     2        0.1200000       -0.00632892    0.00000000
                                                     2        0.2200000       -0.03780897    0.00000000
                                                     2        0.4000000        0.26269560    0.00000000
                                                     2        0.9000000       -0.28209514    0.00000000
                                                     2        1.5000000       -0.72686737    0.00000000
                                      P - G
                                                     0        0.0000010       -0.01465594    0.00000000
                                                     2        0.1200000        0.07908409    0.00000000
                                                     2        0.1800000       -0.30615861    0.00000000
                                                     2        0.2600000        0.41506950    0.00000000
                                                     2        0.5000000       -0.36252345    0.00000000
                                                     2        0.9000000        0.15124193    0.00000000
                                                     2        3.0000000       -0.80425677    0.00000000
                                      D - G
                                                     0        0.0000010        0.01149631    0.00000000
                                                     2        0.1200000       -0.04713561    0.00000000
                                                     2        0.1600000        0.10865096    0.00000000
                                                     2        0.2800000       -0.15816701    0.00000000
                                                     2        0.7000000        0.65478804    0.00000000
                                                     2        1.3000000       -1.73816624    0.00000000
                                      F - G
                                                     0        0.0000010        0.00481868    0.00000000
                                                     2        0.1200000       -0.04746842    0.00000000
                                                     2        0.1600000        0.09327889    0.00000000
                                                     2        0.4000000       -0.19693326    0.00000000
                                                     2        0.9000000        0.34938253    0.00000000
   13          1            1
                                      F and up 
                                                     0        0.0000010       -0.00000699    0.00000000
                                                     2        0.1200000        0.00123686    0.00000000
                                                     2        0.1800000       -0.00752022    0.00000000
                                                     2        0.2600000        0.02503380    0.00000000
                                                     2        0.4000000       -0.08702670    0.00000000
                                                     2        0.6000000        0.30134159    0.00000000
                                                     2        0.8000000       -0.50204959    0.00000000
                                                     2        1.2000000        0.52208372    0.00000000
                                      S - F
                                                     0        0.0000010       -0.01618346    0.00000000
                                                     2        0.1200000       -0.07880581    0.00000000
                                                     2        0.1600000        0.32040539    0.00000000
                                                     2        0.2400000       -0.47500956    0.00000000
                                                     2        0.5000000        0.54013668    0.00000000
                                                     2        1.5000000       -1.40434292    0.00000000
                                                     2        3.0000000        1.46283806    0.00000000
                                      P - F
                                                     0        0.0000010        0.00612970    0.00000000
                                                     2        0.1200000        0.02254406    0.00000000
                                                     2        0.1800000       -0.13874529    0.00000000
                                                     2        0.3000000        0.38299049    0.00000000
                                                     2        0.5000000       -0.57923512    0.00000000
                                                     2        1.0000000        0.63021625    0.00000000
                                                     2        2.0000000       -0.79201034    0.00000000
                                      D - F
                                                     0        0.0000010       -0.00296226    0.00000000
                                                     2        0.1200000       -0.00547344    0.00000000
                                                     2        0.1400000        0.01837884    0.00000000
                                                     2        0.2400000       -0.05565704    0.00000000
                                                     2        0.4000000        0.15376597    0.00000000
                                                     2        0.8000000       -0.32464795    0.00000000
   14          1            1
                                      F and up 
                                                     0        0.0000010       -0.00000699    0.00000000
                                                     2        0.1200000        0.00123686    0.00000000
                                                     2        0.1800000       -0.00752022    0.00000000
                                                     2        0.2600000        0.02503380    0.00000000
                                                     2        0.4000000       -0.08702670    0.00000000
                                                     2        0.6000000        0.30134159    0.00000000
                                                     2        0.8000000       -0.50204959    0.00000000
                                                     2        1.2000000        0.52208372    0.00000000
                                      S - F
                                                     0        0.0000010       -0.01618346    0.00000000
                                                     2        0.1200000       -0.07880581    0.00000000
                                                     2        0.1600000        0.32040539    0.00000000
                                                     2        0.2400000       -0.47500956    0.00000000
                                                     2        0.5000000        0.54013668    0.00000000
                                                     2        1.5000000       -1.40434292    0.00000000
                                                     2        3.0000000        1.46283806    0.00000000
                                      P - F
                                                     0        0.0000010        0.00612970    0.00000000
                                                     2        0.1200000        0.02254406    0.00000000
                                                     2        0.1800000       -0.13874529    0.00000000
                                                     2        0.3000000        0.38299049    0.00000000
                                                     2        0.5000000       -0.57923512    0.00000000
                                                     2        1.0000000        0.63021625    0.00000000
                                                     2        2.0000000       -0.79201034    0.00000000
                                      D - F
                                                     0        0.0000010       -0.00296226    0.00000000
                                                     2        0.1200000       -0.00547344    0.00000000
[...]
                                                     2        0.1400000        0.01837884    0.00000000
                                                     2        0.2400000       -0.05565704    0.00000000
                                                     2        0.4000000        0.15376597    0.00000000
                                                     2        0.8000000       -0.32464795    0.00000000
   18          1            1
                                      F and up 
                                                     0        0.0000010       -0.00000699    0.00000000
                                                     2        0.1200000        0.00123686    0.00000000
                                                     2        0.1800000       -0.00752022    0.00000000
                                                     2        0.2600000        0.02503380    0.00000000
                                                     2        0.4000000       -0.08702670    0.00000000
                                                     2        0.6000000        0.30134159    0.00000000
                                                     2        0.8000000       -0.50204959    0.00000000
                                                     2        1.2000000        0.52208372    0.00000000
                                      S - F
                                                     0        0.0000010       -0.01618346    0.00000000
                                                     2        0.1200000       -0.07880581    0.00000000
                                                     2        0.1600000        0.32040539    0.00000000
                                                     2        0.2400000       -0.47500956    0.00000000
                                                     2        0.5000000        0.54013668    0.00000000
                                                     2        1.5000000       -1.40434292    0.00000000
                                                     2        3.0000000        1.46283806    0.00000000
                                      P - F
                                                     0        0.0000010        0.00612970    0.00000000
                                                     2        0.1200000        0.02254406    0.00000000
                                                     2        0.1800000       -0.13874529    0.00000000
                                                     2        0.3000000        0.38299049    0.00000000
                                                     2        0.5000000       -0.57923512    0.00000000
                                                     2        1.0000000        0.63021625    0.00000000
                                                     2        2.0000000       -0.79201034    0.00000000
                                      D - F
                                                     0        0.0000010       -0.00296226    0.00000000
                                                     2        0.1200000       -0.00547344    0.00000000
                                                     2        0.1400000        0.01837884    0.00000000
                                                     2        0.2400000       -0.05565704    0.00000000
                                                     2        0.4000000        0.15376597    0.00000000
                                                     2        0.8000000       -0.32464795    0.00000000
   19          1            1
                                      F and up 
                                                     0        0.0000010       -0.00000699    0.00000000
                                                     2        0.1200000        0.00123686    0.00000000
                                                     2        0.1800000       -0.00752022    0.00000000
                                                     2        0.2600000        0.02503380    0.00000000
                                                     2        0.4000000       -0.08702670    0.00000000
                                                     2        0.6000000        0.30134159    0.00000000
                                                     2        0.8000000       -0.50204959    0.00000000
                                                     2        1.2000000        0.52208372    0.00000000
                                      S - F
                                                     0        0.0000010       -0.01618346    0.00000000
                                                     2        0.1200000       -0.07880581    0.00000000
                                                     2        0.1600000        0.32040539    0.00000000
                                                     2        0.2400000       -0.47500956    0.00000000
                                                     2        0.5000000        0.54013668    0.00000000
                                                     2        1.5000000       -1.40434292    0.00000000
                                                     2        3.0000000        1.46283806    0.00000000
                                      P - F
                                                     0        0.0000010        0.00612970    0.00000000
                                                     2        0.1200000        0.02254406    0.00000000
                                                     2        0.1800000       -0.13874529    0.00000000
                                                     2        0.3000000        0.38299049    0.00000000
                                                     2        0.5000000       -0.57923512    0.00000000
                                                     2        1.0000000        0.63021625    0.00000000
                                                     2        2.0000000       -0.79201034    0.00000000
                                      D - F
                                                     0        0.0000010       -0.00296226    0.00000000
                                                     2        0.1200000       -0.00547344    0.00000000
                                                     2        0.1400000        0.01837884    0.00000000
                                                     2        0.2400000       -0.05565704    0.00000000
                                                     2        0.4000000        0.15376597    0.00000000
                                                     2        0.8000000       -0.32464795    0.00000000
   20          1            1
                                      F and up 
                                                     0        0.0000010       -0.00000699    0.00000000
                                                     2        0.1200000        0.00123686    0.00000000
                                                     2        0.1800000       -0.00752022    0.00000000
                                                     2        0.2600000        0.02503380    0.00000000
                                                     2        0.4000000       -0.08702670    0.00000000
                                                     2        0.6000000        0.30134159    0.00000000
                                                     2        0.8000000       -0.50204959    0.00000000
                                                     2        1.2000000        0.52208372    0.00000000
                                      S - F
                                                     0        0.0000010       -0.01618346    0.00000000
                                                     2        0.1200000       -0.07880581    0.00000000
                                                     2        0.1600000        0.32040539    0.00000000
                                                     2        0.2400000       -0.47500956    0.00000000
                                                     2        0.5000000        0.54013668    0.00000000
                                                     2        1.5000000       -1.40434292    0.00000000
                                                     2        3.0000000        1.46283806    0.00000000
                                      P - F
                                                     0        0.0000010        0.00612970    0.00000000
                                                     2        0.1200000        0.02254406    0.00000000
                                                     2        0.1800000       -0.13874529    0.00000000
                                                     2        0.3000000        0.38299049    0.00000000
                                                     2        0.5000000       -0.57923512    0.00000000
                                                     2        1.0000000        0.63021625    0.00000000
                                                     2        2.0000000       -0.79201034    0.00000000
                                      D - F
                                                     0        0.0000010       -0.00296226    0.00000000
                                                     2        0.1200000       -0.00547344    0.00000000
                                                     2        0.1400000        0.01837884    0.00000000
                                                     2        0.2400000       -0.05565704    0.00000000
                                                     2        0.4000000        0.15376597    0.00000000
                                                     2        0.8000000       -0.32464795    0.00000000
 ======================================================================================================
   300 basis functions,   552 primitive gaussians,   316 cartesian basis functions
    41 alpha electrons       41 beta electrons
       nuclear repulsion energy       612.6197349991 Hartrees.
 NAtoms=   20 NActive=   20 NUniq=   20 SFac= 1.00D+00 NAtFMM=   60 NAOKFM=F Big=F
   1 Symmetry operations used in ECPInt.
 ECPInt:  NShTT=    9316 NPrTT=   48136 LenC2=    9295 LenP2D=   35506.
 LDataN:  DoStor=T MaxTD1= 6 Len=  172
 Initial guess from the checkpoint file:  "BDE49_nonexpt_2514_mol1.chk"
 B after Tr=     0.000000    0.000000   -0.000000
         Rot=    0.000000    0.000000    1.000000    0.000000 Ang= 180.00 deg.
 >>>>>>>>>> Convergence criterion not met.
 SCF Done:  E(RHF) =  -994.838195800     A.U. after    2 cycles
            NFock=  1  Conv=0.54D-02     -V/T= 2.0032

 **********************************************************************

            Population analysis using the SCF Density.

 **********************************************************************

 Orbital symmetries:
       Occupied  (A) (A) (A) (A) (A) (A) (A) (A) (A) (A) (A) (A)
                 (A) (A) (A) (A) (A) (A) (A) (A) (A) (A) (A) (A)
                 (A) (A) (A) (A) (A) (A) (A) (A) (A) (A) (A) (A)
                 (A) (A) (A) (A) (A)
       Virtual   (A) (A) (A) (A) (A) (A) (A) (A) (A) (A) (A) (A)
                 (A) (A) (A) (A) (A) (A) (A) (A) (A) (A) (A) (A)
                 (A) (A) (A) (A) (A) (A) (A) (A) (A) (A) (A) (A)
                 (A) (A) (A) (A) (A) (A) (A) (A) (A) (A) (A) (A)
                 (A) (A) (A) (A) (A) (A) (A) (A) (A) (A) (A) (A)
                 (A) (A) (A) (A) (A) (A) (A) (A) (A) (A) (A) (A)
                 (A) (A) (A) (A) (A) (A) (A) (A) (A) (A) (A) (A)
                 (A) (A) (A) (A) (A) (A) (A) (A) (A) (A) (A) (A)
                 (A) (A) (A) (A) (A) (A) (A) (A) (A) (A) (A) (A)
                 (A) (A) (A) (A) (A) (A) (A) (A) (A) (A) (A) (A)
                 (A) (A) (A) (A) (A) (A) (A) (A) (A) (A) (A) (A)
                 (A) (A) (A) (A) (A) (A) (A) (A) (A) (A) (A) (A)
                 (A) (A) (A) (A) (A) (A) (A) (A) (A) (A) (A) (A)
                 (A) (A) (A) (A) (A) (A) (A) (A) (A) (A) (A) (A)
                 (A) (A) (A) (A) (A) (A) (A) (A) (A) (A) (A) (A)
                 (A) (A) (A) (A) (A) (A) (A) (A) (A) (A) (A) (A)
                 (A) (A) (A) (A) (A) (A) (A) (A) (A) (A) (A) (A)
                 (A) (A) (A) (A) (A) (A) (A) (A) (A) (A) (A) (A)
                 (A) (A) (A) (A) (A) (A) (A) (A) (A) (A) (A) (A)
                 (A) (A) (A) (A) (A) (A) (A) (A) (A) (A) (A) (A)
                 (A) (A) (A) (A) (A) (A) (A) (A) (A) (A) (A) (A)
                 (A) (A) (A) (A) (A) (A) (A)
 The electronic state is 1-A.
 Alpha  occ. eigenvalues --  -93.74167 -69.09657 -20.53775 -20.53774 -11.27743
 Alpha  occ. eigenvalues --  -11.23886 -11.23883 -11.23019  -9.01256  -6.84812
 Alpha  occ. eigenvalues --   -6.35865  -6.35619  -6.35500  -3.95634  -3.95510
 Alpha  occ. eigenvalues --   -3.95506  -1.38574  -1.27649  -1.02124  -0.98722
 Alpha  occ. eigenvalues --   -0.94846  -0.94271  -0.83308  -0.70097  -0.65323
 Alpha  occ. eigenvalues --   -0.64591  -0.62211  -0.59853  -0.59758  -0.58983
 Alpha  occ. eigenvalues --   -0.58720  -0.57328  -0.57255  -0.56240  -0.55716
 Alpha  occ. eigenvalues --   -0.50359  -0.48169  -0.47480  -0.46325  -0.46152
 Alpha  occ. eigenvalues --   -0.39635
 Alpha virt. eigenvalues --    0.02178   0.03642   0.04307   0.04719   0.05946
 Alpha virt. eigenvalues --    0.06010   0.06349   0.07100   0.07273   0.08675
 Alpha virt. eigenvalues --    0.08754   0.09113   0.10791   0.10981   0.11508
 Alpha virt. eigenvalues --    0.12689   0.13156   0.13488   0.14018   0.14677
 Alpha virt. eigenvalues --    0.15998   0.16431   0.16613   0.16927   0.17372
 Alpha virt. eigenvalues --    0.17739   0.18583   0.18994   0.19105   0.19235
 Alpha virt. eigenvalues --    0.19544   0.20391   0.20602   0.20804   0.21836
 Alpha virt. eigenvalues --    0.22969   0.23369   0.24074   0.24475   0.25159
 Alpha virt. eigenvalues --    0.26182   0.26217   0.26825   0.27844   0.27949
 Alpha virt. eigenvalues --    0.29244   0.30508   0.31834   0.32852   0.33453
 Alpha virt. eigenvalues --    0.34335   0.34604   0.35178   0.35652   0.37513
 Alpha virt. eigenvalues --    0.37991   0.38994   0.39768   0.40721   0.42258
 Alpha virt. eigenvalues --    0.43383   0.43937   0.44173   0.44453   0.44977
 Alpha virt. eigenvalues --    0.45444   0.45580   0.46263   0.46566   0.46730
 Alpha virt. eigenvalues --    0.47102   0.47800   0.48510   0.48660   0.49691
 Alpha virt. eigenvalues --    0.50115   0.50954   0.51354   0.53056   0.53341
 Alpha virt. eigenvalues --    0.54140   0.54362   0.55892   0.56739   0.56812
 Alpha virt. eigenvalues --    0.57089   0.57566   0.58629   0.59997   0.60122
 Alpha virt. eigenvalues --    0.60149   0.61248   0.61822   0.62870   0.63003
 Alpha virt. eigenvalues --    0.63558   0.64477   0.65870   0.66572   0.67373
 Alpha virt. eigenvalues --    0.67950   0.68637   0.69301   0.70170   0.70816
 Alpha virt. eigenvalues --    0.70858   0.72359   0.72639   0.73049   0.74240
 Alpha virt. eigenvalues --    0.74294   0.76418   0.76919   0.77721   0.78086
 Alpha virt. eigenvalues --    0.79599   0.80423   0.81768   0.82762   0.83565
 Alpha virt. eigenvalues --    0.84547   0.85356   0.86319   0.87918   0.88482
 Alpha virt. eigenvalues --    0.88695   0.89160   0.93214   0.96026   0.97162
 Alpha virt. eigenvalues --    0.97747   0.99152   1.00817   1.02657   1.03894
 Alpha virt. eigenvalues --    1.06756   1.08473   1.08713   1.10587   1.10667
 Alpha virt. eigenvalues --    1.11813   1.13922   1.16176   1.16776   1.18088
 Alpha virt. eigenvalues --    1.19260   1.19583   1.20628   1.21400   1.22498
 Alpha virt. eigenvalues --    1.22966   1.26637   1.26857   1.27701   1.28688
 Alpha virt. eigenvalues --    1.33759   1.33766   1.35327   1.35998   1.37625
 Alpha virt. eigenvalues --    1.39432   1.39943   1.41678   1.43572   1.45842
 Alpha virt. eigenvalues --    1.47306   1.47538   1.49160   1.52347   1.53130
 Alpha virt. eigenvalues --    1.55227   1.55908   1.59333   1.62595   1.62602
 Alpha virt. eigenvalues --    1.62855   1.64416   1.68959   1.73165   1.73372
 Alpha virt. eigenvalues --    1.76828   1.78852   1.81797   1.82495   1.83586
 Alpha virt. eigenvalues --    1.84771   1.85055   1.88625   1.90511   1.90703
 Alpha virt. eigenvalues --    1.92464   1.92484   1.93955   1.94915   1.95607
 Alpha virt. eigenvalues --    2.00199   2.02360   2.03033   2.06121   2.07058
 Alpha virt. eigenvalues --    2.09809   2.10065   2.10660   2.13750   2.17249
 Alpha virt. eigenvalues --    2.18096   2.18710   2.20457   2.21208   2.21777
 Alpha virt. eigenvalues --    2.22506   2.23379   2.25101   2.26510   2.27166
 Alpha virt. eigenvalues --    2.27323   2.27906   2.29420   2.30436   2.32564
 Alpha virt. eigenvalues --    2.34026   2.34766   2.40704   2.43623   2.50285
 Alpha virt. eigenvalues --    2.50553   2.54270   2.56244   2.56517   2.59002
 Alpha virt. eigenvalues --    2.59308   2.60538   2.62682   2.63804   2.64367
 Alpha virt. eigenvalues --    2.85195   2.86557   2.86584   2.87211   2.96720
 Alpha virt. eigenvalues --    2.98346   2.98509   2.99707   3.03268   3.03686
 Alpha virt. eigenvalues --    3.04983   3.05714   3.21386   3.31605   3.61873
 Alpha virt. eigenvalues --    3.62189   3.62793   3.65591   3.66461   3.67408
 Alpha virt. eigenvalues --    3.67538   3.68490   3.72164   3.87230
          Condensed to atoms (all electrons):
 Mulliken charges:
               1
     1  S    2.177349
     2  C    0.069712
     3  O   -1.210591
     4  O   -1.210591
     5  H   -0.072881
     6  H   -0.009213
     7  H   -0.072882
     8  Si   1.098430
     9  C    0.512930
    10  H   -0.242780
    11  H   -0.242779
    12  C    0.505293
    13  H   -0.271587
    14  H   -0.201955
    15  H   -0.288836
    16  C    0.505291
    17  H   -0.201955
    18  H   -0.271584
    19  H   -0.288836
    20  H   -0.282535
 Sum of Mulliken charges =  -0.00000
 Mulliken charges with hydrogens summed into heavy atoms:
               1
     1  S    2.177349
     2  C   -0.085263
     3  O   -1.210591
     4  O   -1.210591
     8  Si   1.098430
     9  C   -0.255163
    12  C   -0.257086
    16  C   -0.257085
 Electronic spatial extent (au):  <R**2>=           1417.5269
 Charge=              0.0000 electrons
 Dipole moment (field-independent basis, Debye):
    X=              4.1804    Y=             -4.5147    Z=             -0.0000  Tot=              6.1529

 Test job not archived.
 1\1\GINC-SE058\SP\RHF\Aug-CC-pVDZ\C4H12O2S1Si1\OHZDE\09-Apr-2025\0\\#t
  hf aug-cc-pvdz iop(5/13=1,5/36=2,99/5=2) pseudo=read geom=check guess
 =(read,tcheck) scf=(maxcycle=1)\\title\\0,1\S,0,1.136732,0.207667,-0.0
 00002\C,0,1.923462,-1.421352,0.000003\O,0,1.502579,0.845485,1.267188\O
 ,0,1.502576,0.845476,-1.267198\H,0,1.639101,-1.961929,0.902584\H,0,2.9
 97285,-1.225114,0.000002\H,0,1.6391,-1.961936,-0.902573\Si,0,-1.108501
 ,-0.05948,0.000001\C,0,-1.703199,1.71142,0.000005\H,0,-1.341753,2.2409
 02,-0.884425\H,0,-1.341751,2.240899,0.884436\C,0,-1.566845,-0.983902,1
 .563223\H,0,-2.655844,-1.01897,1.671874\H,0,-1.154238,-0.481315,2.4411
 84\H,0,-1.201944,-2.014379,1.553591\C,0,-1.566849,-0.983898,-1.563222\
 H,0,-1.154244,-0.481308,-2.441182\H,0,-2.655849,-1.018966,-1.67187\H,0
 ,-1.201948,-2.014375,-1.553593\H,0,-2.797265,1.745234,0.000006\\Versio
 n=ES64L-G16RevC.01\State=1-A\HF=-994.8381958\RMSD=5.397e-03\Dipole=-1.
 6447059,-1.7762108,0.0000091\Quadrupole=1.9220127,1.5655132,-3.4875259
 ,-6.4063623,0.0000209,-0.0000094\PG=C01 [X(C4H12O2S1Si1)]\\@


 THE REAL VOYAGE OF DISCOVERY CONSISTS NOT IN SEEKING NEW LANDSCAPES 
 BUT IN HAVING NEW EYES.
                                                    -- MARCEL PROUST
 Job cpu time:       0 days  0 hours  2 minutes 34.8 seconds.
 Elapsed time:       0 days  0 hours  0 minutes 11.1 seconds.
 File lengths (MBytes):  RWF=     15 Int=      0 D2E=      0 Chk=     13 Scr=      1
 Normal termination of Gaussian 16 at Wed Apr  9 00:16:08 2025.
