 Entering Gaussian System, Link 0=g16
 Input=BDE49_expt_818_mol1.gjf
 Output=BDE49_expt_818_mol1.log
 Initial command:
 /arc/software/Gaussian/g16.c01/l1.exe "/tmp/slurm/4843568/Gau-939262.inp" -scrdir="/tmp/slurm/4843568/"
 Entering Link 1 = /arc/software/Gaussian/g16.c01/l1.exe PID=    939263.
  
 Copyright (c) 1988-2019, Gaussian, Inc.  All Rights Reserved.
  
 This is part of the Gaussian(R) 16 program.  It is based on
 the Gaussian(R) 09 system (copyright 2009, Gaussian, Inc.),
 the Gaussian(R) 03 system (copyright 2003, Gaussian, Inc.),
 the Gaussian(R) 98 system (copyright 1998, Gaussian, Inc.),
 the Gaussian(R) 94 system (copyright 1995, Gaussian, Inc.),
 the Gaussian 92(TM) system (copyright 1992, Gaussian, Inc.),
 the Gaussian 90(TM) system (copyright 1990, Gaussian, Inc.),
 the Gaussian 88(TM) system (copyright 1988, Gaussian, Inc.),
 the Gaussian 86(TM) system (copyright 1986, Carnegie Mellon
 University), and the Gaussian 82(TM) system (copyright 1983,
 Carnegie Mellon University). Gaussian is a federally registered
 trademark of Gaussian, Inc.
  
 This software contains proprietary and confidential information,
 including trade secrets, belonging to Gaussian, Inc.
  
 This software is provided under written license and may be
 used, copied, transmitted, or stored only in accord with that
 written license.
  
 The following legend is applicable only to US Government
 contracts under FAR:
  
                    RESTRICTED RIGHTS LEGEND
  
 Use, reproduction and disclosure by the US Government is
 subject to restrictions as set forth in subparagraphs (a)
 and (c) of the Commercial Computer Software - Restricted
 Rights clause in FAR 52.227-19.
  
 Gaussian, Inc.
 340 Quinnipiac St., Bldg. 40, Wallingford CT 06492
  
  
 ---------------------------------------------------------------
 Warning -- This program may not be used in any manner that
 competes with the business of Gaussian, Inc. or will provide
 assistance to any competitor of Gaussian, Inc.  The licensee
 of this program is prohibited from giving any competitor of
 Gaussian, Inc. access to this program.  By using this program,
 the user acknowledges that Gaussian, Inc. is engaged in the
 business of creating and licensing software in the field of
 computational chemistry and represents and warrants to the
 licensee that it is not a competitor of Gaussian, Inc. and that
 it will not use this program in any manner prohibited above.
 ---------------------------------------------------------------
  

 Cite this work as:
 Gaussian 16, Revision C.01,
 M. J. Frisch, G. W. Trucks, H. B. Schlegel, G. E. Scuseria, 
 M. A. Robb, J. R. Cheeseman, G. Scalmani, V. Barone, 
 G. A. Petersson, H. Nakatsuji, X. Li, M. Caricato, A. V. Marenich, 
 J. Bloino, B. G. Janesko, R. Gomperts, B. Mennucci, H. P. Hratchian, 
 J. V. Ortiz, A. F. Izmaylov, J. L. Sonnenberg, D. Williams-Young, 
 F. Ding, F. Lipparini, F. Egidi, J. Goings, B. Peng, A. Petrone, 
 T. Henderson, D. Ranasinghe, V. G. Zakrzewski, J. Gao, N. Rega, 
 G. Zheng, W. Liang, M. Hada, M. Ehara, K. Toyota, R. Fukuda, 
 J. Hasegawa, M. Ishida, T. Nakajima, Y. Honda, O. Kitao, H. Nakai, 
 T. Vreven, K. Throssell, J. A. Montgomery, Jr., J. E. Peralta, 
 F. Ogliaro, M. J. Bearpark, J. J. Heyd, E. N. Brothers, K. N. Kudin, 
 V. N. Staroverov, T. A. Keith, R. Kobayashi, J. Normand, 
 K. Raghavachari, A. P. Rendell, J. C. Burant, S. S. Iyengar, 
 J. Tomasi, M. Cossi, J. M. Millam, M. Klene, C. Adamo, R. Cammi, 
 J. W. Ochterski, R. L. Martin, K. Morokuma, O. Farkas, 
 J. B. Foresman, and D. J. Fox, Gaussian, Inc., Wallingford CT, 2019.
 
 ******************************************
 Gaussian 16:  ES64L-G16RevC.01  3-Jul-2019
                 8-Apr-2025 
 ******************************************
 %nprocs=16
 Will use up to   16 processors via shared memory.
 %mem=30GB
 %chk=BDE49_expt_818_mol1.chk
 ----------------------------------------------------------------------
 #t hf aug-cc-pvdz symm=none int=(grid=ultrafine) guess=(read,tcheck) s
 table=(opt,rrhf)
 ----------------------------------------------------------------------
 -----
 title
 -----
 Symbolic Z-matrix:
 Charge =  0 Multiplicity = 1
 P                     1.14321  -0.19878  -0.11328 
 H                     1.96222   0.90574   0.24232 
 C                    -0.51707   0.66203   0.04504 
 H                     1.18668  -0.75797   1.19227 
 C                    -1.68263  -0.33203  -0.01461 
 H                    -0.58138   1.36227  -0.79374 
 H                    -0.56234   1.25304   0.96203 
 H                    -1.65626  -0.9238   -0.93388 
 H                    -2.64267   0.19066   0.01903 
 H                    -1.6562   -1.02826   0.82865 
 
                    Distance matrix (angstroms):
                    1          2          3          4          5
     1  P    0.000000
     2  H    1.420279   0.000000
     3  C    1.876849   2.499031   0.000000
     4  H    1.420931   2.066827   2.497053   0.000000
     5  C    2.830699   3.857850   1.533057   3.141798   0.000000
     6  H    2.423653   2.784191   1.094540   3.400832   2.165751
     7  H    2.484546   2.648013   1.091888   2.675114   2.172864
     8  H    3.006008   4.221859   2.184243   3.553917   1.093594
     9  H    3.808155   4.665426   2.177400   4.115857   1.093624
    10  H    3.067895   4.144525   2.183749   2.878758   1.093851
                    6          7          8          9         10
     6  H    0.000000
     7  H    1.759263   0.000000
     8  H    2.530052   3.087037   0.000000
     9  H    2.506436   2.519065   1.767218   0.000000
    10  H    3.082536   2.533507   1.765623   1.764751   0.000000
 Symmetry turned off by external request.
 Rotational constants (GHZ):          25.8956686           5.0121094           4.5755919
   136 basis functions,   244 primitive gaussians,   142 cartesian basis functions
    17 alpha electrons       17 beta electrons
       nuclear repulsion energy       109.9797290702 Hartrees.
 NAtoms=   10 NActive=   10 NUniq=   10 SFac= 1.00D+00 NAtFMM=   60 NAOKFM=F Big=F
 ExpMin= 2.97D-02 ExpMax= 9.48D+04 ExpMxC= 3.24D+03 IAcc=3 IRadAn=         5 AccDes= 0.00D+00
 Harris functional with IExCor=  205 and IRadAn=       5 diagonalized for initial guess.
 HarFok:  IExCor=  205 AccDes= 0.00D+00 IRadAn=         5 IDoV= 1 UseB2=F ITyADJ=14
 ICtDFT=  3500011 ScaDFX=  1.000000  1.000000  1.000000  1.000000
 FoFCou: FMM=F IPFlag=           0 FMFlag=      100000 FMFlg1=           0
         NFxFlg=           0 DoJE=T BraDBF=F KetDBF=T FulRan=T
         wScrn=  0.000000 ICntrl=       500 IOpCl=  0 I1Cent=   200000004 NGrid=           0
         NMat0=    1 NMatS0=      1 NMatT0=    0 NMatD0=    1 NMtDS0=    0 NMtDT0=    0
 Symmetry not used in FoFCou.
 SCF Done:  E(RHF) =  -420.549101513     A.U. after   12 cycles
            NFock= 12  Conv=0.48D-08     -V/T= 2.0005

 **********************************************************************

            Population analysis using the SCF Density.

 **********************************************************************

 Alpha  occ. eigenvalues --  -79.94455 -11.24155 -11.23116  -7.48458  -5.37864
 Alpha  occ. eigenvalues --   -5.37849  -5.37691  -1.03845  -0.88212  -0.77870
 Alpha  occ. eigenvalues --   -0.61839  -0.58860  -0.53370  -0.50786  -0.48524
 Alpha  occ. eigenvalues --   -0.45282  -0.35881
 Alpha virt. eigenvalues --    0.03561   0.04833   0.04955   0.05417   0.07040
 Alpha virt. eigenvalues --    0.07757   0.08128   0.10348   0.10831   0.12267
 Alpha virt. eigenvalues --    0.14297   0.15678   0.16263   0.16731   0.16992
 Alpha virt. eigenvalues --    0.17836   0.18677   0.19709   0.20812   0.22432
 Alpha virt. eigenvalues --    0.25495   0.26560   0.29196   0.30574   0.31334
 Alpha virt. eigenvalues --    0.32597   0.36143   0.37780   0.39111   0.40034
 Alpha virt. eigenvalues --    0.41557   0.43229   0.43885   0.44759   0.46054
 Alpha virt. eigenvalues --    0.46683   0.47164   0.48170   0.50772   0.51381
 Alpha virt. eigenvalues --    0.52381   0.54291   0.55531   0.56602   0.57229
 Alpha virt. eigenvalues --    0.58663   0.59184   0.59389   0.60924   0.62566
 Alpha virt. eigenvalues --    0.63379   0.63888   0.66330   0.68511   0.70653
 Alpha virt. eigenvalues --    0.71832   0.74714   0.75155   0.76200   0.77713
 Alpha virt. eigenvalues --    0.78502   0.80351   0.86822   0.90639   0.93871
 Alpha virt. eigenvalues --    0.97513   0.99712   1.01238   1.02718   1.05118
 Alpha virt. eigenvalues --    1.08998   1.10234   1.11682   1.14528   1.20347
 Alpha virt. eigenvalues --    1.23900   1.25795   1.27610   1.33108   1.37555
 Alpha virt. eigenvalues --    1.42580   1.47818   1.54316   1.56512   1.59871
 Alpha virt. eigenvalues --    1.67113   1.77965   1.80419   1.84491   1.90303
 Alpha virt. eigenvalues --    1.91093   1.93384   1.97927   2.01149   2.01368
 Alpha virt. eigenvalues --    2.03571   2.08314   2.10244   2.12784   2.15045
 Alpha virt. eigenvalues --    2.23825   2.25323   2.25783   2.27018   2.32118
 Alpha virt. eigenvalues --    2.36545   2.37800   2.43976   2.48374   2.51156
 Alpha virt. eigenvalues --    2.59970   2.68968   2.69798   2.85999   2.89726
 Alpha virt. eigenvalues --    2.93956   3.02282   3.07361   3.12951
          Condensed to atoms (all electrons):
 Mulliken charges:
               1
     1  P   -0.083422
     2  H    0.198420
     3  C   -0.154410
     4  H    0.201328
     5  C    0.316255
     6  H   -0.110591
     7  H   -0.133899
     8  H   -0.070048
     9  H   -0.075165
    10  H   -0.088468
 Sum of Mulliken charges =  -0.00000
 Mulliken charges with hydrogens summed into heavy atoms:
               1
     1  P    0.316327
     3  C   -0.398901
     5  C    0.082574
 Electronic spatial extent (au):  <R**2>=            322.7664
 Charge=             -0.0000 electrons
 Dipole moment (field-independent basis, Debye):
    X=             -0.8996    Y=              0.7806    Z=              0.6517  Tot=              1.3577
 NROrb=    136 NOA=    17 NOB=    17 NVA=   119 NVB=   119

 **** Warning!!: The largest alpha MO coefficient is  0.25884310D+02

    12 initial guesses have been made.
 Iteration     1 Dimension    12 NMult     0 NNew     12
 Iteration     2 Dimension    24 NMult    12 NNew     12
 Iteration     3 Dimension    27 NMult    24 NNew      3
 Iteration     4 Dimension    30 NMult    27 NNew      3
 Iteration     5 Dimension    33 NMult    30 NNew      3
 ***********************************************************************
 Stability analysis using <AA,BB:AA,BB> singles matrix:
 ***********************************************************************
 Ground to excited state transition densities written to RWF  633

 Eigenvectors of the stability matrix:
 
 Excited state symmetry could not be determined.
 Eigenvector   1:      Singlet-?Sym  Eigenvalue= 0.2497608  <S**2>=0.000
      17 -> 18         0.51107
      17 -> 19        -0.22865
      17 -> 21         0.11613
      17 -> 22         0.17653
      17 -> 25        -0.15742
      17 -> 27        -0.19176
      17 -> 31        -0.16176
 The wavefunction is stable under the perturbations considered.
 The wavefunction is already stable.

 **********************************************************************

            Population analysis using the SCF Density.

 **********************************************************************

 Alpha  occ. eigenvalues --  -79.94455 -11.24155 -11.23116  -7.48458  -5.37864
 Alpha  occ. eigenvalues --   -5.37849  -5.37691  -1.03845  -0.88212  -0.77870
 Alpha  occ. eigenvalues --   -0.61839  -0.58860  -0.53370  -0.50786  -0.48524
 Alpha  occ. eigenvalues --   -0.45282  -0.35881
 Alpha virt. eigenvalues --    0.03561   0.04833   0.04955   0.05417   0.07040
 Alpha virt. eigenvalues --    0.07757   0.08128   0.10348   0.10831   0.12267
 Alpha virt. eigenvalues --    0.14297   0.15678   0.16263   0.16731   0.16992
 Alpha virt. eigenvalues --    0.17836   0.18677   0.19709   0.20812   0.22432
 Alpha virt. eigenvalues --    0.25495   0.26560   0.29196   0.30574   0.31334
 Alpha virt. eigenvalues --    0.32597   0.36143   0.37780   0.39111   0.40034
 Alpha virt. eigenvalues --    0.41557   0.43229   0.43885   0.44759   0.46054
 Alpha virt. eigenvalues --    0.46683   0.47164   0.48170   0.50772   0.51381
 Alpha virt. eigenvalues --    0.52381   0.54291   0.55531   0.56602   0.57229
 Alpha virt. eigenvalues --    0.58663   0.59184   0.59389   0.60924   0.62566
 Alpha virt. eigenvalues --    0.63379   0.63888   0.66330   0.68511   0.70653
 Alpha virt. eigenvalues --    0.71832   0.74714   0.75155   0.76200   0.77713
 Alpha virt. eigenvalues --    0.78502   0.80351   0.86822   0.90639   0.93871
 Alpha virt. eigenvalues --    0.97513   0.99712   1.01238   1.02718   1.05118
 Alpha virt. eigenvalues --    1.08998   1.10234   1.11682   1.14528   1.20347
 Alpha virt. eigenvalues --    1.23900   1.25795   1.27610   1.33108   1.37555
 Alpha virt. eigenvalues --    1.42580   1.47818   1.54316   1.56512   1.59871
 Alpha virt. eigenvalues --    1.67113   1.77965   1.80419   1.84491   1.90303
 Alpha virt. eigenvalues --    1.91093   1.93384   1.97927   2.01149   2.01368
 Alpha virt. eigenvalues --    2.03571   2.08314   2.10244   2.12784   2.15045
 Alpha virt. eigenvalues --    2.23825   2.25323   2.25783   2.27018   2.32118
 Alpha virt. eigenvalues --    2.36545   2.37800   2.43976   2.48374   2.51156
 Alpha virt. eigenvalues --    2.59970   2.68968   2.69798   2.85999   2.89726
 Alpha virt. eigenvalues --    2.93956   3.02282   3.07361   3.12951
          Condensed to atoms (all electrons):
 Mulliken charges:
               1
     1  P   -0.083422
     2  H    0.198420
     3  C   -0.154410
     4  H    0.201328
     5  C    0.316255
     6  H   -0.110591
     7  H   -0.133899
     8  H   -0.070048
     9  H   -0.075165
    10  H   -0.088468
 Sum of Mulliken charges =  -0.00000
 Mulliken charges with hydrogens summed into heavy atoms:
               1
     1  P    0.316327
     3  C   -0.398901
     5  C    0.082574
 Electronic spatial extent (au):  <R**2>=            322.7664
 Charge=             -0.0000 electrons
 Dipole moment (field-independent basis, Debye):
    X=             -0.8996    Y=              0.7806    Z=              0.6517  Tot=              1.3577
 Unable to Open any file for archive entry.
 1\1\GINC-SE339\Stability\RHF\Aug-CC-pVDZ\C2H7P1\OHZDE\08-Apr-2025\0\\#
 t hf aug-cc-pvdz symm=none int=(grid=ultrafine) guess=(read,tcheck) st
 able=(opt,rrhf)\\title\\0,1\P,0,1.143208,-0.198778,-0.113283\H,0,1.962
 217,0.90574,0.242324\C,0,-0.517065,0.662031,0.045035\H,0,1.186678,-0.7
 57966,1.192268\C,0,-1.68263,-0.332034,-0.014607\H,0,-0.581377,1.362272
 ,-0.79374\H,0,-0.562339,1.253044,0.962026\H,0,-1.656264,-0.923804,-0.9
 33879\H,0,-2.642671,0.190655,0.019033\H,0,-1.656203,-1.028256,0.828652
 \\Version=ES64L-G16RevC.01\HF=-420.5491015\RMSD=4.772e-09\Dipole=-0.35
 39413,0.3070938,0.2564135\Quadrupole=-0.1017252,0.1912258,-0.0895007,0
 .6314071,0.9049238,-0.8939714\PG=Unknown\\@
 The archive entry for this job was punched.


    WHAT WE HAVE LEARNED
 IS LIKE A HANDFUL OF EARTH;
  WHAT WE HAVE YET TO LEARN
   IS LIKE THE WHOLE WORLD.

         -- AVVAYIAR
 Job cpu time:       0 days  0 hours  0 minutes 33.4 seconds.
 Elapsed time:       0 days  0 hours  0 minutes  3.8 seconds.
 File lengths (MBytes):  RWF=    111 Int=      0 D2E=      0 Chk=      3 Scr=      1
 Normal termination of Gaussian 16 at Tue Apr  8 23:10:44 2025.
 Initial command:
 /arc/software/Gaussian/g16.c01/l1.exe "/tmp/slurm/4843568/Gau-939262.inp" -scrdir="/tmp/slurm/4843568/"
 Entering Link 1 = /arc/software/Gaussian/g16.c01/l1.exe PID=    939474.
  
 Copyright (c) 1988-2019, Gaussian, Inc.  All Rights Reserved.
  
 This is part of the Gaussian(R) 16 program.  It is based on
 the Gaussian(R) 09 system (copyright 2009, Gaussian, Inc.),
 the Gaussian(R) 03 system (copyright 2003, Gaussian, Inc.),
 the Gaussian(R) 98 system (copyright 1998, Gaussian, Inc.),
 the Gaussian(R) 94 system (copyright 1995, Gaussian, Inc.),
 the Gaussian 92(TM) system (copyright 1992, Gaussian, Inc.),
 the Gaussian 90(TM) system (copyright 1990, Gaussian, Inc.),
 the Gaussian 88(TM) system (copyright 1988, Gaussian, Inc.),
 the Gaussian 86(TM) system (copyright 1986, Carnegie Mellon
 University), and the Gaussian 82(TM) system (copyright 1983,
 Carnegie Mellon University). Gaussian is a federally registered
 trademark of Gaussian, Inc.
  
 This software contains proprietary and confidential information,
 including trade secrets, belonging to Gaussian, Inc.
  
 This software is provided under written license and may be
 used, copied, transmitted, or stored only in accord with that
 written license.
  
 The following legend is applicable only to US Government
 contracts under FAR:
  
                    RESTRICTED RIGHTS LEGEND
  
 Use, reproduction and disclosure by the US Government is
 subject to restrictions as set forth in subparagraphs (a)
 and (c) of the Commercial Computer Software - Restricted
 Rights clause in FAR 52.227-19.
  
 Gaussian, Inc.
 340 Quinnipiac St., Bldg. 40, Wallingford CT 06492
  
  
 ---------------------------------------------------------------
 Warning -- This program may not be used in any manner that
 competes with the business of Gaussian, Inc. or will provide
 assistance to any competitor of Gaussian, Inc.  The licensee
 of this program is prohibited from giving any competitor of
 Gaussian, Inc. access to this program.  By using this program,
 the user acknowledges that Gaussian, Inc. is engaged in the
 business of creating and licensing software in the field of
 computational chemistry and represents and warrants to the
 licensee that it is not a competitor of Gaussian, Inc. and that
 it will not use this program in any manner prohibited above.
 ---------------------------------------------------------------
  

 Cite this work as:
 Gaussian 16, Revision C.01,
 M. J. Frisch, G. W. Trucks, H. B. Schlegel, G. E. Scuseria, 
 M. A. Robb, J. R. Cheeseman, G. Scalmani, V. Barone, 
 G. A. Petersson, H. Nakatsuji, X. Li, M. Caricato, A. V. Marenich, 
 J. Bloino, B. G. Janesko, R. Gomperts, B. Mennucci, H. P. Hratchian, 
 J. V. Ortiz, A. F. Izmaylov, J. L. Sonnenberg, D. Williams-Young, 
 F. Ding, F. Lipparini, F. Egidi, J. Goings, B. Peng, A. Petrone, 
 T. Henderson, D. Ranasinghe, V. G. Zakrzewski, J. Gao, N. Rega, 
 G. Zheng, W. Liang, M. Hada, M. Ehara, K. Toyota, R. Fukuda, 
 J. Hasegawa, M. Ishida, T. Nakajima, Y. Honda, O. Kitao, H. Nakai, 
 T. Vreven, K. Throssell, J. A. Montgomery, Jr., J. E. Peralta, 
 F. Ogliaro, M. J. Bearpark, J. J. Heyd, E. N. Brothers, K. N. Kudin, 
 V. N. Staroverov, T. A. Keith, R. Kobayashi, J. Normand, 
 K. Raghavachari, A. P. Rendell, J. C. Burant, S. S. Iyengar, 
 J. Tomasi, M. Cossi, J. M. Millam, M. Klene, C. Adamo, R. Cammi, 
 J. W. Ochterski, R. L. Martin, K. Morokuma, O. Farkas, 
 J. B. Foresman, and D. J. Fox, Gaussian, Inc., Wallingford CT, 2019.
 
 ******************************************
 Gaussian 16:  ES64L-G16RevC.01  3-Jul-2019
                 8-Apr-2025 
 ******************************************
 %nprocs=16
 Will use up to   16 processors via shared memory.
 %mem=30GB
 %chk=BDE49_expt_818_mol1.chk
 ----------------------------------------------------------------------
 #t hf aug-cc-pvdz iop(5/13=1,5/36=2,99/5=2) pseudo=read geom=check gue
 ss=(read,tcheck) scf=(maxcycle=1)
 ----------------------------------------------------------------------
 -----
 title
 -----
 Structure from the checkpoint file:  "BDE49_expt_818_mol1.chk"
 Charge =  0 Multiplicity = 1
 Z-Matrix found in chk file.
 P,0,1.143208,-0.198778,-0.113283
 H,0,1.962217,0.90574,0.242324
 C,0,-0.517065,0.662031,0.045035
 H,0,1.186678,-0.757966,1.192268
 C,0,-1.68263,-0.332034,-0.014607
 H,0,-0.581377,1.362272,-0.79374
 H,0,-0.562339,1.253044,0.962026
 H,0,-1.656264,-0.923804,-0.933879
 H,0,-2.642671,0.190655,0.019033
 H,0,-1.656203,-1.028256,0.828652
 Recover connectivity data from disk.
                    Distance matrix (angstroms):
                    1          2          3          4          5
     1  P    0.000000
     2  H    1.420279   0.000000
     3  C    1.876849   2.499031   0.000000
     4  H    1.420931   2.066827   2.497053   0.000000
     5  C    2.830699   3.857850   1.533057   3.141798   0.000000
     6  H    2.423653   2.784191   1.094540   3.400832   2.165751
     7  H    2.484546   2.648013   1.091888   2.675114   2.172864
     8  H    3.006008   4.221859   2.184243   3.553917   1.093594
     9  H    3.808155   4.665426   2.177400   4.115857   1.093624
    10  H    3.067895   4.144525   2.183749   2.878758   1.093851
                    6          7          8          9         10
     6  H    0.000000
     7  H    1.759263   0.000000
     8  H    2.530052   3.087037   0.000000
     9  H    2.506436   2.519065   1.767218   0.000000
    10  H    3.082536   2.533507   1.765623   1.764751   0.000000
 Framework group  C1[X(C2H7P)]
 Deg. of freedom    24
                         Standard orientation:                         
 ---------------------------------------------------------------------
 Center     Atomic      Atomic             Coordinates (Angstroms)
 Number     Number       Type             X           Y           Z
 ---------------------------------------------------------------------
      1         15           0        1.143208   -0.198778   -0.113283
      2          1           0        1.962217    0.905741    0.242324
      3          6           0       -0.517065    0.662031    0.045035
      4          1           0        1.186678   -0.757966    1.192268
      5          6           0       -1.682630   -0.332034   -0.014607
      6          1           0       -0.581377    1.362272   -0.793740
      7          1           0       -0.562339    1.253044    0.962026
      8          1           0       -1.656263   -0.923804   -0.933879
      9          1           0       -2.642671    0.190654    0.019033
     10          1           0       -1.656202   -1.028256    0.828652
 ---------------------------------------------------------------------
 Rotational constants (GHZ):          25.8956686           5.0121094           4.5755919
 ======================================================================================================
                                       Pseudopotential Parameters
 ======================================================================================================
  Center     Atomic      Valence      Angular      Power
  Number     Number     Electrons     Momentum     of R      Exponent        Coefficient   SO-Coeffient
 ======================================================================================================
    1         15           15
                                      G and up 
                                                     0        0.0000010       -0.00062372    0.00000000
                                                     2        0.1200000        0.00273916    0.00000000
                                                     2        0.2400000       -0.02611253    0.00000000
                                                     2        0.4000000        0.07232031    0.00000000
                                                     2        0.7000000       -0.06738836    0.00000000
                                      S - G
                                                     0        0.0000010       -0.00171363    0.00000000
                                                     2        0.1200000       -0.11685950    0.00000000
                                                     2        0.2800000        0.73039551    0.00000000
                                                     2        0.7000000       -0.90461142    0.00000000
                                      P - G
                                                     0        0.0000010        0.09721278    0.00000000
                                                     2        0.1200000       -0.06687267    0.00000000
                                                     2        0.2400000        0.13955791    0.00000000
                                                     2        0.5000000       -0.14332004    0.00000000
                                                     2        0.8000000       -0.51825462    0.00000000
                                      D - G
                                                     0        0.0000010        0.13706773    0.00000000
                                                     2        0.1200000       -0.21285032    0.00000000
                                                     2        0.1800000        0.42861808    0.00000000
                                                     2        0.4000000       -1.01836828    0.00000000
                                                     2        1.0000000        2.21973069    0.00000000
                                      F - G
                                                     0        0.0000010       -0.11663732    0.00000000
                                                     2        0.1200000        0.14816215    0.00000000
                                                     2        0.1600000       -0.15649736    0.00000000
    2          1            1
                                      F and up 
                                                     0        0.0000010       -0.00000699    0.00000000
                                                     2        0.1200000        0.00123686    0.00000000
                                                     2        0.1800000       -0.00752022    0.00000000
                                                     2        0.2600000        0.02503380    0.00000000
                                                     2        0.4000000       -0.08702670    0.00000000
                                                     2        0.6000000        0.30134159    0.00000000
                                                     2        0.8000000       -0.50204959    0.00000000
                                                     2        1.2000000        0.52208372    0.00000000
                                      S - F
                                                     0        0.0000010       -0.01618346    0.00000000
                                                     2        0.1200000       -0.07880581    0.00000000
                                                     2        0.1600000        0.32040539    0.00000000
                                                     2        0.2400000       -0.47500956    0.00000000
                                                     2        0.5000000        0.54013668    0.00000000
                                                     2        1.5000000       -1.40434292    0.00000000
                                                     2        3.0000000        1.46283806    0.00000000
                                      P - F
                                                     0        0.0000010        0.00612970    0.00000000
                                                     2        0.1200000        0.02254406    0.00000000
                                                     2        0.1800000       -0.13874529    0.00000000
                                                     2        0.3000000        0.38299049    0.00000000
                                                     2        0.5000000       -0.57923512    0.00000000
                                                     2        1.0000000        0.63021625    0.00000000
                                                     2        2.0000000       -0.79201034    0.00000000
                                      D - F
                                                     0        0.0000010       -0.00296226    0.00000000
                                                     2        0.1200000       -0.00547344    0.00000000
                                                     2        0.1400000        0.01837884    0.00000000
                                                     2        0.2400000       -0.05565704    0.00000000
                                                     2        0.4000000        0.15376597    0.00000000
                                                     2        0.8000000       -0.32464795    0.00000000
    3          6            6
                                      G and up 
                                                     0        0.0000010       -0.00011185    0.00000000
                                                     2        0.1200000       -0.02301220    0.00000000
                                                     2        0.1400000        0.13317600    0.00000000
                                                     2        0.1600000       -0.19690668    0.00000000
                                                     2        0.2200000        0.23163694    0.00000000
                                                     2        0.3000000       -0.36920489    0.00000000
                                                     2        0.4000000        0.36389709    0.00000000
                                                     2        0.7000000       -0.38862160    0.00000000
                                                     2        1.3000000        0.80803421    0.00000000
                                      S - G
                                                     0        0.0000010        0.00312304    0.00000000
                                                     2        0.1200000       -0.00632892    0.00000000
                                                     2        0.2200000       -0.03780897    0.00000000
                                                     2        0.4000000        0.26269560    0.00000000
                                                     2        0.9000000       -0.28209514    0.00000000
                                                     2        1.5000000       -0.72686737    0.00000000
                                      P - G
                                                     0        0.0000010       -0.01465594    0.00000000
                                                     2        0.1200000        0.07908409    0.00000000
                                                     2        0.1800000       -0.30615861    0.00000000
                                                     2        0.2600000        0.41506950    0.00000000
                                                     2        0.5000000       -0.36252345    0.00000000
                                                     2        0.9000000        0.15124193    0.00000000
                                                     2        3.0000000       -0.80425677    0.00000000
                                      D - G
                                                     0        0.0000010        0.01149631    0.00000000
                                                     2        0.1200000       -0.04713561    0.00000000
                                                     2        0.1600000        0.10865096    0.00000000
                                                     2        0.2800000       -0.15816701    0.00000000
                                                     2        0.7000000        0.65478804    0.00000000
                                                     2        1.3000000       -1.73816624    0.00000000
                                      F - G
                                                     0        0.0000010        0.00481868    0.00000000
                                                     2        0.1200000       -0.04746842    0.00000000
                                                     2        0.1600000        0.09327889    0.00000000
                                                     2        0.4000000       -0.19693326    0.00000000
                                                     2        0.9000000        0.34938253    0.00000000
    4          1            1
                                      F and up 
                                                     0        0.0000010       -0.00000699    0.00000000
                                                     2        0.1200000        0.00123686    0.00000000
                                                     2        0.1800000       -0.00752022    0.00000000
                                                     2        0.2600000        0.02503380    0.00000000
                                                     2        0.4000000       -0.08702670    0.00000000
                                                     2        0.6000000        0.30134159    0.00000000
                                                     2        0.8000000       -0.50204959    0.00000000
                                                     2        1.2000000        0.52208372    0.00000000
                                      S - F
                                                     0        0.0000010       -0.01618346    0.00000000
                                                     2        0.1200000       -0.07880581    0.00000000
                                                     2        0.1600000        0.32040539    0.00000000
                                                     2        0.2400000       -0.47500956    0.00000000
                                                     2        0.5000000        0.54013668    0.00000000
                                                     2        1.5000000       -1.40434292    0.00000000
                                                     2        3.0000000        1.46283806    0.00000000
                                      P - F
                                                     0        0.0000010        0.00612970    0.00000000
                                                     2        0.1200000        0.02254406    0.00000000
                                                     2        0.1800000       -0.13874529    0.00000000
                                                     2        0.3000000        0.38299049    0.00000000
                                                     2        0.5000000       -0.57923512    0.00000000
                                                     2        1.0000000        0.63021625    0.00000000
                                                     2        2.0000000       -0.79201034    0.00000000
                                      D - F
                                                     0        0.0000010       -0.00296226    0.00000000
                                                     2        0.1200000       -0.00547344    0.00000000
                                                     2        0.1400000        0.01837884    0.00000000
                                                     2        0.2400000       -0.05565704    0.00000000
                                                     2        0.4000000        0.15376597    0.00000000
                                                     2        0.8000000       -0.32464795    0.00000000
    5          6            6
                                      G and up 
                                                     0        0.0000010       -0.00011185    0.00000000
                                                     2        0.1200000       -0.02301220    0.00000000
                                                     2        0.1400000        0.13317600    0.00000000
                                                     2        0.1600000       -0.19690668    0.00000000
                                                     2        0.2200000        0.23163694    0.00000000
                                                     2        0.3000000       -0.36920489    0.00000000
                                                     2        0.4000000        0.36389709    0.00000000
                                                     2        0.7000000       -0.38862160    0.00000000
                                                     2        1.3000000        0.80803421    0.00000000
                                      S - G
                                                     0        0.0000010        0.00312304    0.00000000
                                                     2        0.1200000       -0.00632892    0.00000000
                                                     2        0.2200000       -0.03780897    0.00000000
                                                     2        0.4000000        0.26269560    0.00000000
                                                     2        0.9000000       -0.28209514    0.00000000
                                                     2        1.5000000       -0.72686737    0.00000000
                                      P - G
                                                     0        0.0000010       -0.01465594    0.00000000
                                                     2        0.1200000        0.07908409    0.00000000
                                                     2        0.1800000       -0.30615861    0.00000000
                                                     2        0.2600000        0.41506950    0.00000000
                                                     2        0.5000000       -0.36252345    0.00000000
                                                     2        0.9000000        0.15124193    0.00000000
                                                     2        3.0000000       -0.80425677    0.00000000
                                      D - G
                                                     0        0.0000010        0.01149631    0.00000000
                                                     2        0.1200000       -0.04713561    0.00000000
                                                     2        0.1600000        0.10865096    0.00000000
                                                     2        0.2800000       -0.15816701    0.00000000
                                                     2        0.7000000        0.65478804    0.00000000
                                                     2        1.3000000       -1.73816624    0.00000000
                                      F - G
                                                     0        0.0000010        0.00481868    0.00000000
                                                     2        0.1200000       -0.04746842    0.00000000
                                                     2        0.1600000        0.09327889    0.00000000
                                                     2        0.4000000       -0.19693326    0.00000000
                                                     2        0.9000000        0.34938253    0.00000000
    6          1            1
                                      F and up 
                                                     0        0.0000010       -0.00000699    0.00000000
                                                     2        0.1200000        0.00123686    0.00000000
                                                     2        0.1800000       -0.00752022    0.00000000
                                                     2        0.2600000        0.02503380    0.00000000
                                                     2        0.4000000       -0.08702670    0.00000000
                                                     2        0.6000000        0.30134159    0.00000000
                                                     2        0.8000000       -0.50204959    0.00000000
                                                     2        1.2000000        0.52208372    0.00000000
                                      S - F
                                                     0        0.0000010       -0.01618346    0.00000000
                                                     2        0.1200000       -0.07880581    0.00000000
                                                     2        0.1600000        0.32040539    0.00000000
                                                     2        0.2400000       -0.47500956    0.00000000
                                                     2        0.5000000        0.54013668    0.00000000
                                                     2        1.5000000       -1.40434292    0.00000000
                                                     2        3.0000000        1.46283806    0.00000000
                                      P - F
                                                     0        0.0000010        0.00612970    0.00000000
                                                     2        0.1200000        0.02254406    0.00000000
                                                     2        0.1800000       -0.13874529    0.00000000
                                                     2        0.3000000        0.38299049    0.00000000
                                                     2        0.5000000       -0.57923512    0.00000000
                                                     2        1.0000000        0.63021625    0.00000000
                                                     2        2.0000000       -0.79201034    0.00000000
                                      D - F
                                                     0        0.0000010       -0.00296226    0.00000000
                                                     2        0.1200000       -0.00547344    0.00000000
                                                     2        0.1400000        0.01837884    0.00000000
                                                     2        0.2400000       -0.05565704    0.00000000
                                                     2        0.4000000        0.15376597    0.00000000
                                                     2        0.8000000       -0.32464795    0.00000000
    7          1            1
                                      F and up 
                                                     0        0.0000010       -0.00000699    0.00000000
                                                     2        0.1200000        0.00123686    0.00000000
                                                     2        0.1800000       -0.00752022    0.00000000
                                                     2        0.2600000        0.02503380    0.00000000
                                                     2        0.4000000       -0.08702670    0.00000000
                                                     2        0.6000000        0.30134159    0.00000000
                                                     2        0.8000000       -0.50204959    0.00000000
                                                     2        1.2000000        0.52208372    0.00000000
                                      S - F
                                                     0        0.0000010       -0.01618346    0.00000000
                                                     2        0.1200000       -0.07880581    0.00000000
                                                     2        0.1600000        0.32040539    0.00000000
                                                     2        0.2400000       -0.47500956    0.00000000
                                                     2        0.5000000        0.54013668    0.00000000
                                                     2        1.5000000       -1.40434292    0.00000000
                                                     2        3.0000000        1.46283806    0.00000000
                                      P - F
                                                     0        0.0000010        0.00612970    0.00000000
                                                     2        0.1200000        0.02254406    0.00000000
                                                     2        0.1800000       -0.13874529    0.00000000
                                                     2        0.3000000        0.38299049    0.00000000
                                                     2        0.5000000       -0.57923512    0.00000000
                                                     2        1.0000000        0.63021625    0.00000000
                                                     2        2.0000000       -0.79201034    0.00000000
                                      D - F
                                                     0        0.0000010       -0.00296226    0.00000000
                                                     2        0.1200000       -0.00547344    0.00000000
                                                     2        0.1400000        0.01837884    0.00000000
                                                     2        0.2400000       -0.05565704    0.00000000
                                                     2        0.4000000        0.15376597    0.00000000
                                                     2        0.8000000       -0.32464795    0.00000000
    8          1            1
                                      F and up 
                                                     0        0.0000010       -0.00000699    0.00000000
                                                     2        0.1200000        0.00123686    0.00000000
                                                     2        0.1800000       -0.00752022    0.00000000
                                                     2        0.2600000        0.02503380    0.00000000
                                                     2        0.4000000       -0.08702670    0.00000000
                                                     2        0.6000000        0.30134159    0.00000000
                                                     2        0.8000000       -0.50204959    0.00000000
                                                     2        1.2000000        0.52208372    0.00000000
                                      S - F
                                                     0        0.0000010       -0.01618346    0.00000000
                                                     2        0.1200000       -0.07880581    0.00000000
                                                     2        0.1600000        0.32040539    0.00000000
                                                     2        0.2400000       -0.47500956    0.00000000
                                                     2        0.5000000        0.54013668    0.00000000
                                                     2        1.5000000       -1.40434292    0.00000000
                                                     2        3.0000000        1.46283806    0.00000000
                                      P - F
                                                     0        0.0000010        0.00612970    0.00000000
                                                     2        0.1200000        0.02254406    0.00000000
                                                     2        0.1800000       -0.13874529    0.00000000
                                                     2        0.3000000        0.38299049    0.00000000
                                                     2        0.5000000       -0.57923512    0.00000000
                                                     2        1.0000000        0.63021625    0.00000000
                                                     2        2.0000000       -0.79201034    0.00000000
                                      D - F
                                                     0        0.0000010       -0.00296226    0.00000000
                                                     2        0.1200000       -0.00547344    0.00000000
                                                     2        0.1400000        0.01837884    0.00000000
                                                     2        0.2400000       -0.05565704    0.00000000
                                                     2        0.4000000        0.15376597    0.00000000
                                                     2        0.8000000       -0.32464795    0.00000000
    9          1            1
                                      F and up 
                                                     0        0.0000010       -0.00000699    0.00000000
                                                     2        0.1200000        0.00123686    0.00000000
                                                     2        0.1800000       -0.00752022    0.00000000
                                                     2        0.2600000        0.02503380    0.00000000
                                                     2        0.4000000       -0.08702670    0.00000000
                                                     2        0.6000000        0.30134159    0.00000000
                                                     2        0.8000000       -0.50204959    0.00000000
                                                     2        1.2000000        0.52208372    0.00000000
                                      S - F
                                                     0        0.0000010       -0.01618346    0.00000000
                                                     2        0.1200000       -0.07880581    0.00000000
                                                     2        0.1600000        0.32040539    0.00000000
                                                     2        0.2400000       -0.47500956    0.00000000
                                                     2        0.5000000        0.54013668    0.00000000
                                                     2        1.5000000       -1.40434292    0.00000000
                                                     2        3.0000000        1.46283806    0.00000000
                                      P - F
                                                     0        0.0000010        0.00612970    0.00000000
                                                     2        0.1200000        0.02254406    0.00000000
                                                     2        0.1800000       -0.13874529    0.00000000
                                                     2        0.3000000        0.38299049    0.00000000
                                                     2        0.5000000       -0.57923512    0.00000000
                                                     2        1.0000000        0.63021625    0.00000000
                                                     2        2.0000000       -0.79201034    0.00000000
                                      D - F
                                                     0        0.0000010       -0.00296226    0.00000000
                                                     2        0.1200000       -0.00547344    0.00000000
                                                     2        0.1400000        0.01837884    0.00000000
                                                     2        0.2400000       -0.05565704    0.00000000
                                                     2        0.4000000        0.15376597    0.00000000
                                                     2        0.8000000       -0.32464795    0.00000000
   10          1            1
                                      F and up 
                                                     0        0.0000010       -0.00000699    0.00000000
                                                     2        0.1200000        0.00123686    0.00000000
                                                     2        0.1800000       -0.00752022    0.00000000
                                                     2        0.2600000        0.02503380    0.00000000
                                                     2        0.4000000       -0.08702670    0.00000000
                                                     2        0.6000000        0.30134159    0.00000000
                                                     2        0.8000000       -0.50204959    0.00000000
                                                     2        1.2000000        0.52208372    0.00000000
                                      S - F
                                                     0        0.0000010       -0.01618346    0.00000000
                                                     2        0.1200000       -0.07880581    0.00000000
                                                     2        0.1600000        0.32040539    0.00000000
                                                     2        0.2400000       -0.47500956    0.00000000
                                                     2        0.5000000        0.54013668    0.00000000
                                                     2        1.5000000       -1.40434292    0.00000000
                                                     2        3.0000000        1.46283806    0.00000000
                                      P - F
                                                     0        0.0000010        0.00612970    0.00000000
                                                     2        0.1200000        0.02254406    0.00000000
                                                     2        0.1800000       -0.13874529    0.00000000
                                                     2        0.3000000        0.38299049    0.00000000
                                                     2        0.5000000       -0.57923512    0.00000000
                                                     2        1.0000000        0.63021625    0.00000000
                                                     2        2.0000000       -0.79201034    0.00000000
                                      D - F
                                                     0        0.0000010       -0.00296226    0.00000000
                                                     2        0.1200000       -0.00547344    0.00000000
                                                     2        0.1400000        0.01837884    0.00000000
                                                     2        0.2400000       -0.05565704    0.00000000
                                                     2        0.4000000        0.15376597    0.00000000
                                                     2        0.8000000       -0.32464795    0.00000000
 ======================================================================================================
   136 basis functions,   244 primitive gaussians,   142 cartesian basis functions
    17 alpha electrons       17 beta electrons
       nuclear repulsion energy       109.9797290702 Hartrees.
 NAtoms=   10 NActive=   10 NUniq=   10 SFac= 1.00D+00 NAtFMM=   60 NAOKFM=F Big=F
   1 Symmetry operations used in ECPInt.
 ECPInt:  NShTT=    2080 NPrTT=    9824 LenC2=    2081 LenP2D=    8424.
 LDataN:  DoStor=T MaxTD1= 6 Len=  172
 Initial guess from the checkpoint file:  "BDE49_expt_818_mol1.chk"
 B after Tr=     0.000001    0.000000   -0.000000
         Rot=    1.000000    0.000000   -0.000000   -0.000000 Ang=  -0.00 deg.
 >>>>>>>>>> Convergence criterion not met.
 SCF Done:  E(RHF) =  -420.597628909     A.U. after    2 cycles
            NFock=  1  Conv=0.99D-02     -V/T= 2.0074

 **********************************************************************

            Population analysis using the SCF Density.

 **********************************************************************

 Orbital symmetries:
       Occupied  (A) (A) (A) (A) (A) (A) (A) (A) (A) (A) (A) (A)
                 (A) (A) (A) (A) (A)
       Virtual   (A) (A) (A) (A) (A) (A) (A) (A) (A) (A) (A) (A)
                 (A) (A) (A) (A) (A) (A) (A) (A) (A) (A) (A) (A)
                 (A) (A) (A) (A) (A) (A) (A) (A) (A) (A) (A) (A)
                 (A) (A) (A) (A) (A) (A) (A) (A) (A) (A) (A) (A)
                 (A) (A) (A) (A) (A) (A) (A) (A) (A) (A) (A) (A)
                 (A) (A) (A) (A) (A) (A) (A) (A) (A) (A) (A) (A)
                 (A) (A) (A) (A) (A) (A) (A) (A) (A) (A) (A) (A)
                 (A) (A) (A) (A) (A) (A) (A) (A) (A) (A) (A) (A)
                 (A) (A) (A) (A) (A) (A) (A) (A) (A) (A) (A) (A)
                 (A) (A) (A) (A) (A) (A) (A) (A) (A) (A) (A)
 The electronic state is 1-A.
 Alpha  occ. eigenvalues --  -81.24985 -11.24491 -11.23461  -7.75340  -4.89307
 Alpha  occ. eigenvalues --   -4.89277  -4.88953  -1.02684  -0.86376  -0.74876
 Alpha  occ. eigenvalues --   -0.62116  -0.59039  -0.53523  -0.50992  -0.48552
 Alpha  occ. eigenvalues --   -0.45142  -0.34714
 Alpha virt. eigenvalues --    0.03478   0.04907   0.05072   0.05526   0.07106
 Alpha virt. eigenvalues --    0.07844   0.08265   0.10454   0.10886   0.12284
 Alpha virt. eigenvalues --    0.14250   0.15655   0.16305   0.16773   0.16965
 Alpha virt. eigenvalues --    0.17889   0.18716   0.19760   0.20903   0.22405
 Alpha virt. eigenvalues --    0.25448   0.26325   0.29048   0.30380   0.31194
 Alpha virt. eigenvalues --    0.32432   0.36102   0.37919   0.39038   0.39887
 Alpha virt. eigenvalues --    0.41498   0.43209   0.43819   0.44625   0.45985
 Alpha virt. eigenvalues --    0.46590   0.47062   0.48116   0.50734   0.51390
 Alpha virt. eigenvalues --    0.52482   0.54297   0.55533   0.56628   0.57246
 Alpha virt. eigenvalues --    0.58721   0.59137   0.59389   0.61110   0.62556
 Alpha virt. eigenvalues --    0.63330   0.63930   0.66370   0.68515   0.70610
 Alpha virt. eigenvalues --    0.71881   0.74714   0.75164   0.76196   0.77650
 Alpha virt. eigenvalues --    0.78483   0.80296   0.86978   0.90731   0.94677
 Alpha virt. eigenvalues --    0.99133   1.00275   1.02057   1.03456   1.06473
 Alpha virt. eigenvalues --    1.09250   1.10982   1.12295   1.14671   1.21701
 Alpha virt. eigenvalues --    1.24551   1.25836   1.28719   1.33073   1.38061
 Alpha virt. eigenvalues --    1.42867   1.47702   1.54132   1.56535   1.60533
 Alpha virt. eigenvalues --    1.66951   1.77148   1.79523   1.84647   1.90065
 Alpha virt. eigenvalues --    1.91089   1.92936   1.97442   2.00990   2.01441
 Alpha virt. eigenvalues --    2.03303   2.08374   2.09777   2.12751   2.14500
 Alpha virt. eigenvalues --    2.23205   2.24787   2.25329   2.26626   2.31838
 Alpha virt. eigenvalues --    2.37042   2.38741   2.43891   2.47773   2.50520
 Alpha virt. eigenvalues --    2.59075   2.67729   2.68710   2.85506   2.89019
 Alpha virt. eigenvalues --    2.91992   3.01890   3.05656   3.10998
          Condensed to atoms (all electrons):
 Mulliken charges:
               1
     1  P    0.102701
     2  H    0.086074
     3  C   -0.157169
     4  H    0.104648
     5  C    0.324633
     6  H   -0.105458
     7  H   -0.122627
     8  H   -0.075202
     9  H   -0.065657
    10  H   -0.091943
 Sum of Mulliken charges =  -0.00000
 Mulliken charges with hydrogens summed into heavy atoms:
               1
     1  P    0.293423
     3  C   -0.385253
     5  C    0.091830
 Electronic spatial extent (au):  <R**2>=            323.4565
 Charge=             -0.0000 electrons
 Dipole moment (field-independent basis, Debye):
    X=             -0.8653    Y=              0.7117    Z=              0.5513  Tot=              1.2487

 Test job not archived.
 1\1\GINC-SE339\SP\RHF\Aug-CC-pVDZ\C2H7P1\OHZDE\08-Apr-2025\0\\#t hf au
 g-cc-pvdz iop(5/13=1,5/36=2,99/5=2) pseudo=read geom=check guess=(read
 ,tcheck) scf=(maxcycle=1)\\title\\0,1\P,0,1.143208,-0.198778,-0.113283
 \H,0,1.962217,0.90574,0.242324\C,0,-0.517065,0.662031,0.045035\H,0,1.1
 86678,-0.757966,1.192268\C,0,-1.68263,-0.332034,-0.014607\H,0,-0.58137
 7,1.362272,-0.79374\H,0,-0.562339,1.253044,0.962026\H,0,-1.656264,-0.9
 23804,-0.933879\H,0,-2.642671,0.190655,0.019033\H,0,-1.656203,-1.02825
 6,0.828652\\Version=ES64L-G16RevC.01\State=1-A\HF=-420.5976289\RMSD=9.
 905e-03\Dipole=-0.340417,0.2800157,0.2168981\Quadrupole=-0.0893026,0.1
 953143,-0.1060117,0.5931441,0.8250289,-0.9000732\PG=C01 [X(C2H7P1)]\\@


 THOUGH I SPEAK WITH THE TONGUES OF MEN AND OF ANGELS, 
 AND HAVE NOT LOVE,
 I AM BECOME AS SOUNDING BRASS, A TINKLING CYMBAL.
 AND THOUGH I HAVE THE GIFT OF PROPHECY,
 AND UNDERSTAND ALL MYSTERIES, AND ALL KNOWLEDGE.
 AND THOUGH I HAVE ALL FAITH, SO THAT I COULD REMOVE MOUNTAINS,
 AND HAVE NOT LOVE, I AM NOTHING.
 AND THOUGH I BESTOW ALL MY GOODS TO FEED THE POOR,
 AND THOUGH I GIVE MY BODY TO BE BURNED,
 AND HAVE NOT LOVE IT PROFITETH ME NOTHING.
 LOVE SUFFERETH LONG, AND IS KIND,
 LOVE ENVIETH NOT,
 LOVE VAUNTETH NOT ITSELF, IS NOT PUFFED UP,
 DOTH NOT BEHAVE ITSELF UNSEEMLY, SEEKETH NOT HER OWN,
 IS NOT EASILY PROVOKED, THINKETH NO EVIL,
 REJOICETH NOT IN INIQUITY, BUT REJOICETH IN THE TRUTH,
 BEARETH ALL THINGS, BELIEVETH ALL THINGS,
 HOPETH ALL THINGS, ENDURETH ALL THINGS.
 LOVE NEVER FAILETH, BUT WHETHER THERE BE PROPHECIES, THEY SHALL FAIL, 
 WHETHER THERE BE TONGUES, THEY SHALL CEASE,
 WHETHER THERE BE KNOWLEDGE, IT SHALL VANISH AWAY.
 FOR WE KNOW IN PART, AND WE PROPHESY IN PART.
 BUT WHEN THAT WHICH IS PERFECT IS COME, THEN THAT WHICH IS IN PART 
 SHALL BE DONE AWAY. 
 WHEN I WAS A CHILD, I SPAKE AS A CHILD, I UNDERSTOOD AS A CHILD, 
 I THOUGHT AS A CHILD.
 BUT WHEN I BECAME A MAN, I PUT AWAY CHILDISH THINGS.
 FOR NOW WE SEE THROUGH A GLASS, DARKLY, BUT THEN FACE TO FACE.
 NOW I KNOW IN PART. BUT THEN SHALL I KNOW EVEN AS ALSO I AM KNOWN.
 AND NOW ABIDETH FAITH, HOPE AND LOVE, THESE THREE.
 BUT THE GREATEST OF THESE IS LOVE.

                     I CORINTHIANS 13
 Job cpu time:       0 days  0 hours  0 minutes 23.4 seconds.
 Elapsed time:       0 days  0 hours  0 minutes  2.2 seconds.
 File lengths (MBytes):  RWF=      6 Int=      0 D2E=      0 Chk=      3 Scr=      1
 Normal termination of Gaussian 16 at Tue Apr  8 23:10:47 2025.
