 Entering Gaussian System, Link 0=g16
 Input=BDE49_nonexpt_268_mol1.gjf
 Output=BDE49_nonexpt_268_mol1.log
 Initial command:
 /arc/software/Gaussian/g16.c01/l1.exe "/tmp/slurm/4853070/Gau-1599931.inp" -scrdir="/tmp/slurm/4853070/"
 Entering Link 1 = /arc/software/Gaussian/g16.c01/l1.exe PID=   1599948.
  
 Copyright (c) 1988-2019, Gaussian, Inc.  All Rights Reserved.
  
 This is part of the Gaussian(R) 16 program.  It is based on
 the Gaussian(R) 09 system (copyright 2009, Gaussian, Inc.),
 the Gaussian(R) 03 system (copyright 2003, Gaussian, Inc.),
 the Gaussian(R) 98 system (copyright 1998, Gaussian, Inc.),
 the Gaussian(R) 94 system (copyright 1995, Gaussian, Inc.),
 the Gaussian 92(TM) system (copyright 1992, Gaussian, Inc.),
 the Gaussian 90(TM) system (copyright 1990, Gaussian, Inc.),
 the Gaussian 88(TM) system (copyright 1988, Gaussian, Inc.),
 the Gaussian 86(TM) system (copyright 1986, Carnegie Mellon
 University), and the Gaussian 82(TM) system (copyright 1983,
 Carnegie Mellon University). Gaussian is a federally registered
 trademark of Gaussian, Inc.
  
 This software contains proprietary and confidential information,
 including trade secrets, belonging to Gaussian, Inc.
  
 This software is provided under written license and may be
 used, copied, transmitted, or stored only in accord with that
 written license.
  
 The following legend is applicable only to US Government
 contracts under FAR:
  
                    RESTRICTED RIGHTS LEGEND
  
 Use, reproduction and disclosure by the US Government is
 subject to restrictions as set forth in subparagraphs (a)
 and (c) of the Commercial Computer Software - Restricted
 Rights clause in FAR 52.227-19.
  
 Gaussian, Inc.
 340 Quinnipiac St., Bldg. 40, Wallingford CT 06492
  
  
 ---------------------------------------------------------------
 Warning -- This program may not be used in any manner that
 competes with the business of Gaussian, Inc. or will provide
 assistance to any competitor of Gaussian, Inc.  The licensee
 of this program is prohibited from giving any competitor of
 Gaussian, Inc. access to this program.  By using this program,
 the user acknowledges that Gaussian, Inc. is engaged in the
 business of creating and licensing software in the field of
 computational chemistry and represents and warrants to the
 licensee that it is not a competitor of Gaussian, Inc. and that
 it will not use this program in any manner prohibited above.
 ---------------------------------------------------------------
  

 Cite this work as:
 Gaussian 16, Revision C.01,
 M. J. Frisch, G. W. Trucks, H. B. Schlegel, G. E. Scuseria, 
 M. A. Robb, J. R. Cheeseman, G. Scalmani, V. Barone, 
 G. A. Petersson, H. Nakatsuji, X. Li, M. Caricato, A. V. Marenich, 
 J. Bloino, B. G. Janesko, R. Gomperts, B. Mennucci, H. P. Hratchian, 
 J. V. Ortiz, A. F. Izmaylov, J. L. Sonnenberg, D. Williams-Young, 
 F. Ding, F. Lipparini, F. Egidi, J. Goings, B. Peng, A. Petrone, 
 T. Henderson, D. Ranasinghe, V. G. Zakrzewski, J. Gao, N. Rega, 
 G. Zheng, W. Liang, M. Hada, M. Ehara, K. Toyota, R. Fukuda, 
 J. Hasegawa, M. Ishida, T. Nakajima, Y. Honda, O. Kitao, H. Nakai, 
 T. Vreven, K. Throssell, J. A. Montgomery, Jr., J. E. Peralta, 
 F. Ogliaro, M. J. Bearpark, J. J. Heyd, E. N. Brothers, K. N. Kudin, 
 V. N. Staroverov, T. A. Keith, R. Kobayashi, J. Normand, 
 K. Raghavachari, A. P. Rendell, J. C. Burant, S. S. Iyengar, 
 J. Tomasi, M. Cossi, J. M. Millam, M. Klene, C. Adamo, R. Cammi, 
 J. W. Ochterski, R. L. Martin, K. Morokuma, O. Farkas, 
 J. B. Foresman, and D. J. Fox, Gaussian, Inc., Wallingford CT, 2019.
 
 ******************************************
 Gaussian 16:  ES64L-G16RevC.01  3-Jul-2019
                 9-Apr-2025 
 ******************************************
 %nprocs=16
 Will use up to   16 processors via shared memory.
 %mem=30GB
 %chk=BDE49_nonexpt_268_mol1.chk
 ----------------------------------------------------------------------
 #t hf aug-cc-pvdz symm=none int=(grid=ultrafine) guess=(read,tcheck) s
 table=(opt,rrhf)
 ----------------------------------------------------------------------
 -----
 title
 -----
 Symbolic Z-matrix:
 Charge =  0 Multiplicity = 1
 B                    -1.74435  -0.61169  -0.12941 
 C                    -0.7831    0.54263   0.27113 
 C                     1.52706  -0.53955   0.17724 
 C                     0.62263   0.57912  -0.34923 
 H                    -0.73724   0.66897   1.36147 
 H                     1.09653   1.54715  -0.15113 
 H                     0.53851   0.49446  -1.43846 
 H                     1.10525  -1.52559  -0.04368 
 H                    -1.36185   1.43031  -0.05855 
 H                     2.52207  -0.49685  -0.27397 
 H                     1.65098  -0.46817   1.26272 
 H                    -2.74661  -0.80172   0.49278 
 H                    -1.54543  -1.28329  -1.09895 
 
                    Distance matrix (angstroms):
                    1          2          3          4          5
     1  B    0.000000
     2  C    1.554630   0.000000
     3  C    3.286544   2.552802   0.000000
     4  C    2.658743   1.536959   1.531863   0.000000
     5  H    2.208407   1.098597   2.826661   2.187192   0.000000
     6  H    3.568143   2.172644   2.155805   1.095858   2.534146
     7  H    2.854583   2.161406   2.157986   1.095750   3.081821
     8  H    2.993787   2.818244   1.094989   2.180844   3.191442
     9  H    2.078716   1.109773   3.504530   2.178794   1.728067
    10  H    4.270407   3.507386   1.093360   2.184315   3.828427
    11  H    3.672448   2.815978   1.094858   2.180070   2.646971
    12  H    1.194889   2.389931   4.293318   3.737304   2.637251
    13  H    1.196089   2.406707   3.409104   2.954844   3.243169
                    6          7          8          9         10
     6  H    0.000000
     7  H    1.754065   0.000000
     8  H    3.074626   2.519367   0.000000
     9  H    2.462896   2.528108   3.850205   0.000000
    10  H    2.495020   2.504641   1.765990   4.341092   0.000000
    11  H    2.523467   3.075811   1.767097   3.798300   1.766633
    12  H    4.549894   4.025148   3.955829   2.683925   5.332897
    13  H    3.986186   2.760160   2.863279   2.911999   4.224167
                   11         12         13
    11  H    0.000000
    12  H    4.476925   0.000000
    13  H    4.056957   2.051429   0.000000
 Symmetry turned off by external request.
 Rotational constants (GHZ):          14.2442867           4.6900183           4.1021740
   173 basis functions,   271 primitive gaussians,   181 cartesian basis functions
    16 alpha electrons       16 beta electrons
       nuclear repulsion energy       115.6921897101 Hartrees.
 NAtoms=   13 NActive=   13 NUniq=   13 SFac= 1.00D+00 NAtFMM=   60 NAOKFM=F Big=F
 ExpMin= 2.38D-02 ExpMax= 6.67D+03 ExpMxC= 2.28D+02 IAcc=3 IRadAn=         5 AccDes= 0.00D+00
 Harris functional with IExCor=  205 and IRadAn=       5 diagonalized for initial guess.
 HarFok:  IExCor=  205 AccDes= 0.00D+00 IRadAn=         5 IDoV= 1 UseB2=F ITyADJ=14
 ICtDFT=  3500011 ScaDFX=  1.000000  1.000000  1.000000  1.000000
 FoFCou: FMM=F IPFlag=           0 FMFlag=      100000 FMFlg1=           0
         NFxFlg=           0 DoJE=T BraDBF=F KetDBF=T FulRan=T
         wScrn=  0.000000 ICntrl=       500 IOpCl=  0 I1Cent=   200000004 NGrid=           0
         NMat0=    1 NMatS0=      1 NMatT0=    0 NMatD0=    1 NMtDS0=    0 NMtDT0=    0
 Symmetry not used in FoFCou.
 SCF Done:  E(RHF) =  -143.522273833     A.U. after   12 cycles
            NFock= 12  Conv=0.66D-08     -V/T= 2.0010

 **********************************************************************

            Population analysis using the SCF Density.

 **********************************************************************

 Alpha  occ. eigenvalues --  -11.22610 -11.21951 -11.20706  -7.60001  -1.05383
 Alpha  occ. eigenvalues --   -0.93259  -0.80853  -0.67033  -0.60594  -0.59879
 Alpha  occ. eigenvalues --   -0.55077  -0.51267  -0.49466  -0.47471  -0.44882
 Alpha  occ. eigenvalues --   -0.44137
 Alpha virt. eigenvalues --    0.03434   0.04316   0.04364   0.04743   0.06162
 Alpha virt. eigenvalues --    0.06533   0.06823   0.07224   0.08227   0.09557
 Alpha virt. eigenvalues --    0.10821   0.11889   0.13042   0.13126   0.14629
 Alpha virt. eigenvalues --    0.15367   0.16186   0.16835   0.16974   0.17338
 Alpha virt. eigenvalues --    0.19018   0.19294   0.20170   0.20395   0.22988
 Alpha virt. eigenvalues --    0.24432   0.26889   0.29469   0.30215   0.31475
 Alpha virt. eigenvalues --    0.32623   0.33029   0.34573   0.35477   0.35812
 Alpha virt. eigenvalues --    0.38089   0.39222   0.40504   0.41319   0.42533
 Alpha virt. eigenvalues --    0.43920   0.44358   0.45917   0.46130   0.47141
 Alpha virt. eigenvalues --    0.48250   0.48313   0.48726   0.50030   0.50900
 Alpha virt. eigenvalues --    0.51345   0.52813   0.53474   0.55293   0.57048
 Alpha virt. eigenvalues --    0.57437   0.58268   0.59652   0.59951   0.60949
 Alpha virt. eigenvalues --    0.62406   0.63558   0.64033   0.64290   0.66471
 Alpha virt. eigenvalues --    0.66583   0.68148   0.68426   0.70936   0.72639
 Alpha virt. eigenvalues --    0.74303   0.75616   0.75981   0.77497   0.79305
 Alpha virt. eigenvalues --    0.80981   0.81307   0.82914   0.85478   0.86254
 Alpha virt. eigenvalues --    0.87654   0.89294   0.92338   0.95414   0.96167
 Alpha virt. eigenvalues --    0.97553   0.99414   1.06333   1.09806   1.10259
 Alpha virt. eigenvalues --    1.13202   1.15118   1.21855   1.23312   1.24394
 Alpha virt. eigenvalues --    1.26094   1.28337   1.29642   1.32094   1.33907
 Alpha virt. eigenvalues --    1.36027   1.40481   1.46073   1.51162   1.54449
 Alpha virt. eigenvalues --    1.56093   1.58382   1.64595   1.69288   1.71557
 Alpha virt. eigenvalues --    1.81655   1.81726   1.84907   1.85904   1.88581
 Alpha virt. eigenvalues --    1.89329   1.94903   1.95360   1.98291   2.00556
 Alpha virt. eigenvalues --    2.06752   2.09613   2.11050   2.12612   2.14603
 Alpha virt. eigenvalues --    2.15023   2.18564   2.21362   2.22727   2.26999
 Alpha virt. eigenvalues --    2.27154   2.29196   2.30224   2.33739   2.35128
 Alpha virt. eigenvalues --    2.42041   2.44339   2.48849   2.53237   2.53612
 Alpha virt. eigenvalues --    2.58063   2.61781   2.63649   2.68362   2.73258
 Alpha virt. eigenvalues --    2.77364   2.85930   2.87608   2.90375   2.94533
 Alpha virt. eigenvalues --    2.97256   3.02900   3.08144   3.10052   3.16969
 Alpha virt. eigenvalues --    3.20692   3.30080
          Condensed to atoms (all electrons):
 Mulliken charges:
               1
     1  B   -0.687338
     2  C    0.326042
     3  C    0.325259
     4  C    0.096053
     5  H   -0.218588
     6  H   -0.096721
     7  H   -0.123892
     8  H   -0.077596
     9  H   -0.158036
    10  H   -0.090585
    11  H   -0.085112
    12  H    0.394604
    13  H    0.395910
 Sum of Mulliken charges =  -0.00000
 Mulliken charges with hydrogens summed into heavy atoms:
               1
     1  B    0.103175
     2  C   -0.050581
     3  C    0.071966
     4  C   -0.124561
 Electronic spatial extent (au):  <R**2>=            370.5356
 Charge=             -0.0000 electrons
 Dipole moment (field-independent basis, Debye):
    X=              0.3230    Y=              0.4851    Z=              0.1060  Tot=              0.5924
 NROrb=    173 NOA=    16 NOB=    16 NVA=   157 NVB=   157

 **** Warning!!: The largest alpha MO coefficient is  0.42225234D+02

    12 initial guesses have been made.
 Iteration     1 Dimension    12 NMult     0 NNew     12
 New state      1 was old state      2
 Iteration     2 Dimension    24 NMult    12 NNew     12
 Iteration     3 Dimension    27 NMult    24 NNew      3
 Iteration     4 Dimension    30 NMult    27 NNew      3
 Iteration     5 Dimension    33 NMult    30 NNew      3
 Iteration     6 Dimension    36 NMult    33 NNew      3
 ***********************************************************************
 Stability analysis using <AA,BB:AA,BB> singles matrix:
 ***********************************************************************
 Ground to excited state transition densities written to RWF  633

 Eigenvectors of the stability matrix:
 
 Excited state symmetry could not be determined.
 Eigenvector   1:      Singlet-?Sym  Eigenvalue= 0.2574072  <S**2>=0.000
      12 -> 28        -0.10630
      13 -> 28        -0.13033
      16 -> 18        -0.25493
      16 -> 21         0.26480
      16 -> 24        -0.13897
      16 -> 26         0.14722
      16 -> 27         0.11846
      16 -> 28         0.36455
      16 -> 30         0.13116
 The wavefunction is stable under the perturbations considered.
 The wavefunction is already stable.

 **********************************************************************

            Population analysis using the SCF Density.

 **********************************************************************

 Alpha  occ. eigenvalues --  -11.22610 -11.21951 -11.20706  -7.60001  -1.05383
 Alpha  occ. eigenvalues --   -0.93259  -0.80853  -0.67033  -0.60594  -0.59879
 Alpha  occ. eigenvalues --   -0.55077  -0.51267  -0.49466  -0.47471  -0.44882
 Alpha  occ. eigenvalues --   -0.44137
 Alpha virt. eigenvalues --    0.03434   0.04316   0.04364   0.04743   0.06162
 Alpha virt. eigenvalues --    0.06533   0.06823   0.07224   0.08227   0.09557
 Alpha virt. eigenvalues --    0.10821   0.11889   0.13042   0.13126   0.14629
 Alpha virt. eigenvalues --    0.15367   0.16186   0.16835   0.16974   0.17338
 Alpha virt. eigenvalues --    0.19018   0.19294   0.20170   0.20395   0.22988
 Alpha virt. eigenvalues --    0.24432   0.26889   0.29469   0.30215   0.31475
 Alpha virt. eigenvalues --    0.32623   0.33029   0.34573   0.35477   0.35812
 Alpha virt. eigenvalues --    0.38089   0.39222   0.40504   0.41319   0.42533
 Alpha virt. eigenvalues --    0.43920   0.44358   0.45917   0.46130   0.47141
 Alpha virt. eigenvalues --    0.48250   0.48313   0.48726   0.50030   0.50900
 Alpha virt. eigenvalues --    0.51345   0.52813   0.53474   0.55293   0.57048
 Alpha virt. eigenvalues --    0.57437   0.58268   0.59652   0.59951   0.60949
 Alpha virt. eigenvalues --    0.62406   0.63558   0.64033   0.64290   0.66471
 Alpha virt. eigenvalues --    0.66583   0.68148   0.68426   0.70936   0.72639
 Alpha virt. eigenvalues --    0.74303   0.75616   0.75981   0.77497   0.79305
 Alpha virt. eigenvalues --    0.80981   0.81307   0.82914   0.85478   0.86254
 Alpha virt. eigenvalues --    0.87654   0.89294   0.92338   0.95414   0.96167
 Alpha virt. eigenvalues --    0.97553   0.99414   1.06333   1.09806   1.10259
 Alpha virt. eigenvalues --    1.13202   1.15118   1.21855   1.23312   1.24394
 Alpha virt. eigenvalues --    1.26094   1.28337   1.29642   1.32094   1.33907
 Alpha virt. eigenvalues --    1.36027   1.40481   1.46073   1.51162   1.54449
 Alpha virt. eigenvalues --    1.56093   1.58382   1.64595   1.69288   1.71557
 Alpha virt. eigenvalues --    1.81655   1.81726   1.84907   1.85904   1.88581
 Alpha virt. eigenvalues --    1.89329   1.94903   1.95360   1.98291   2.00556
 Alpha virt. eigenvalues --    2.06752   2.09613   2.11050   2.12612   2.14603
 Alpha virt. eigenvalues --    2.15023   2.18564   2.21362   2.22727   2.26999
 Alpha virt. eigenvalues --    2.27154   2.29196   2.30224   2.33739   2.35128
 Alpha virt. eigenvalues --    2.42041   2.44339   2.48849   2.53237   2.53612
 Alpha virt. eigenvalues --    2.58063   2.61781   2.63649   2.68362   2.73258
 Alpha virt. eigenvalues --    2.77364   2.85930   2.87608   2.90375   2.94533
 Alpha virt. eigenvalues --    2.97256   3.02900   3.08144   3.10052   3.16969
 Alpha virt. eigenvalues --    3.20692   3.30080
          Condensed to atoms (all electrons):
 Mulliken charges:
               1
     1  B   -0.687338
     2  C    0.326042
     3  C    0.325259
     4  C    0.096053
     5  H   -0.218588
     6  H   -0.096721
     7  H   -0.123892
     8  H   -0.077596
     9  H   -0.158036
    10  H   -0.090585
    11  H   -0.085112
    12  H    0.394604
    13  H    0.395910
 Sum of Mulliken charges =  -0.00000
 Mulliken charges with hydrogens summed into heavy atoms:
               1
     1  B    0.103175
     2  C   -0.050581
     3  C    0.071966
     4  C   -0.124561
 Electronic spatial extent (au):  <R**2>=            370.5356
 Charge=             -0.0000 electrons
 Dipole moment (field-independent basis, Debye):
    X=              0.3230    Y=              0.4851    Z=              0.1060  Tot=              0.5924
 Unable to Open any file for archive entry.
 1\1\GINC-SE435\Stability\RHF\Aug-CC-pVDZ\C3H9B1\OHZDE\09-Apr-2025\0\\#
 t hf aug-cc-pvdz symm=none int=(grid=ultrafine) guess=(read,tcheck) st
 able=(opt,rrhf)\\title\\0,1\B,0,-1.744349,-0.611687,-0.129407\C,0,-0.7
 83101,0.542631,0.271127\C,0,1.527063,-0.539554,0.177237\C,0,0.622626,0
 .579119,-0.34923\H,0,-0.737241,0.668969,1.361471\H,0,1.096534,1.547145
 ,-0.151134\H,0,0.538512,0.494462,-1.438462\H,0,1.105246,-1.52559,-0.04
 3682\H,0,-1.361846,1.430305,-0.058547\H,0,2.522065,-0.496846,-0.273965
 \H,0,1.650982,-0.468173,1.262715\H,0,-2.74661,-0.801716,0.492784\H,0,-
 1.545428,-1.283291,-1.098947\\Version=ES64L-G16RevC.01\HF=-143.5222738
 \RMSD=6.577e-09\Dipole=0.1270879,0.1908684,0.0416855\Quadrupole=-0.741
 905,0.3075721,0.4343329,-0.9654318,0.2578789,-0.517975\PG=Unknown\\@
 The archive entry for this job was punched.


 LORD, MAN... WERE YE BUT WHYLES WHERE I AM, 
 THE GENTILES YE WAD NE'ER ENVY 'EM.        
 IT'S TRUE, THEY NEEDNA STARVE OR SWEAT,     
 THRO' WINTER'S CAULD OR SIMMER'S HEAT...  
 THEY'VE NAE SAIR WARK TO CRAZE THEIR BANES, 
 AND FILL AULD AGE WITH GRIPS AN' GRANES...  
                                             
 BUT HUMAN BODIES ARE SIC FOOLS              
 FOR A' THEIR COLLEGES AND SCHOOLS,           
 THAT WHEN NAE REAL ILLS PERPLEX THEM,       
 THEY MAK ENOW THEMSELVES TO VEX THEM,       
 AN' AYE THE LESS THEY HAE TO STURT THEM,    
 IN LIKE PROPORTION LESS WILL HURT THEM....  
                                             
                (ROBERT BURNS 'THE TWA DOGS')
 Job cpu time:       0 days  0 hours  2 minutes 18.3 seconds.
 Elapsed time:       0 days  0 hours  0 minutes 10.4 seconds.
 File lengths (MBytes):  RWF=    130 Int=      0 D2E=      0 Chk=      5 Scr=      1
 Normal termination of Gaussian 16 at Wed Apr  9 00:21:44 2025.
 Initial command:
 /arc/software/Gaussian/g16.c01/l1.exe "/tmp/slurm/4853070/Gau-1599931.inp" -scrdir="/tmp/slurm/4853070/"
 Entering Link 1 = /arc/software/Gaussian/g16.c01/l1.exe PID=   1600517.
  
 Copyright (c) 1988-2019, Gaussian, Inc.  All Rights Reserved.
  
 This is part of the Gaussian(R) 16 program.  It is based on
 the Gaussian(R) 09 system (copyright 2009, Gaussian, Inc.),
 the Gaussian(R) 03 system (copyright 2003, Gaussian, Inc.),
 the Gaussian(R) 98 system (copyright 1998, Gaussian, Inc.),
 the Gaussian(R) 94 system (copyright 1995, Gaussian, Inc.),
 the Gaussian 92(TM) system (copyright 1992, Gaussian, Inc.),
 the Gaussian 90(TM) system (copyright 1990, Gaussian, Inc.),
 the Gaussian 88(TM) system (copyright 1988, Gaussian, Inc.),
 the Gaussian 86(TM) system (copyright 1986, Carnegie Mellon
 University), and the Gaussian 82(TM) system (copyright 1983,
 Carnegie Mellon University). Gaussian is a federally registered
 trademark of Gaussian, Inc.
  
 This software contains proprietary and confidential information,
 including trade secrets, belonging to Gaussian, Inc.
  
 This software is provided under written license and may be
 used, copied, transmitted, or stored only in accord with that
 written license.
  
 The following legend is applicable only to US Government
 contracts under FAR:
  
                    RESTRICTED RIGHTS LEGEND
  
 Use, reproduction and disclosure by the US Government is
 subject to restrictions as set forth in subparagraphs (a)
 and (c) of the Commercial Computer Software - Restricted
 Rights clause in FAR 52.227-19.
  
 Gaussian, Inc.
 340 Quinnipiac St., Bldg. 40, Wallingford CT 06492
  
  
 ---------------------------------------------------------------
 Warning -- This program may not be used in any manner that
 competes with the business of Gaussian, Inc. or will provide
 assistance to any competitor of Gaussian, Inc.  The licensee
 of this program is prohibited from giving any competitor of
 Gaussian, Inc. access to this program.  By using this program,
 the user acknowledges that Gaussian, Inc. is engaged in the
 business of creating and licensing software in the field of
 computational chemistry and represents and warrants to the
 licensee that it is not a competitor of Gaussian, Inc. and that
 it will not use this program in any manner prohibited above.
 ---------------------------------------------------------------
  

 Cite this work as:
 Gaussian 16, Revision C.01,
 M. J. Frisch, G. W. Trucks, H. B. Schlegel, G. E. Scuseria, 
 M. A. Robb, J. R. Cheeseman, G. Scalmani, V. Barone, 
 G. A. Petersson, H. Nakatsuji, X. Li, M. Caricato, A. V. Marenich, 
 J. Bloino, B. G. Janesko, R. Gomperts, B. Mennucci, H. P. Hratchian, 
 J. V. Ortiz, A. F. Izmaylov, J. L. Sonnenberg, D. Williams-Young, 
 F. Ding, F. Lipparini, F. Egidi, J. Goings, B. Peng, A. Petrone, 
 T. Henderson, D. Ranasinghe, V. G. Zakrzewski, J. Gao, N. Rega, 
 G. Zheng, W. Liang, M. Hada, M. Ehara, K. Toyota, R. Fukuda, 
 J. Hasegawa, M. Ishida, T. Nakajima, Y. Honda, O. Kitao, H. Nakai, 
 T. Vreven, K. Throssell, J. A. Montgomery, Jr., J. E. Peralta, 
 F. Ogliaro, M. J. Bearpark, J. J. Heyd, E. N. Brothers, K. N. Kudin, 
 V. N. Staroverov, T. A. Keith, R. Kobayashi, J. Normand, 
 K. Raghavachari, A. P. Rendell, J. C. Burant, S. S. Iyengar, 
 J. Tomasi, M. Cossi, J. M. Millam, M. Klene, C. Adamo, R. Cammi, 
 J. W. Ochterski, R. L. Martin, K. Morokuma, O. Farkas, 
 J. B. Foresman, and D. J. Fox, Gaussian, Inc., Wallingford CT, 2019.
 
 ******************************************
 Gaussian 16:  ES64L-G16RevC.01  3-Jul-2019
                 9-Apr-2025 
 ******************************************
 %nprocs=16
 Will use up to   16 processors via shared memory.
 %mem=30GB
 %chk=BDE49_nonexpt_268_mol1.chk
 ----------------------------------------------------------------------
 #t hf aug-cc-pvdz iop(5/13=1,5/36=2,99/5=2) pseudo=read geom=check gue
 ss=(read,tcheck) scf=(maxcycle=1)
 ----------------------------------------------------------------------
 -----
 title
 -----
 Structure from the checkpoint file:  "BDE49_nonexpt_268_mol1.chk"
 Charge =  0 Multiplicity = 1
 Z-Matrix found in chk file.
 B,0,-1.744349,-0.611687,-0.129407
 C,0,-0.783101,0.542631,0.271127
 C,0,1.527063,-0.539554,0.177237
 C,0,0.622626,0.579119,-0.34923
 H,0,-0.737241,0.668969,1.361471
 H,0,1.096534,1.547145,-0.151134
 H,0,0.538512,0.494462,-1.438462
 H,0,1.105246,-1.52559,-0.043682
 H,0,-1.361846,1.430305,-0.058547
 H,0,2.522065,-0.496846,-0.273965
 H,0,1.650982,-0.468173,1.262715
 H,0,-2.74661,-0.801716,0.492784
 H,0,-1.545428,-1.283291,-1.098947
 Recover connectivity data from disk.
                    Distance matrix (angstroms):
                    1          2          3          4          5
     1  B    0.000000
     2  C    1.554630   0.000000
     3  C    3.286544   2.552802   0.000000
     4  C    2.658743   1.536959   1.531863   0.000000
     5  H    2.208407   1.098597   2.826661   2.187192   0.000000
     6  H    3.568143   2.172644   2.155805   1.095858   2.534146
     7  H    2.854583   2.161406   2.157986   1.095750   3.081821
     8  H    2.993787   2.818244   1.094989   2.180844   3.191442
     9  H    2.078716   1.109773   3.504530   2.178794   1.728067
    10  H    4.270407   3.507386   1.093360   2.184315   3.828427
    11  H    3.672448   2.815978   1.094858   2.180070   2.646971
    12  H    1.194889   2.389931   4.293318   3.737304   2.637251
    13  H    1.196089   2.406707   3.409104   2.954844   3.243169
                    6          7          8          9         10
     6  H    0.000000
     7  H    1.754065   0.000000
     8  H    3.074626   2.519367   0.000000
     9  H    2.462896   2.528108   3.850205   0.000000
    10  H    2.495020   2.504641   1.765990   4.341092   0.000000
    11  H    2.523467   3.075811   1.767097   3.798300   1.766633
    12  H    4.549894   4.025148   3.955829   2.683925   5.332897
    13  H    3.986186   2.760160   2.863279   2.911999   4.224167
                   11         12         13
    11  H    0.000000
    12  H    4.476925   0.000000
    13  H    4.056957   2.051429   0.000000
 Framework group  C1[X(C3H9B)]
 Deg. of freedom    33
                         Standard orientation:                         
 ---------------------------------------------------------------------
 Center     Atomic      Atomic             Coordinates (Angstroms)
 Number     Number       Type             X           Y           Z
 ---------------------------------------------------------------------
      1          5           0       -1.744349   -0.611687   -0.129407
      2          6           0       -0.783101    0.542631    0.271127
      3          6           0        1.527063   -0.539554    0.177237
      4          6           0        0.622626    0.579119   -0.349230
      5          1           0       -0.737241    0.668969    1.361471
      6          1           0        1.096534    1.547145   -0.151134
      7          1           0        0.538512    0.494462   -1.438462
      8          1           0        1.105246   -1.525590   -0.043682
      9          1           0       -1.361846    1.430305   -0.058547
     10          1           0        2.522065   -0.496846   -0.273965
     11          1           0        1.650982   -0.468173    1.262715
     12          1           0       -2.746610   -0.801716    0.492784
     13          1           0       -1.545428   -1.283291   -1.098947
 ---------------------------------------------------------------------
 Rotational constants (GHZ):          14.2442867           4.6900183           4.1021740
 ======================================================================================================
                                       Pseudopotential Parameters
 ======================================================================================================
  Center     Atomic      Valence      Angular      Power
  Number     Number     Electrons     Momentum     of R      Exponent        Coefficient   SO-Coeffient
 ======================================================================================================
    1          5            5
                                      G and up 
                                                     0        0.0000010       -0.00003285    0.00000000
                                                     2        0.1200000        0.02009075    0.00000000
                                                     2        0.1400000       -0.05866979    0.00000000
                                                     2        0.1800000        0.09995788    0.00000000
                                                     2        0.2400000       -0.11795078    0.00000000
                                                     2        0.4000000        0.15024519    0.00000000
                                                     2        0.7000000       -0.33885613    0.00000000
                                                     2        1.7000000        0.21467576    0.00000000
                                      S - G
                                                     0        0.0000010       -0.00100850    0.00000000
                                                     2        0.1200000       -0.13105755    0.00000000
                                                     2        0.1800000        0.21911891    0.00000000
                                      P - G
                                                     0        0.0000010        0.06216691    0.00000000
                                                     2        0.1200000       -0.01035601    0.00000000
                                                     2        0.1600000        0.01974098    0.00000000
                                                     2        0.2600000       -0.03556758    0.00000000
                                      D - G
                                                     0        0.0000010        0.03724396    0.00000000
                                                     2        0.1200000       -0.16834167    0.00000000
                                                     2        0.1800000        0.42333345    0.00000000
                                                     2        0.4000000       -1.11304036    0.00000000
                                                     2        0.7000000        1.72162222    0.00000000
                                      F - G
                                                     0        0.0000010       -0.04974272    0.00000000
                                                     2        0.1200000        0.10484788    0.00000000
                                                     2        0.1600000       -0.14333884    0.00000000
                                                     2        0.2800000       -0.09166252    0.00000000
                                                     2        0.5000000        0.53351878    0.00000000
    2          6            6
                                      G and up 
                                                     0        0.0000010       -0.00011185    0.00000000
                                                     2        0.1200000       -0.02301220    0.00000000
                                                     2        0.1400000        0.13317600    0.00000000
                                                     2        0.1600000       -0.19690668    0.00000000
                                                     2        0.2200000        0.23163694    0.00000000
                                                     2        0.3000000       -0.36920489    0.00000000
                                                     2        0.4000000        0.36389709    0.00000000
                                                     2        0.7000000       -0.38862160    0.00000000
                                                     2        1.3000000        0.80803421    0.00000000
                                      S - G
                                                     0        0.0000010        0.00312304    0.00000000
                                                     2        0.1200000       -0.00632892    0.00000000
                                                     2        0.2200000       -0.03780897    0.00000000
                                                     2        0.4000000        0.26269560    0.00000000
                                                     2        0.9000000       -0.28209514    0.00000000
                                                     2        1.5000000       -0.72686737    0.00000000
                                      P - G
                                                     0        0.0000010       -0.01465594    0.00000000
                                                     2        0.1200000        0.07908409    0.00000000
                                                     2        0.1800000       -0.30615861    0.00000000
                                                     2        0.2600000        0.41506950    0.00000000
                                                     2        0.5000000       -0.36252345    0.00000000
                                                     2        0.9000000        0.15124193    0.00000000
                                                     2        3.0000000       -0.80425677    0.00000000
                                      D - G
                                                     0        0.0000010        0.01149631    0.00000000
                                                     2        0.1200000       -0.04713561    0.00000000
                                                     2        0.1600000        0.10865096    0.00000000
                                                     2        0.2800000       -0.15816701    0.00000000
                                                     2        0.7000000        0.65478804    0.00000000
                                                     2        1.3000000       -1.73816624    0.00000000
                                      F - G
                                                     0        0.0000010        0.00481868    0.00000000
                                                     2        0.1200000       -0.04746842    0.00000000
                                                     2        0.1600000        0.09327889    0.00000000
                                                     2        0.4000000       -0.19693326    0.00000000
                                                     2        0.9000000        0.34938253    0.00000000
    3          6            6
                                      G and up 
                                                     0        0.0000010       -0.00011185    0.00000000
                                                     2        0.1200000       -0.02301220    0.00000000
                                                     2        0.1400000        0.13317600    0.00000000
                                                     2        0.1600000       -0.19690668    0.00000000
                                                     2        0.2200000        0.23163694    0.00000000
                                                     2        0.3000000       -0.36920489    0.00000000
                                                     2        0.4000000        0.36389709    0.00000000
                                                     2        0.7000000       -0.38862160    0.00000000
                                                     2        1.3000000        0.80803421    0.00000000
                                      S - G
                                                     0        0.0000010        0.00312304    0.00000000
                                                     2        0.1200000       -0.00632892    0.00000000
                                                     2        0.2200000       -0.03780897    0.00000000
                                                     2        0.4000000        0.26269560    0.00000000
                                                     2        0.9000000       -0.28209514    0.00000000
                                                     2        1.5000000       -0.72686737    0.00000000
                                      P - G
                                                     0        0.0000010       -0.01465594    0.00000000
                                                     2        0.1200000        0.07908409    0.00000000
                                                     2        0.1800000       -0.30615861    0.00000000
                                                     2        0.2600000        0.41506950    0.00000000
                                                     2        0.5000000       -0.36252345    0.00000000
                                                     2        0.9000000        0.15124193    0.00000000
                                                     2        3.0000000       -0.80425677    0.00000000
                                      D - G
                                                     0        0.0000010        0.01149631    0.00000000
                                                     2        0.1200000       -0.04713561    0.00000000
                                                     2        0.1600000        0.10865096    0.00000000
                                                     2        0.2800000       -0.15816701    0.00000000
                                                     2        0.7000000        0.65478804    0.00000000
                                                     2        1.3000000       -1.73816624    0.00000000
                                      F - G
                                                     0        0.0000010        0.00481868    0.00000000
                                                     2        0.1200000       -0.04746842    0.00000000
                                                     2        0.1600000        0.09327889    0.00000000
                                                     2        0.4000000       -0.19693326    0.00000000
                                                     2        0.9000000        0.34938253    0.00000000
    4          6            6
                                      G and up 
                                                     0        0.0000010       -0.00011185    0.00000000
                                                     2        0.1200000       -0.02301220    0.00000000
                                                     2        0.1400000        0.13317600    0.00000000
                                                     2        0.1600000       -0.19690668    0.00000000
                                                     2        0.2200000        0.23163694    0.00000000
                                                     2        0.3000000       -0.36920489    0.00000000
                                                     2        0.4000000        0.36389709    0.00000000
                                                     2        0.7000000       -0.38862160    0.00000000
                                                     2        1.3000000        0.80803421    0.00000000
                                      S - G
                                                     0        0.0000010        0.00312304    0.00000000
                                                     2        0.1200000       -0.00632892    0.00000000
                                                     2        0.2200000       -0.03780897    0.00000000
                                                     2        0.4000000        0.26269560    0.00000000
                                                     2        0.9000000       -0.28209514    0.00000000
                                                     2        1.5000000       -0.72686737    0.00000000
                                      P - G
                                                     0        0.0000010       -0.01465594    0.00000000
                                                     2        0.1200000        0.07908409    0.00000000
                                                     2        0.1800000       -0.30615861    0.00000000
                                                     2        0.2600000        0.41506950    0.00000000
                                                     2        0.5000000       -0.36252345    0.00000000
                                                     2        0.9000000        0.15124193    0.00000000
                                                     2        3.0000000       -0.80425677    0.00000000
                                      D - G
                                                     0        0.0000010        0.01149631    0.00000000
                                                     2        0.1200000       -0.04713561    0.00000000
                                                     2        0.1600000        0.10865096    0.00000000
                                                     2        0.2800000       -0.15816701    0.00000000
                                                     2        0.7000000        0.65478804    0.00000000
                                                     2        1.3000000       -1.73816624    0.00000000
                                      F - G
                                                     0        0.0000010        0.00481868    0.00000000
                                                     2        0.1200000       -0.04746842    0.00000000
                                                     2        0.1600000        0.09327889    0.00000000
                                                     2        0.4000000       -0.19693326    0.00000000
                                                     2        0.9000000        0.34938253    0.00000000
    5          1            1
                                      F and up 
                                                     0        0.0000010       -0.00000699    0.00000000
                                                     2        0.1200000        0.00123686    0.00000000
                                                     2        0.1800000       -0.00752022    0.00000000
                                                     2        0.2600000        0.02503380    0.00000000
                                                     2        0.4000000       -0.08702670    0.00000000
                                                     2        0.6000000        0.30134159    0.00000000
                                                     2        0.8000000       -0.50204959    0.00000000
                                                     2        1.2000000        0.52208372    0.00000000
                                      S - F
                                                     0        0.0000010       -0.01618346    0.00000000
                                                     2        0.1200000       -0.07880581    0.00000000
                                                     2        0.1600000        0.32040539    0.00000000
                                                     2        0.2400000       -0.47500956    0.00000000
                                                     2        0.5000000        0.54013668    0.00000000
                                                     2        1.5000000       -1.40434292    0.00000000
                                                     2        3.0000000        1.46283806    0.00000000
                                      P - F
                                                     0        0.0000010        0.00612970    0.00000000
                                                     2        0.1200000        0.02254406    0.00000000
                                                     2        0.1800000       -0.13874529    0.00000000
                                                     2        0.3000000        0.38299049    0.00000000
                                                     2        0.5000000       -0.57923512    0.00000000
                                                     2        1.0000000        0.63021625    0.00000000
                                                     2        2.0000000       -0.79201034    0.00000000
                                      D - F
                                                     0        0.0000010       -0.00296226    0.00000000
                                                     2        0.1200000       -0.00547344    0.00000000
                                                     2        0.1400000        0.01837884    0.00000000
                                                     2        0.2400000       -0.05565704    0.00000000
                                                     2        0.4000000        0.15376597    0.00000000
                                                     2        0.8000000       -0.32464795    0.00000000
    6          1            1
                                      F and up 
                                                     0        0.0000010       -0.00000699    0.00000000
                                                     2        0.1200000        0.00123686    0.00000000
                                                     2        0.1800000       -0.00752022    0.00000000
                                                     2        0.2600000        0.02503380    0.00000000
                                                     2        0.4000000       -0.08702670    0.00000000
                                                     2        0.6000000        0.30134159    0.00000000
                                                     2        0.8000000       -0.50204959    0.00000000
                                                     2        1.2000000        0.52208372    0.00000000
                                      S - F
                                                     0        0.0000010       -0.01618346    0.00000000
                                                     2        0.1200000       -0.07880581    0.00000000
                                                     2        0.1600000        0.32040539    0.00000000
                                                     2        0.2400000       -0.47500956    0.00000000
                                                     2        0.5000000        0.54013668    0.00000000
                                                     2        1.5000000       -1.40434292    0.00000000
                                                     2        3.0000000        1.46283806    0.00000000
                                      P - F
                                                     0        0.0000010        0.00612970    0.00000000
                                                     2        0.1200000        0.02254406    0.00000000
                                                     2        0.1800000       -0.13874529    0.00000000
                                                     2        0.3000000        0.38299049    0.00000000
                                                     2        0.5000000       -0.57923512    0.00000000
                                                     2        1.0000000        0.63021625    0.00000000
                                                     2        2.0000000       -0.79201034    0.00000000
                                      D - F
                                                     0        0.0000010       -0.00296226    0.00000000
                                                     2        0.1200000       -0.00547344    0.00000000
                                                     2        0.1400000        0.01837884    0.00000000
                                                     2        0.2400000       -0.05565704    0.00000000
                                                     2        0.4000000        0.15376597    0.00000000
                                                     2        0.8000000       -0.32464795    0.00000000
    7          1            1
                                      F and up 
                                                     0        0.0000010       -0.00000699    0.00000000
                                                     2        0.1200000        0.00123686    0.00000000
                                                     2        0.1800000       -0.00752022    0.00000000
                                                     2        0.2600000        0.02503380    0.00000000
                                                     2        0.4000000       -0.08702670    0.00000000
                                                     2        0.6000000        0.30134159    0.00000000
                                                     2        0.8000000       -0.50204959    0.00000000
                                                     2        1.2000000        0.52208372    0.00000000
                                      S - F
                                                     0        0.0000010       -0.01618346    0.00000000
                                                     2        0.1200000       -0.07880581    0.00000000
                                                     2        0.1600000        0.32040539    0.00000000
                                                     2        0.2400000       -0.47500956    0.00000000
                                                     2        0.5000000        0.54013668    0.00000000
                                                     2        1.5000000       -1.40434292    0.00000000
                                                     2        3.0000000        1.46283806    0.00000000
                                      P - F
                                                     0        0.0000010        0.00612970    0.00000000
                                                     2        0.1200000        0.02254406    0.00000000
                                                     2        0.1800000       -0.13874529    0.00000000
                                                     2        0.3000000        0.38299049    0.00000000
                                                     2        0.5000000       -0.57923512    0.00000000
                                                     2        1.0000000        0.63021625    0.00000000
                                                     2        2.0000000       -0.79201034    0.00000000
                                      D - F
                                                     0        0.0000010       -0.00296226    0.00000000
                                                     2        0.1200000       -0.00547344    0.00000000
                                                     2        0.1400000        0.01837884    0.00000000
                                                     2        0.2400000       -0.05565704    0.00000000
                                                     2        0.4000000        0.15376597    0.00000000
                                                     2        0.8000000       -0.32464795    0.00000000
    8          1            1
                                      F and up 
                                                     0        0.0000010       -0.00000699    0.00000000
                                                     2        0.1200000        0.00123686    0.00000000
                                                     2        0.1800000       -0.00752022    0.00000000
                                                     2        0.2600000        0.02503380    0.00000000
                                                     2        0.4000000       -0.08702670    0.00000000
                                                     2        0.6000000        0.30134159    0.00000000
                                                     2        0.8000000       -0.50204959    0.00000000
                                                     2        1.2000000        0.52208372    0.00000000
                                      S - F
                                                     0        0.0000010       -0.01618346    0.00000000
                                                     2        0.1200000       -0.07880581    0.00000000
                                                     2        0.1600000        0.32040539    0.00000000
                                                     2        0.2400000       -0.47500956    0.00000000
                                                     2        0.5000000        0.54013668    0.00000000
                                                     2        1.5000000       -1.40434292    0.00000000
                                                     2        3.0000000        1.46283806    0.00000000
                                      P - F
                                                     0        0.0000010        0.00612970    0.00000000
                                                     2        0.1200000        0.02254406    0.00000000
                                                     2        0.1800000       -0.13874529    0.00000000
                                                     2        0.3000000        0.38299049    0.00000000
                                                     2        0.5000000       -0.57923512    0.00000000
                                                     2        1.0000000        0.63021625    0.00000000
                                                     2        2.0000000       -0.79201034    0.00000000
                                      D - F
                                                     0        0.0000010       -0.00296226    0.00000000
                                                     2        0.1200000       -0.00547344    0.00000000
                                                     2        0.1400000        0.01837884    0.00000000
                                                     2        0.2400000       -0.05565704    0.00000000
                                                     2        0.4000000        0.15376597    0.00000000
                                                     2        0.8000000       -0.32464795    0.00000000
    9          1            1
                                      F and up 
                                                     0        0.0000010       -0.00000699    0.00000000
                                                     2        0.1200000        0.00123686    0.00000000
                                                     2        0.1800000       -0.00752022    0.00000000
                                                     2        0.2600000        0.02503380    0.00000000
                                                     2        0.4000000       -0.08702670    0.00000000
                                                     2        0.6000000        0.30134159    0.00000000
                                                     2        0.8000000       -0.50204959    0.00000000
                                                     2        1.2000000        0.52208372    0.00000000
                                      S - F
                                                     0        0.0000010       -0.01618346    0.00000000
                                                     2        0.1200000       -0.07880581    0.00000000
                                                     2        0.1600000        0.32040539    0.00000000
                                                     2        0.2400000       -0.47500956    0.00000000
                                                     2        0.5000000        0.54013668    0.00000000
                                                     2        1.5000000       -1.40434292    0.00000000
                                                     2        3.0000000        1.46283806    0.00000000
                                      P - F
                                                     0        0.0000010        0.00612970    0.00000000
                                                     2        0.1200000        0.02254406    0.00000000
                                                     2        0.1800000       -0.13874529    0.00000000
                                                     2        0.3000000        0.38299049    0.00000000
                                                     2        0.5000000       -0.57923512    0.00000000
                                                     2        1.0000000        0.63021625    0.00000000
                                                     2        2.0000000       -0.79201034    0.00000000
                                      D - F
                                                     0        0.0000010       -0.00296226    0.00000000
                                                     2        0.1200000       -0.00547344    0.00000000
                                                     2        0.1400000        0.01837884    0.00000000
                                                     2        0.2400000       -0.05565704    0.00000000
                                                     2        0.4000000        0.15376597    0.00000000
                                                     2        0.8000000       -0.32464795    0.00000000
   10          1            1
                                      F and up 
                                                     0        0.0000010       -0.00000699    0.00000000
                                                     2        0.1200000        0.00123686    0.00000000
                                                     2        0.1800000       -0.00752022    0.00000000
                                                     2        0.2600000        0.02503380    0.00000000
                                                     2        0.4000000       -0.08702670    0.00000000
                                                     2        0.6000000        0.30134159    0.00000000
                                                     2        0.8000000       -0.50204959    0.00000000
                                                     2        1.2000000        0.52208372    0.00000000
                                      S - F
                                                     0        0.0000010       -0.01618346    0.00000000
                                                     2        0.1200000       -0.07880581    0.00000000
                                                     2        0.1600000        0.32040539    0.00000000
                                                     2        0.2400000       -0.47500956    0.00000000
                                                     2        0.5000000        0.54013668    0.00000000
                                                     2        1.5000000       -1.40434292    0.00000000
                                                     2        3.0000000        1.46283806    0.00000000
                                      P - F
                                                     0        0.0000010        0.00612970    0.00000000
                                                     2        0.1200000        0.02254406    0.00000000
                                                     2        0.1800000       -0.13874529    0.00000000
                                                     2        0.3000000        0.38299049    0.00000000
                                                     2        0.5000000       -0.57923512    0.00000000
                                                     2        1.0000000        0.63021625    0.00000000
                                                     2        2.0000000       -0.79201034    0.00000000
                                      D - F
                                                     0        0.0000010       -0.00296226    0.00000000
                                                     2        0.1200000       -0.00547344    0.00000000
                                                     2        0.1400000        0.01837884    0.00000000
                                                     2        0.2400000       -0.05565704    0.00000000
                                                     2        0.4000000        0.15376597    0.00000000
                                                     2        0.8000000       -0.32464795    0.00000000
   11          1            1
                                      F and up 
                                                     0        0.0000010       -0.00000699    0.00000000
                                                     2        0.1200000        0.00123686    0.00000000
                                                     2        0.1800000       -0.00752022    0.00000000
                                                     2        0.2600000        0.02503380    0.00000000
                                                     2        0.4000000       -0.08702670    0.00000000
                                                     2        0.6000000        0.30134159    0.00000000
                                                     2        0.8000000       -0.50204959    0.00000000
                                                     2        1.2000000        0.52208372    0.00000000
                                      S - F
                                                     0        0.0000010       -0.01618346    0.00000000
                                                     2        0.1200000       -0.07880581    0.00000000
                                                     2        0.1600000        0.32040539    0.00000000
                                                     2        0.2400000       -0.47500956    0.00000000
                                                     2        0.5000000        0.54013668    0.00000000
                                                     2        1.5000000       -1.40434292    0.00000000
                                                     2        3.0000000        1.46283806    0.00000000
                                      P - F
                                                     0        0.0000010        0.00612970    0.00000000
                                                     2        0.1200000        0.02254406    0.00000000
                                                     2        0.1800000       -0.13874529    0.00000000
                                                     2        0.3000000        0.38299049    0.00000000
                                                     2        0.5000000       -0.57923512    0.00000000
                                                     2        1.0000000        0.63021625    0.00000000
                                                     2        2.0000000       -0.79201034    0.00000000
                                      D - F
                                                     0        0.0000010       -0.00296226    0.00000000
                                                     2        0.1200000       -0.00547344    0.00000000
                                                     2        0.1400000        0.01837884    0.00000000
                                                     2        0.2400000       -0.05565704    0.00000000
                                                     2        0.4000000        0.15376597    0.00000000
                                                     2        0.8000000       -0.32464795    0.00000000
   12          1            1
                                      F and up 
                                                     0        0.0000010       -0.00000699    0.00000000
                                                     2        0.1200000        0.00123686    0.00000000
                                                     2        0.1800000       -0.00752022    0.00000000
                                                     2        0.2600000        0.02503380    0.00000000
                                                     2        0.4000000       -0.08702670    0.00000000
                                                     2        0.6000000        0.30134159    0.00000000
                                                     2        0.8000000       -0.50204959    0.00000000
                                                     2        1.2000000        0.52208372    0.00000000
                                      S - F
                                                     0        0.0000010       -0.01618346    0.00000000
                                                     2        0.1200000       -0.07880581    0.00000000
                                                     2        0.1600000        0.32040539    0.00000000
                                                     2        0.2400000       -0.47500956    0.00000000
                                                     2        0.5000000        0.54013668    0.00000000
                                                     2        1.5000000       -1.40434292    0.00000000
                                                     2        3.0000000        1.46283806    0.00000000
                                      P - F
                                                     0        0.0000010        0.00612970    0.00000000
                                                     2        0.1200000        0.02254406    0.00000000
                                                     2        0.1800000       -0.13874529    0.00000000
                                                     2        0.3000000        0.38299049    0.00000000
                                                     2        0.5000000       -0.57923512    0.00000000
                                                     2        1.0000000        0.63021625    0.00000000
                                                     2        2.0000000       -0.79201034    0.00000000
                                      D - F
                                                     0        0.0000010       -0.00296226    0.00000000
                                                     2        0.1200000       -0.00547344    0.00000000
                                                     2        0.1400000        0.01837884    0.00000000
                                                     2        0.2400000       -0.05565704    0.00000000
                                                     2        0.4000000        0.15376597    0.00000000
                                                     2        0.8000000       -0.32464795    0.00000000
   13          1            1
                                      F and up 
                                                     0        0.0000010       -0.00000699    0.00000000
                                                     2        0.1200000        0.00123686    0.00000000
                                                     2        0.1800000       -0.00752022    0.00000000
                                                     2        0.2600000        0.02503380    0.00000000
                                                     2        0.4000000       -0.08702670    0.00000000
                                                     2        0.6000000        0.30134159    0.00000000
                                                     2        0.8000000       -0.50204959    0.00000000
                                                     2        1.2000000        0.52208372    0.00000000
                                      S - F
                                                     0        0.0000010       -0.01618346    0.00000000
                                                     2        0.1200000       -0.07880581    0.00000000
                                                     2        0.1600000        0.32040539    0.00000000
                                                     2        0.2400000       -0.47500956    0.00000000
                                                     2        0.5000000        0.54013668    0.00000000
                                                     2        1.5000000       -1.40434292    0.00000000
                                                     2        3.0000000        1.46283806    0.00000000
                                      P - F
                                                     0        0.0000010        0.00612970    0.00000000
                                                     2        0.1200000        0.02254406    0.00000000
                                                     2        0.1800000       -0.13874529    0.00000000
                                                     2        0.3000000        0.38299049    0.00000000
                                                     2        0.5000000       -0.57923512    0.00000000
                                                     2        1.0000000        0.63021625    0.00000000
                                                     2        2.0000000       -0.79201034    0.00000000
                                      D - F
                                                     0        0.0000010       -0.00296226    0.00000000
                                                     2        0.1200000       -0.00547344    0.00000000
                                                     2        0.1400000        0.01837884    0.00000000
                                                     2        0.2400000       -0.05565704    0.00000000
                                                     2        0.4000000        0.15376597    0.00000000
                                                     2        0.8000000       -0.32464795    0.00000000
 ======================================================================================================
   173 basis functions,   271 primitive gaussians,   181 cartesian basis functions
    16 alpha electrons       16 beta electrons
       nuclear repulsion energy       115.6921897101 Hartrees.
 NAtoms=   13 NActive=   13 NUniq=   13 SFac= 1.00D+00 NAtFMM=   60 NAOKFM=F Big=F
   1 Symmetry operations used in ECPInt.
 ECPInt:  NShTT=    3321 NPrTT=   12297 LenC2=    3322 LenP2D=   10731.
 LDataN:  DoStor=T MaxTD1= 6 Len=  172
 Initial guess from the checkpoint file:  "BDE49_nonexpt_268_mol1.chk"
 B after Tr=     0.000000   -0.000000   -0.000000
         Rot=    1.000000   -0.000000   -0.000000    0.000000 Ang=   0.00 deg.
 >>>>>>>>>> Convergence criterion not met.
 SCF Done:  E(RHF) =  -143.570201446     A.U. after    2 cycles
            NFock=  1  Conv=0.38D-02     -V/T= 2.0014

 **********************************************************************

            Population analysis using the SCF Density.

 **********************************************************************

 Orbital symmetries:
       Occupied  (A) (A) (A) (A) (A) (A) (A) (A) (A) (A) (A) (A)
                 (A) (A) (A) (A)
       Virtual   (A) (A) (A) (A) (A) (A) (A) (A) (A) (A) (A) (A)
                 (A) (A) (A) (A) (A) (A) (A) (A) (A) (A) (A) (A)
                 (A) (A) (A) (A) (A) (A) (A) (A) (A) (A) (A) (A)
                 (A) (A) (A) (A) (A) (A) (A) (A) (A) (A) (A) (A)
                 (A) (A) (A) (A) (A) (A) (A) (A) (A) (A) (A) (A)
                 (A) (A) (A) (A) (A) (A) (A) (A) (A) (A) (A) (A)
                 (A) (A) (A) (A) (A) (A) (A) (A) (A) (A) (A) (A)
                 (A) (A) (A) (A) (A) (A) (A) (A) (A) (A) (A) (A)
                 (A) (A) (A) (A) (A) (A) (A) (A) (A) (A) (A) (A)
                 (A) (A) (A) (A) (A) (A) (A) (A) (A) (A) (A) (A)
                 (A) (A) (A) (A) (A) (A) (A) (A) (A) (A) (A) (A)
                 (A) (A) (A) (A) (A) (A) (A) (A) (A) (A) (A) (A)
                 (A) (A) (A) (A) (A) (A) (A) (A) (A) (A) (A) (A)
                 (A)
 The electronic state is 1-A.
 Alpha  occ. eigenvalues --  -11.22958 -11.22296 -11.21052  -7.60822  -1.04486
 Alpha  occ. eigenvalues --   -0.92751  -0.80737  -0.66783  -0.60802  -0.60200
 Alpha  occ. eigenvalues --   -0.55413  -0.51589  -0.49746  -0.47801  -0.45161
 Alpha  occ. eigenvalues --   -0.44467
 Alpha virt. eigenvalues --    0.03308   0.04374   0.04431   0.04794   0.06199
 Alpha virt. eigenvalues --    0.06568   0.06868   0.07253   0.08247   0.09551
 Alpha virt. eigenvalues --    0.10803   0.11893   0.13035   0.13067   0.14597
 Alpha virt. eigenvalues --    0.15345   0.16217   0.16847   0.16971   0.17331
 Alpha virt. eigenvalues --    0.19007   0.19292   0.20158   0.20366   0.22927
 Alpha virt. eigenvalues --    0.24375   0.26835   0.29408   0.30171   0.31419
 Alpha virt. eigenvalues --    0.32587   0.32998   0.34512   0.35439   0.35722
 Alpha virt. eigenvalues --    0.38027   0.39107   0.40417   0.41268   0.42418
 Alpha virt. eigenvalues --    0.43877   0.44329   0.45832   0.46043   0.47067
 Alpha virt. eigenvalues --    0.48134   0.48224   0.48629   0.49958   0.50864
 Alpha virt. eigenvalues --    0.51304   0.52792   0.53423   0.55288   0.56995
 Alpha virt. eigenvalues --    0.57441   0.58217   0.59600   0.59911   0.60967
 Alpha virt. eigenvalues --    0.62357   0.63530   0.63979   0.64245   0.66487
 Alpha virt. eigenvalues --    0.66552   0.68123   0.68365   0.70903   0.72664
 Alpha virt. eigenvalues --    0.74318   0.75618   0.75988   0.77547   0.79343
 Alpha virt. eigenvalues --    0.80951   0.81319   0.82928   0.85411   0.86153
 Alpha virt. eigenvalues --    0.87592   0.89364   0.92384   0.95373   0.96504
 Alpha virt. eigenvalues --    0.97805   1.00003   1.06321   1.09979   1.10282
 Alpha virt. eigenvalues --    1.13395   1.15017   1.22507   1.23142   1.24436
 Alpha virt. eigenvalues --    1.25809   1.28632   1.30515   1.32802   1.34504
 Alpha virt. eigenvalues --    1.35910   1.40261   1.46592   1.50955   1.54651
 Alpha virt. eigenvalues --    1.56275   1.58231   1.64403   1.68893   1.72099
 Alpha virt. eigenvalues --    1.81121   1.82664   1.84220   1.85318   1.88179
 Alpha virt. eigenvalues --    1.88695   1.94515   1.95355   1.97724   1.99845
 Alpha virt. eigenvalues --    2.06304   2.09196   2.10541   2.12626   2.14163
 Alpha virt. eigenvalues --    2.14799   2.17856   2.20661   2.22640   2.26476
 Alpha virt. eigenvalues --    2.26678   2.29132   2.29378   2.33598   2.34743
 Alpha virt. eigenvalues --    2.41687   2.44294   2.48510   2.52736   2.54263
 Alpha virt. eigenvalues --    2.57451   2.61159   2.62506   2.67413   2.72344
 Alpha virt. eigenvalues --    2.76622   2.85775   2.87344   2.89628   2.93875
 Alpha virt. eigenvalues --    2.96303   3.02739   3.06535   3.09208   3.15408
 Alpha virt. eigenvalues --    3.18802   3.29807
          Condensed to atoms (all electrons):
 Mulliken charges:
               1
     1  B   -0.510163
     2  C    0.281884
     3  C    0.312340
     4  C    0.070191
     5  H   -0.219744
     6  H   -0.072590
     7  H   -0.109353
     8  H   -0.081345
     9  H   -0.148894
    10  H   -0.083609
    11  H   -0.081289
    12  H    0.326105
    13  H    0.316469
 Sum of Mulliken charges =  -0.00000
 Mulliken charges with hydrogens summed into heavy atoms:
               1
     1  B    0.132410
     2  C   -0.086755
     3  C    0.066097
     4  C   -0.111752
 Electronic spatial extent (au):  <R**2>=            370.1854
 Charge=              0.0000 electrons
 Dipole moment (field-independent basis, Debye):
    X=              0.3152    Y=              0.4746    Z=              0.1036  Tot=              0.5790

 Test job not archived.
 1\1\GINC-SE435\SP\RHF\Aug-CC-pVDZ\C3H9B1\OHZDE\09-Apr-2025\0\\#t hf au
 g-cc-pvdz iop(5/13=1,5/36=2,99/5=2) pseudo=read geom=check guess=(read
 ,tcheck) scf=(maxcycle=1)\\title\\0,1\B,0,-1.744349,-0.611687,-0.12940
 7\C,0,-0.783101,0.542631,0.271127\C,0,1.527063,-0.539554,0.177237\C,0,
 0.622626,0.579119,-0.34923\H,0,-0.737241,0.668969,1.361471\H,0,1.09653
 4,1.547145,-0.151134\H,0,0.538512,0.494462,-1.438462\H,0,1.105246,-1.5
 2559,-0.043682\H,0,-1.361846,1.430305,-0.058547\H,0,2.522065,-0.496846
 ,-0.273965\H,0,1.650982,-0.468173,1.262715\H,0,-2.74661,-0.801716,0.49
 2784\H,0,-1.545428,-1.283291,-1.098947\\Version=ES64L-G16RevC.01\State
 =1-A\HF=-143.5702014\RMSD=3.803e-03\Dipole=0.1239962,0.1867117,0.04076
 24\Quadrupole=-0.7216228,0.2955094,0.4261134,-0.9659622,0.2607777,-0.5
 25605\PG=C01 [X(C3H9B1)]\\@


 WISDOM IS KNOWING WHAT TO DO,
 SKILL IS KNOWING HOW TO DO IT,
 AND VIRTUE IS NOT DOING IT.
 Job cpu time:       0 days  0 hours  0 minutes 31.7 seconds.
 Elapsed time:       0 days  0 hours  0 minutes  2.7 seconds.
 File lengths (MBytes):  RWF=     10 Int=      0 D2E=      0 Chk=      5 Scr=      1
 Normal termination of Gaussian 16 at Wed Apr  9 00:21:47 2025.
