 Entering Gaussian System, Link 0=g16
 Input=BDE49_expt_339_mol1.gjf
 Output=BDE49_expt_339_mol1.log
 Initial command:
 /arc/software/Gaussian/g16.c01/l1.exe "/tmp/slurm/4842993/Gau-1269166.inp" -scrdir="/tmp/slurm/4842993/"
 Entering Link 1 = /arc/software/Gaussian/g16.c01/l1.exe PID=   1269167.
  
 Copyright (c) 1988-2019, Gaussian, Inc.  All Rights Reserved.
  
 This is part of the Gaussian(R) 16 program.  It is based on
 the Gaussian(R) 09 system (copyright 2009, Gaussian, Inc.),
 the Gaussian(R) 03 system (copyright 2003, Gaussian, Inc.),
 the Gaussian(R) 98 system (copyright 1998, Gaussian, Inc.),
 the Gaussian(R) 94 system (copyright 1995, Gaussian, Inc.),
 the Gaussian 92(TM) system (copyright 1992, Gaussian, Inc.),
 the Gaussian 90(TM) system (copyright 1990, Gaussian, Inc.),
 the Gaussian 88(TM) system (copyright 1988, Gaussian, Inc.),
 the Gaussian 86(TM) system (copyright 1986, Carnegie Mellon
 University), and the Gaussian 82(TM) system (copyright 1983,
 Carnegie Mellon University). Gaussian is a federally registered
 trademark of Gaussian, Inc.
  
 This software contains proprietary and confidential information,
 including trade secrets, belonging to Gaussian, Inc.
  
 This software is provided under written license and may be
 used, copied, transmitted, or stored only in accord with that
 written license.
  
 The following legend is applicable only to US Government
 contracts under FAR:
  
                    RESTRICTED RIGHTS LEGEND
  
 Use, reproduction and disclosure by the US Government is
 subject to restrictions as set forth in subparagraphs (a)
 and (c) of the Commercial Computer Software - Restricted
 Rights clause in FAR 52.227-19.
  
 Gaussian, Inc.
 340 Quinnipiac St., Bldg. 40, Wallingford CT 06492
  
  
 ---------------------------------------------------------------
 Warning -- This program may not be used in any manner that
 competes with the business of Gaussian, Inc. or will provide
 assistance to any competitor of Gaussian, Inc.  The licensee
 of this program is prohibited from giving any competitor of
 Gaussian, Inc. access to this program.  By using this program,
 the user acknowledges that Gaussian, Inc. is engaged in the
 business of creating and licensing software in the field of
 computational chemistry and represents and warrants to the
 licensee that it is not a competitor of Gaussian, Inc. and that
 it will not use this program in any manner prohibited above.
 ---------------------------------------------------------------
  

 Cite this work as:
 Gaussian 16, Revision C.01,
 M. J. Frisch, G. W. Trucks, H. B. Schlegel, G. E. Scuseria, 
 M. A. Robb, J. R. Cheeseman, G. Scalmani, V. Barone, 
 G. A. Petersson, H. Nakatsuji, X. Li, M. Caricato, A. V. Marenich, 
 J. Bloino, B. G. Janesko, R. Gomperts, B. Mennucci, H. P. Hratchian, 
 J. V. Ortiz, A. F. Izmaylov, J. L. Sonnenberg, D. Williams-Young, 
 F. Ding, F. Lipparini, F. Egidi, J. Goings, B. Peng, A. Petrone, 
 T. Henderson, D. Ranasinghe, V. G. Zakrzewski, J. Gao, N. Rega, 
 G. Zheng, W. Liang, M. Hada, M. Ehara, K. Toyota, R. Fukuda, 
 J. Hasegawa, M. Ishida, T. Nakajima, Y. Honda, O. Kitao, H. Nakai, 
 T. Vreven, K. Throssell, J. A. Montgomery, Jr., J. E. Peralta, 
 F. Ogliaro, M. J. Bearpark, J. J. Heyd, E. N. Brothers, K. N. Kudin, 
 V. N. Staroverov, T. A. Keith, R. Kobayashi, J. Normand, 
 K. Raghavachari, A. P. Rendell, J. C. Burant, S. S. Iyengar, 
 J. Tomasi, M. Cossi, J. M. Millam, M. Klene, C. Adamo, R. Cammi, 
 J. W. Ochterski, R. L. Martin, K. Morokuma, O. Farkas, 
 J. B. Foresman, and D. J. Fox, Gaussian, Inc., Wallingford CT, 2019.
 
 ******************************************
 Gaussian 16:  ES64L-G16RevC.01  3-Jul-2019
                 8-Apr-2025 
 ******************************************
 %nprocs=16
 Will use up to   16 processors via shared memory.
 %mem=30GB
 %chk=BDE49_expt_339_mol1.chk
 ----------------------------------------------------------------------
 #t hf aug-cc-pvdz symm=none int=(grid=ultrafine) guess=(read,tcheck) s
 table=(opt,rrhf)
 ----------------------------------------------------------------------
 -----
 title
 -----
 Symbolic Z-matrix:
 Charge =  0 Multiplicity = 1
 N                     0.        1.41703   0. 
 C                    -1.14059   0.72113   0. 
 C                    -1.1962   -0.67168   0. 
 C                     1.1962   -0.67168   0. 
 C                     1.14059   0.72113   0. 
 C                     0.       -1.3829    0. 
 H                     2.15311  -1.18039   0. 
 H                    0.        -2.46725   0. 
 H                    -2.05624   1.30643   0. 
 H                    -2.15311  -1.18039   0. 
 H                     2.05624   1.30643   0. 
 
                    Distance matrix (angstroms):
                    1          2          3          4          5
     1  N    0.000000
     2  C    1.336116   0.000000
     3  C    2.406986   1.393922   0.000000
     4  C    2.406987   2.720386   2.392400   0.000000
     5  C    1.336116   2.281174   2.720385   1.393922   0.000000
     6  C    2.799924   2.393300   1.391663   1.391663   2.393299
     7  H    3.373793   3.803190   3.387726   1.083730   2.154299
     8  H    3.884276   3.386255   2.157537   2.157538   3.386255
     9  H    2.059208   1.086731   2.156982   3.806738   3.249961
    10  H    3.373792   2.154299   1.083731   3.387727   3.803190
    11  H    2.059208   3.249961   3.806737   2.156982   1.086731
                    6          7          8          9         10
     6  C    0.000000
     7  H    2.162615   0.000000
     8  H    1.084352   2.508367   0.000000
     9  H    3.385348   4.889058   4.297528   0.000000
    10  H    2.162616   4.306227   2.508366   2.488705   0.000000
    11  H    3.385347   2.488705   4.297528   4.112472   4.889058
                   11
    11  H    0.000000
 Symmetry turned off by external request.
 Rotational constants (GHZ):           6.0574687           5.8292394           2.9705815
   183 basis functions,   313 primitive gaussians,   195 cartesian basis functions
    21 alpha electrons       21 beta electrons
       nuclear repulsion energy       206.2528927029 Hartrees.
 NAtoms=   11 NActive=   11 NUniq=   11 SFac= 1.00D+00 NAtFMM=   60 NAOKFM=F Big=F
 ExpMin= 2.97D-02 ExpMax= 9.05D+03 ExpMxC= 3.09D+02 IAcc=3 IRadAn=         5 AccDes= 0.00D+00
 Harris functional with IExCor=  205 and IRadAn=       5 diagonalized for initial guess.
 HarFok:  IExCor=  205 AccDes= 0.00D+00 IRadAn=         5 IDoV= 1 UseB2=F ITyADJ=14
 ICtDFT=  3500011 ScaDFX=  1.000000  1.000000  1.000000  1.000000
 FoFCou: FMM=F IPFlag=           0 FMFlag=      100000 FMFlg1=           0
         NFxFlg=           0 DoJE=T BraDBF=F KetDBF=T FulRan=T
         wScrn=  0.000000 ICntrl=       500 IOpCl=  0 I1Cent=   200000004 NGrid=           0
         NMat0=    1 NMatS0=      1 NMatT0=    0 NMatD0=    1 NMtDS0=    0 NMtDT0=    0
 Symmetry not used in FoFCou.
 SCF Done:  E(RHF) =  -246.724480131     A.U. after   13 cycles
            NFock= 13  Conv=0.85D-08     -V/T= 2.0012

 **********************************************************************

            Population analysis using the SCF Density.

 **********************************************************************

 Alpha  occ. eigenvalues --  -15.57472 -11.28222 -11.28220 -11.26699 -11.24933
 Alpha  occ. eigenvalues --  -11.24928  -1.26212  -1.09255  -1.03636  -0.86017
 Alpha  occ. eigenvalues --   -0.85873  -0.72219  -0.66225  -0.65439  -0.59870
 Alpha  occ. eigenvalues --   -0.57688  -0.54191  -0.52050  -0.41827  -0.38424
 Alpha  occ. eigenvalues --   -0.34767
 Alpha virt. eigenvalues --    0.03206   0.04043   0.04541   0.05863   0.06412
 Alpha virt. eigenvalues --    0.08717   0.10435   0.10845   0.11920   0.12117
 Alpha virt. eigenvalues --    0.13032   0.13541   0.13841   0.14607   0.14676
 Alpha virt. eigenvalues --    0.15644   0.15954   0.16654   0.17814   0.18477
 Alpha virt. eigenvalues --    0.18587   0.18665   0.19427   0.23966   0.28193
 Alpha virt. eigenvalues --    0.28664   0.29122   0.29797   0.30579   0.32636
 Alpha virt. eigenvalues --    0.33103   0.34369   0.34543   0.34646   0.35791
 Alpha virt. eigenvalues --    0.36896   0.37723   0.40536   0.41695   0.42634
 Alpha virt. eigenvalues --    0.43078   0.43299   0.44105   0.44969   0.50011
 Alpha virt. eigenvalues --    0.52677   0.54448   0.55106   0.55713   0.56040
 Alpha virt. eigenvalues --    0.56575   0.58752   0.59187   0.59832   0.61511
 Alpha virt. eigenvalues --    0.62667   0.65869   0.66310   0.68285   0.68352
 Alpha virt. eigenvalues --    0.68751   0.68773   0.69523   0.70331   0.72453
 Alpha virt. eigenvalues --    0.73920   0.74067   0.74992   0.77195   0.80159
 Alpha virt. eigenvalues --    0.81462   0.85080   0.85092   0.85669   0.88778
 Alpha virt. eigenvalues --    0.89684   0.89870   0.90681   0.91352   0.93551
 Alpha virt. eigenvalues --    0.94037   0.96658   0.98125   0.99590   1.01743
 Alpha virt. eigenvalues --    1.02957   1.07101   1.08422   1.10303   1.13711
 Alpha virt. eigenvalues --    1.14030   1.19731   1.24023   1.26681   1.30358
 Alpha virt. eigenvalues --    1.35194   1.39477   1.41379   1.44767   1.53321
 Alpha virt. eigenvalues --    1.53912   1.56321   1.56532   1.58747   1.60491
 Alpha virt. eigenvalues --    1.61209   1.61684   1.66628   1.66630   1.68428
 Alpha virt. eigenvalues --    1.69689   1.71405   1.74429   1.76579   1.77873
 Alpha virt. eigenvalues --    1.79302   1.82226   1.85019   1.91074   1.92074
 Alpha virt. eigenvalues --    1.94139   1.95150   1.95821   2.03767   2.05443
 Alpha virt. eigenvalues --    2.06915   2.08426   2.10965   2.11201   2.16718
 Alpha virt. eigenvalues --    2.19672   2.19793   2.23000   2.26148   2.27808
 Alpha virt. eigenvalues --    2.30241   2.35463   2.35642   2.43291   2.44766
 Alpha virt. eigenvalues --    2.47790   2.54636   2.61295   2.63220   2.67859
 Alpha virt. eigenvalues --    2.73732   2.78060   2.81839   2.84253   2.88998
 Alpha virt. eigenvalues --    2.96455   2.98385   2.99388   3.11273   3.12746
 Alpha virt. eigenvalues --    3.13118   3.26393   3.39154   3.40170   3.62218
 Alpha virt. eigenvalues --    3.65969   4.27726
          Condensed to atoms (all electrons):
 Mulliken charges:
               1
     1  N   -0.584227
     2  C    0.359069
     3  C    0.848677
     4  C    0.848683
     5  C    0.359068
     6  C   -0.017384
     7  H   -0.401379
     8  H   -0.381305
     9  H   -0.314912
    10  H   -0.401378
    11  H   -0.314912
 Sum of Mulliken charges =  -0.00000
 Mulliken charges with hydrogens summed into heavy atoms:
               1
     1  N   -0.584227
     2  C    0.044157
     3  C    0.447298
     4  C    0.447304
     5  C    0.044156
     6  C   -0.398689
 Electronic spatial extent (au):  <R**2>=            435.1832
 Charge=             -0.0000 electrons
 Dipole moment (field-independent basis, Debye):
    X=              0.0000    Y=             -2.3228    Z=              0.0000  Tot=              2.3228
 NROrb=    183 NOA=    21 NOB=    21 NVA=   162 NVB=   162

 **** Warning!!: The largest alpha MO coefficient is  0.83098113D+02

    12 initial guesses have been made.
 Iteration     1 Dimension    12 NMult     0 NNew     12
 Iteration     2 Dimension    24 NMult    12 NNew     12
 Iteration     3 Dimension    27 NMult    24 NNew      3
 Iteration     4 Dimension    30 NMult    27 NNew      3
 Iteration     5 Dimension    33 NMult    30 NNew      3
 ***********************************************************************
 Stability analysis using <AA,BB:AA,BB> singles matrix:
 ***********************************************************************
 Ground to excited state transition densities written to RWF  633

 Eigenvectors of the stability matrix:
 
 Excited state symmetry could not be determined.
 Eigenvector   1:      Singlet-?Sym  Eigenvalue= 0.1754171  <S**2>=0.000
      20 -> 28         0.38719
      20 -> 44        -0.17933
      21 -> 27         0.47112
      21 -> 29         0.20796
      21 -> 42        -0.17287
 The wavefunction is stable under the perturbations considered.
 The wavefunction is already stable.

 **********************************************************************

            Population analysis using the SCF Density.

 **********************************************************************

 Alpha  occ. eigenvalues --  -15.57472 -11.28222 -11.28220 -11.26699 -11.24933
 Alpha  occ. eigenvalues --  -11.24928  -1.26212  -1.09255  -1.03636  -0.86017
 Alpha  occ. eigenvalues --   -0.85873  -0.72219  -0.66225  -0.65439  -0.59870
 Alpha  occ. eigenvalues --   -0.57688  -0.54191  -0.52050  -0.41827  -0.38424
 Alpha  occ. eigenvalues --   -0.34767
 Alpha virt. eigenvalues --    0.03206   0.04043   0.04541   0.05863   0.06412
 Alpha virt. eigenvalues --    0.08717   0.10435   0.10845   0.11920   0.12117
 Alpha virt. eigenvalues --    0.13032   0.13541   0.13841   0.14607   0.14676
 Alpha virt. eigenvalues --    0.15644   0.15954   0.16654   0.17814   0.18477
 Alpha virt. eigenvalues --    0.18587   0.18665   0.19427   0.23966   0.28193
 Alpha virt. eigenvalues --    0.28664   0.29122   0.29797   0.30579   0.32636
 Alpha virt. eigenvalues --    0.33103   0.34369   0.34543   0.34646   0.35791
 Alpha virt. eigenvalues --    0.36896   0.37723   0.40536   0.41695   0.42634
 Alpha virt. eigenvalues --    0.43078   0.43299   0.44105   0.44969   0.50011
 Alpha virt. eigenvalues --    0.52677   0.54448   0.55106   0.55713   0.56040
 Alpha virt. eigenvalues --    0.56575   0.58752   0.59187   0.59832   0.61511
 Alpha virt. eigenvalues --    0.62667   0.65869   0.66310   0.68285   0.68352
 Alpha virt. eigenvalues --    0.68751   0.68773   0.69523   0.70331   0.72453
 Alpha virt. eigenvalues --    0.73920   0.74067   0.74992   0.77195   0.80159
 Alpha virt. eigenvalues --    0.81462   0.85080   0.85092   0.85669   0.88778
 Alpha virt. eigenvalues --    0.89684   0.89870   0.90681   0.91352   0.93551
 Alpha virt. eigenvalues --    0.94037   0.96658   0.98125   0.99590   1.01743
 Alpha virt. eigenvalues --    1.02957   1.07101   1.08422   1.10303   1.13711
 Alpha virt. eigenvalues --    1.14030   1.19731   1.24023   1.26681   1.30358
 Alpha virt. eigenvalues --    1.35194   1.39477   1.41379   1.44767   1.53321
 Alpha virt. eigenvalues --    1.53912   1.56321   1.56532   1.58747   1.60491
 Alpha virt. eigenvalues --    1.61209   1.61684   1.66628   1.66630   1.68428
 Alpha virt. eigenvalues --    1.69689   1.71405   1.74429   1.76579   1.77873
 Alpha virt. eigenvalues --    1.79302   1.82226   1.85019   1.91074   1.92074
 Alpha virt. eigenvalues --    1.94139   1.95150   1.95821   2.03767   2.05443
 Alpha virt. eigenvalues --    2.06915   2.08426   2.10965   2.11201   2.16718
 Alpha virt. eigenvalues --    2.19672   2.19793   2.23000   2.26148   2.27808
 Alpha virt. eigenvalues --    2.30241   2.35463   2.35642   2.43291   2.44766
 Alpha virt. eigenvalues --    2.47790   2.54636   2.61295   2.63220   2.67859
 Alpha virt. eigenvalues --    2.73732   2.78060   2.81839   2.84253   2.88998
 Alpha virt. eigenvalues --    2.96455   2.98385   2.99388   3.11273   3.12746
 Alpha virt. eigenvalues --    3.13118   3.26393   3.39154   3.40170   3.62218
 Alpha virt. eigenvalues --    3.65969   4.27726
          Condensed to atoms (all electrons):
 Mulliken charges:
               1
     1  N   -0.584227
     2  C    0.359069
     3  C    0.848677
     4  C    0.848683
     5  C    0.359068
     6  C   -0.017384
     7  H   -0.401379
     8  H   -0.381305
     9  H   -0.314912
    10  H   -0.401378
    11  H   -0.314912
 Sum of Mulliken charges =  -0.00000
 Mulliken charges with hydrogens summed into heavy atoms:
               1
     1  N   -0.584227
     2  C    0.044157
     3  C    0.447298
     4  C    0.447304
     5  C    0.044156
     6  C   -0.398689
 Electronic spatial extent (au):  <R**2>=            435.1832
 Charge=             -0.0000 electrons
 Dipole moment (field-independent basis, Debye):
    X=              0.0000    Y=             -2.3228    Z=              0.0000  Tot=              2.3228
 Unable to Open any file for archive entry.
 1\1\GINC-SE128\Stability\RHF\Aug-CC-pVDZ\C5H5N1\OHZDE\08-Apr-2025\0\\#
 t hf aug-cc-pvdz symm=none int=(grid=ultrafine) guess=(read,tcheck) st
 able=(opt,rrhf)\\title\\0,1\N,0,0.,1.417025,0.\C,0,-1.140587,0.721132,
 0.\C,0,-1.1962,-0.67168,0.\C,0,1.1962,-0.671681,0.\C,0,1.140587,0.7211
 31,0.\C,0,0.,-1.382899,0.\H,0,2.153113,-1.180393,0.\H,0,-0.000001,-2.4
 67251,0.\H,0,-2.056236,1.306427,0.\H,0,-2.153114,-1.180392,0.\H,0,2.05
 6236,1.306426,0.\\Version=ES64L-G16RevC.01\HF=-246.7244801\RMSD=8.474e
 -09\Dipole=0.0000001,-0.9138547,0.\Quadrupole=4.2152509,-1.1899472,-3.
 0253037,-0.0000035,0.,0.\PG=Unknown\\@
 The archive entry for this job was punched.


 10 WHATSOEVER THY HAND FINDETH TO DO, DO IT WITH THY  
 MIGHT. FOR THERE IS NO WORK, NOR DEVICE, NOR KNOWLEDGE, NOR  
 WISDOM, IN THE GRAVE, WHITHER THOU GOEST.                    
 11 I RETURNED AND SAW UNDER THE SUN, THAT THE RACE IS NOT TO 
 THE SWIFT, NOR THE BATTLE TO THE STRONG, NEITHER YET BREAD TO
 THE WISE, NOR YET RICHES TO MEN OF UNDERSTANDING, NOR YET    
 FAVOR TO MEN OF SKILL. BUT TIME AND CHANCE HAPPEN TO THEM ALL.
 12 FOR MAN ALSO KNOWETH NOT HIS TIME. AS THE FISHES   
 THAT ARE TAKEN IN AN EVIL NET, AND AS THE BIRDS THAT ARE     
 CAUGHT IN THE SNARE. SO ARE THE SONS OF MEN SNARED IN AN EVIL
 TIME, WHEN IT FALLETH SUDDENLY UPON THEM.
                                         ECCLESIASTES 9
 Job cpu time:       0 days  0 hours  1 minutes 30.3 seconds.
 Elapsed time:       0 days  0 hours  0 minutes 10.8 seconds.
 File lengths (MBytes):  RWF=    164 Int=      0 D2E=      0 Chk=      5 Scr=      1
 Normal termination of Gaussian 16 at Tue Apr  8 23:01:45 2025.
 Initial command:
 /arc/software/Gaussian/g16.c01/l1.exe "/tmp/slurm/4842993/Gau-1269166.inp" -scrdir="/tmp/slurm/4842993/"
 Entering Link 1 = /arc/software/Gaussian/g16.c01/l1.exe PID=   1269410.
  
 Copyright (c) 1988-2019, Gaussian, Inc.  All Rights Reserved.
  
 This is part of the Gaussian(R) 16 program.  It is based on
 the Gaussian(R) 09 system (copyright 2009, Gaussian, Inc.),
 the Gaussian(R) 03 system (copyright 2003, Gaussian, Inc.),
 the Gaussian(R) 98 system (copyright 1998, Gaussian, Inc.),
 the Gaussian(R) 94 system (copyright 1995, Gaussian, Inc.),
 the Gaussian 92(TM) system (copyright 1992, Gaussian, Inc.),
 the Gaussian 90(TM) system (copyright 1990, Gaussian, Inc.),
 the Gaussian 88(TM) system (copyright 1988, Gaussian, Inc.),
 the Gaussian 86(TM) system (copyright 1986, Carnegie Mellon
 University), and the Gaussian 82(TM) system (copyright 1983,
 Carnegie Mellon University). Gaussian is a federally registered
 trademark of Gaussian, Inc.
  
 This software contains proprietary and confidential information,
 including trade secrets, belonging to Gaussian, Inc.
  
 This software is provided under written license and may be
 used, copied, transmitted, or stored only in accord with that
 written license.
  
 The following legend is applicable only to US Government
 contracts under FAR:
  
                    RESTRICTED RIGHTS LEGEND
  
 Use, reproduction and disclosure by the US Government is
 subject to restrictions as set forth in subparagraphs (a)
 and (c) of the Commercial Computer Software - Restricted
 Rights clause in FAR 52.227-19.
  
 Gaussian, Inc.
 340 Quinnipiac St., Bldg. 40, Wallingford CT 06492
  
  
 ---------------------------------------------------------------
 Warning -- This program may not be used in any manner that
 competes with the business of Gaussian, Inc. or will provide
 assistance to any competitor of Gaussian, Inc.  The licensee
 of this program is prohibited from giving any competitor of
 Gaussian, Inc. access to this program.  By using this program,
 the user acknowledges that Gaussian, Inc. is engaged in the
 business of creating and licensing software in the field of
 computational chemistry and represents and warrants to the
 licensee that it is not a competitor of Gaussian, Inc. and that
 it will not use this program in any manner prohibited above.
 ---------------------------------------------------------------
  

 Cite this work as:
 Gaussian 16, Revision C.01,
 M. J. Frisch, G. W. Trucks, H. B. Schlegel, G. E. Scuseria, 
 M. A. Robb, J. R. Cheeseman, G. Scalmani, V. Barone, 
 G. A. Petersson, H. Nakatsuji, X. Li, M. Caricato, A. V. Marenich, 
 J. Bloino, B. G. Janesko, R. Gomperts, B. Mennucci, H. P. Hratchian, 
 J. V. Ortiz, A. F. Izmaylov, J. L. Sonnenberg, D. Williams-Young, 
 F. Ding, F. Lipparini, F. Egidi, J. Goings, B. Peng, A. Petrone, 
 T. Henderson, D. Ranasinghe, V. G. Zakrzewski, J. Gao, N. Rega, 
 G. Zheng, W. Liang, M. Hada, M. Ehara, K. Toyota, R. Fukuda, 
 J. Hasegawa, M. Ishida, T. Nakajima, Y. Honda, O. Kitao, H. Nakai, 
 T. Vreven, K. Throssell, J. A. Montgomery, Jr., J. E. Peralta, 
 F. Ogliaro, M. J. Bearpark, J. J. Heyd, E. N. Brothers, K. N. Kudin, 
 V. N. Staroverov, T. A. Keith, R. Kobayashi, J. Normand, 
 K. Raghavachari, A. P. Rendell, J. C. Burant, S. S. Iyengar, 
 J. Tomasi, M. Cossi, J. M. Millam, M. Klene, C. Adamo, R. Cammi, 
 J. W. Ochterski, R. L. Martin, K. Morokuma, O. Farkas, 
 J. B. Foresman, and D. J. Fox, Gaussian, Inc., Wallingford CT, 2019.
 
 ******************************************
 Gaussian 16:  ES64L-G16RevC.01  3-Jul-2019
                 8-Apr-2025 
 ******************************************
 %nprocs=16
 Will use up to   16 processors via shared memory.
 %mem=30GB
 %chk=BDE49_expt_339_mol1.chk
 ----------------------------------------------------------------------
 #t hf aug-cc-pvdz iop(5/13=1,5/36=2,99/5=2) pseudo=read geom=check gue
 ss=(read,tcheck) scf=(maxcycle=1)
 ----------------------------------------------------------------------
 -----
 title
 -----
 Structure from the checkpoint file:  "BDE49_expt_339_mol1.chk"
 Charge =  0 Multiplicity = 1
 Z-Matrix found in chk file.
 N,0,0.,1.417025,0.
 C,0,-1.140587,0.721132,0.
 C,0,-1.1962,-0.67168,0.
 C,0,1.1962,-0.671681,0.
 C,0,1.140587,0.721131,0.
 C,0,0.,-1.382899,0.
 H,0,2.153113,-1.180393,0.
 H,0,-0.000001,-2.467251,0.
 H,0,-2.056236,1.306427,0.
 H,0,-2.153114,-1.180392,0.
 H,0,2.056236,1.306426,0.
 Recover connectivity data from disk.
                    Distance matrix (angstroms):
                    1          2          3          4          5
     1  N    0.000000
     2  C    1.336116   0.000000
     3  C    2.406986   1.393922   0.000000
     4  C    2.406987   2.720386   2.392400   0.000000
     5  C    1.336116   2.281174   2.720385   1.393922   0.000000
     6  C    2.799924   2.393300   1.391663   1.391663   2.393299
     7  H    3.373793   3.803190   3.387726   1.083730   2.154299
     8  H    3.884276   3.386255   2.157537   2.157538   3.386255
     9  H    2.059208   1.086731   2.156982   3.806738   3.249961
    10  H    3.373792   2.154299   1.083731   3.387727   3.803190
    11  H    2.059208   3.249961   3.806737   2.156982   1.086731
                    6          7          8          9         10
     6  C    0.000000
     7  H    2.162615   0.000000
     8  H    1.084352   2.508367   0.000000
     9  H    3.385348   4.889058   4.297528   0.000000
    10  H    2.162616   4.306227   2.508366   2.488705   0.000000
    11  H    3.385347   2.488705   4.297528   4.112472   4.889058
                   11
    11  H    0.000000
 Framework group  CS[SG(C5H5N)]
 Deg. of freedom    19
                         Standard orientation:                         
 ---------------------------------------------------------------------
 Center     Atomic      Atomic             Coordinates (Angstroms)
 Number     Number       Type             X           Y           Z
 ---------------------------------------------------------------------
      1          7           0       -1.417025    0.000001   -0.000000
      2          6           0       -0.721131    1.140587   -0.000000
      3          6           0        0.671681    1.196200   -0.000000
      4          6           0        0.671681   -1.196200    0.000000
      5          6           0       -0.721131   -1.140587    0.000000
      6          6           0        1.382899   -0.000001    0.000000
      7          1           0        1.180392   -2.153114    0.000000
      8          1           0        2.467251   -0.000000    0.000000
      9          1           0       -1.306426    2.056236   -0.000000
     10          1           0        1.180393    2.153113   -0.000000
     11          1           0       -1.306427   -2.056236    0.000000
 ---------------------------------------------------------------------
 Rotational constants (GHZ):           6.0574687           5.8292394           2.9705815
 ======================================================================================================
                                       Pseudopotential Parameters
 ======================================================================================================
  Center     Atomic      Valence      Angular      Power
  Number     Number     Electrons     Momentum     of R      Exponent        Coefficient   SO-Coeffient
 ======================================================================================================
    1          7            7
                                      G and up 
                                                     0        0.0000010       -0.00000022    0.00000000
                                                     2        0.1200000       -0.00992020    0.00000000
                                                     2        0.1400000        0.02578711    0.00000000
                                                     2        0.2200000       -0.10543517    0.00000000
                                                     2        0.3000000        0.23013665    0.00000000
                                                     2        0.5000000       -0.60834094    0.00000000
                                                     2        0.8000000        1.81436815    0.00000000
                                                     2        1.2000000       -3.87539738    0.00000000
                                                     2        2.0000000        2.94656640    0.00000000
                                      S - G
                                                     0        0.0000010       -0.00223566    0.00000000
                                                     2        0.1200000        0.45247937    0.00000000
                                                     2        0.1600000       -0.78978304    0.00000000
                                                     2        0.4000000        0.84956595    0.00000000
                                                     2        3.0000000       -0.75910174    0.00000000
                                      P - G
                                                     0        0.0000010       -0.25576737    0.00000000
                                                     2        0.1200000       -0.19992277    0.00000000
                                                     2        0.1600000        0.88518512    0.00000000
                                                     2        0.2400000       -1.33293917    0.00000000
                                                     2        0.4000000        1.33451776    0.00000000
                                                     2        0.9000000       -0.55709210    0.00000000
                                                     2        2.5000000        2.48506502    0.00000000
                                      D - G
                                                     0        0.0000010        0.26143746    0.00000000
                                                     2        0.1200000       -0.04492212    0.00000000
                                                     2        0.1400000       -0.18274021    0.00000000
                                                     2        0.2400000        0.53490004    0.00000000
                                                     2        0.4000000       -0.74136473    0.00000000
                                                     2        1.3000000        1.71401021    0.00000000
                                      F - G
                                                     0        0.0000010       -0.07169988    0.00000000
                                                     2        0.1200000        0.04480029    0.00000000
                                                     2        0.2600000       -0.08050831    0.00000000
                                                     2        0.5000000        0.31290809    0.00000000
                                                     2        1.0000000       -0.45253098    0.00000000
    2          6            6
                                      G and up 
                                                     0        0.0000010       -0.00011185    0.00000000
                                                     2        0.1200000       -0.02301220    0.00000000
                                                     2        0.1400000        0.13317600    0.00000000
                                                     2        0.1600000       -0.19690668    0.00000000
                                                     2        0.2200000        0.23163694    0.00000000
                                                     2        0.3000000       -0.36920489    0.00000000
                                                     2        0.4000000        0.36389709    0.00000000
                                                     2        0.7000000       -0.38862160    0.00000000
                                                     2        1.3000000        0.80803421    0.00000000
                                      S - G
                                                     0        0.0000010        0.00312304    0.00000000
                                                     2        0.1200000       -0.00632892    0.00000000
                                                     2        0.2200000       -0.03780897    0.00000000
                                                     2        0.4000000        0.26269560    0.00000000
                                                     2        0.9000000       -0.28209514    0.00000000
                                                     2        1.5000000       -0.72686737    0.00000000
                                      P - G
                                                     0        0.0000010       -0.01465594    0.00000000
                                                     2        0.1200000        0.07908409    0.00000000
                                                     2        0.1800000       -0.30615861    0.00000000
                                                     2        0.2600000        0.41506950    0.00000000
                                                     2        0.5000000       -0.36252345    0.00000000
                                                     2        0.9000000        0.15124193    0.00000000
                                                     2        3.0000000       -0.80425677    0.00000000
                                      D - G
                                                     0        0.0000010        0.01149631    0.00000000
                                                     2        0.1200000       -0.04713561    0.00000000
                                                     2        0.1600000        0.10865096    0.00000000
                                                     2        0.2800000       -0.15816701    0.00000000
                                                     2        0.7000000        0.65478804    0.00000000
                                                     2        1.3000000       -1.73816624    0.00000000
                                      F - G
                                                     0        0.0000010        0.00481868    0.00000000
                                                     2        0.1200000       -0.04746842    0.00000000
                                                     2        0.1600000        0.09327889    0.00000000
                                                     2        0.4000000       -0.19693326    0.00000000
                                                     2        0.9000000        0.34938253    0.00000000
    3          6            6
                                      G and up 
                                                     0        0.0000010       -0.00011185    0.00000000
                                                     2        0.1200000       -0.02301220    0.00000000
                                                     2        0.1400000        0.13317600    0.00000000
                                                     2        0.1600000       -0.19690668    0.00000000
                                                     2        0.2200000        0.23163694    0.00000000
                                                     2        0.3000000       -0.36920489    0.00000000
                                                     2        0.4000000        0.36389709    0.00000000
                                                     2        0.7000000       -0.38862160    0.00000000
                                                     2        1.3000000        0.80803421    0.00000000
                                      S - G
                                                     0        0.0000010        0.00312304    0.00000000
                                                     2        0.1200000       -0.00632892    0.00000000
                                                     2        0.2200000       -0.03780897    0.00000000
                                                     2        0.4000000        0.26269560    0.00000000
                                                     2        0.9000000       -0.28209514    0.00000000
                                                     2        1.5000000       -0.72686737    0.00000000
                                      P - G
                                                     0        0.0000010       -0.01465594    0.00000000
                                                     2        0.1200000        0.07908409    0.00000000
                                                     2        0.1800000       -0.30615861    0.00000000
                                                     2        0.2600000        0.41506950    0.00000000
                                                     2        0.5000000       -0.36252345    0.00000000
                                                     2        0.9000000        0.15124193    0.00000000
                                                     2        3.0000000       -0.80425677    0.00000000
                                      D - G
                                                     0        0.0000010        0.01149631    0.00000000
                                                     2        0.1200000       -0.04713561    0.00000000
                                                     2        0.1600000        0.10865096    0.00000000
                                                     2        0.2800000       -0.15816701    0.00000000
                                                     2        0.7000000        0.65478804    0.00000000
                                                     2        1.3000000       -1.73816624    0.00000000
                                      F - G
                                                     0        0.0000010        0.00481868    0.00000000
                                                     2        0.1200000       -0.04746842    0.00000000
                                                     2        0.1600000        0.09327889    0.00000000
                                                     2        0.4000000       -0.19693326    0.00000000
                                                     2        0.9000000        0.34938253    0.00000000
    4          6            6
                                      G and up 
                                                     0        0.0000010       -0.00011185    0.00000000
                                                     2        0.1200000       -0.02301220    0.00000000
                                                     2        0.1400000        0.13317600    0.00000000
                                                     2        0.1600000       -0.19690668    0.00000000
                                                     2        0.2200000        0.23163694    0.00000000
                                                     2        0.3000000       -0.36920489    0.00000000
                                                     2        0.4000000        0.36389709    0.00000000
                                                     2        0.7000000       -0.38862160    0.00000000
                                                     2        1.3000000        0.80803421    0.00000000
                                      S - G
                                                     0        0.0000010        0.00312304    0.00000000
                                                     2        0.1200000       -0.00632892    0.00000000
                                                     2        0.2200000       -0.03780897    0.00000000
                                                     2        0.4000000        0.26269560    0.00000000
                                                     2        0.9000000       -0.28209514    0.00000000
                                                     2        1.5000000       -0.72686737    0.00000000
                                      P - G
                                                     0        0.0000010       -0.01465594    0.00000000
                                                     2        0.1200000        0.07908409    0.00000000
                                                     2        0.1800000       -0.30615861    0.00000000
                                                     2        0.2600000        0.41506950    0.00000000
                                                     2        0.5000000       -0.36252345    0.00000000
                                                     2        0.9000000        0.15124193    0.00000000
                                                     2        3.0000000       -0.80425677    0.00000000
                                      D - G
                                                     0        0.0000010        0.01149631    0.00000000
                                                     2        0.1200000       -0.04713561    0.00000000
                                                     2        0.1600000        0.10865096    0.00000000
                                                     2        0.2800000       -0.15816701    0.00000000
                                                     2        0.7000000        0.65478804    0.00000000
                                                     2        1.3000000       -1.73816624    0.00000000
                                      F - G
                                                     0        0.0000010        0.00481868    0.00000000
                                                     2        0.1200000       -0.04746842    0.00000000
                                                     2        0.1600000        0.09327889    0.00000000
                                                     2        0.4000000       -0.19693326    0.00000000
                                                     2        0.9000000        0.34938253    0.00000000
    5          6            6
                                      G and up 
                                                     0        0.0000010       -0.00011185    0.00000000
                                                     2        0.1200000       -0.02301220    0.00000000
                                                     2        0.1400000        0.13317600    0.00000000
                                                     2        0.1600000       -0.19690668    0.00000000
                                                     2        0.2200000        0.23163694    0.00000000
                                                     2        0.3000000       -0.36920489    0.00000000
                                                     2        0.4000000        0.36389709    0.00000000
                                                     2        0.7000000       -0.38862160    0.00000000
                                                     2        1.3000000        0.80803421    0.00000000
                                      S - G
                                                     0        0.0000010        0.00312304    0.00000000
                                                     2        0.1200000       -0.00632892    0.00000000
                                                     2        0.2200000       -0.03780897    0.00000000
                                                     2        0.4000000        0.26269560    0.00000000
                                                     2        0.9000000       -0.28209514    0.00000000
                                                     2        1.5000000       -0.72686737    0.00000000
                                      P - G
                                                     0        0.0000010       -0.01465594    0.00000000
                                                     2        0.1200000        0.07908409    0.00000000
                                                     2        0.1800000       -0.30615861    0.00000000
                                                     2        0.2600000        0.41506950    0.00000000
                                                     2        0.5000000       -0.36252345    0.00000000
                                                     2        0.9000000        0.15124193    0.00000000
                                                     2        3.0000000       -0.80425677    0.00000000
                                      D - G
                                                     0        0.0000010        0.01149631    0.00000000
                                                     2        0.1200000       -0.04713561    0.00000000
                                                     2        0.1600000        0.10865096    0.00000000
                                                     2        0.2800000       -0.15816701    0.00000000
                                                     2        0.7000000        0.65478804    0.00000000
                                                     2        1.3000000       -1.73816624    0.00000000
                                      F - G
                                                     0        0.0000010        0.00481868    0.00000000
                                                     2        0.1200000       -0.04746842    0.00000000
                                                     2        0.1600000        0.09327889    0.00000000
                                                     2        0.4000000       -0.19693326    0.00000000
                                                     2        0.9000000        0.34938253    0.00000000
    6          6            6
                                      G and up 
                                                     0        0.0000010       -0.00011185    0.00000000
                                                     2        0.1200000       -0.02301220    0.00000000
                                                     2        0.1400000        0.13317600    0.00000000
                                                     2        0.1600000       -0.19690668    0.00000000
                                                     2        0.2200000        0.23163694    0.00000000
                                                     2        0.3000000       -0.36920489    0.00000000
                                                     2        0.4000000        0.36389709    0.00000000
                                                     2        0.7000000       -0.38862160    0.00000000
                                                     2        1.3000000        0.80803421    0.00000000
                                      S - G
                                                     0        0.0000010        0.00312304    0.00000000
                                                     2        0.1200000       -0.00632892    0.00000000
                                                     2        0.2200000       -0.03780897    0.00000000
                                                     2        0.4000000        0.26269560    0.00000000
                                                     2        0.9000000       -0.28209514    0.00000000
                                                     2        1.5000000       -0.72686737    0.00000000
                                      P - G
                                                     0        0.0000010       -0.01465594    0.00000000
                                                     2        0.1200000        0.07908409    0.00000000
                                                     2        0.1800000       -0.30615861    0.00000000
                                                     2        0.2600000        0.41506950    0.00000000
                                                     2        0.5000000       -0.36252345    0.00000000
                                                     2        0.9000000        0.15124193    0.00000000
                                                     2        3.0000000       -0.80425677    0.00000000
                                      D - G
                                                     0        0.0000010        0.01149631    0.00000000
                                                     2        0.1200000       -0.04713561    0.00000000
                                                     2        0.1600000        0.10865096    0.00000000
                                                     2        0.2800000       -0.15816701    0.00000000
                                                     2        0.7000000        0.65478804    0.00000000
                                                     2        1.3000000       -1.73816624    0.00000000
                                      F - G
                                                     0        0.0000010        0.00481868    0.00000000
                                                     2        0.1200000       -0.04746842    0.00000000
                                                     2        0.1600000        0.09327889    0.00000000
                                                     2        0.4000000       -0.19693326    0.00000000
                                                     2        0.9000000        0.34938253    0.00000000
    7          1            1
                                      F and up 
                                                     0        0.0000010       -0.00000699    0.00000000
                                                     2        0.1200000        0.00123686    0.00000000
                                                     2        0.1800000       -0.00752022    0.00000000
                                                     2        0.2600000        0.02503380    0.00000000
                                                     2        0.4000000       -0.08702670    0.00000000
                                                     2        0.6000000        0.30134159    0.00000000
                                                     2        0.8000000       -0.50204959    0.00000000
                                                     2        1.2000000        0.52208372    0.00000000
                                      S - F
                                                     0        0.0000010       -0.01618346    0.00000000
                                                     2        0.1200000       -0.07880581    0.00000000
                                                     2        0.1600000        0.32040539    0.00000000
                                                     2        0.2400000       -0.47500956    0.00000000
                                                     2        0.5000000        0.54013668    0.00000000
                                                     2        1.5000000       -1.40434292    0.00000000
                                                     2        3.0000000        1.46283806    0.00000000
                                      P - F
                                                     0        0.0000010        0.00612970    0.00000000
                                                     2        0.1200000        0.02254406    0.00000000
                                                     2        0.1800000       -0.13874529    0.00000000
                                                     2        0.3000000        0.38299049    0.00000000
                                                     2        0.5000000       -0.57923512    0.00000000
                                                     2        1.0000000        0.63021625    0.00000000
                                                     2        2.0000000       -0.79201034    0.00000000
                                      D - F
                                                     0        0.0000010       -0.00296226    0.00000000
                                                     2        0.1200000       -0.00547344    0.00000000
                                                     2        0.1400000        0.01837884    0.00000000
                                                     2        0.2400000       -0.05565704    0.00000000
                                                     2        0.4000000        0.15376597    0.00000000
                                                     2        0.8000000       -0.32464795    0.00000000
    8          1            1
                                      F and up 
                                                     0        0.0000010       -0.00000699    0.00000000
                                                     2        0.1200000        0.00123686    0.00000000
                                                     2        0.1800000       -0.00752022    0.00000000
                                                     2        0.2600000        0.02503380    0.00000000
                                                     2        0.4000000       -0.08702670    0.00000000
                                                     2        0.6000000        0.30134159    0.00000000
                                                     2        0.8000000       -0.50204959    0.00000000
                                                     2        1.2000000        0.52208372    0.00000000
                                      S - F
                                                     0        0.0000010       -0.01618346    0.00000000
                                                     2        0.1200000       -0.07880581    0.00000000
                                                     2        0.1600000        0.32040539    0.00000000
                                                     2        0.2400000       -0.47500956    0.00000000
                                                     2        0.5000000        0.54013668    0.00000000
                                                     2        1.5000000       -1.40434292    0.00000000
                                                     2        3.0000000        1.46283806    0.00000000
                                      P - F
                                                     0        0.0000010        0.00612970    0.00000000
                                                     2        0.1200000        0.02254406    0.00000000
                                                     2        0.1800000       -0.13874529    0.00000000
                                                     2        0.3000000        0.38299049    0.00000000
                                                     2        0.5000000       -0.57923512    0.00000000
                                                     2        1.0000000        0.63021625    0.00000000
                                                     2        2.0000000       -0.79201034    0.00000000
                                      D - F
                                                     0        0.0000010       -0.00296226    0.00000000
                                                     2        0.1200000       -0.00547344    0.00000000
                                                     2        0.1400000        0.01837884    0.00000000
                                                     2        0.2400000       -0.05565704    0.00000000
                                                     2        0.4000000        0.15376597    0.00000000
                                                     2        0.8000000       -0.32464795    0.00000000
    9          1            1
                                      F and up 
                                                     0        0.0000010       -0.00000699    0.00000000
                                                     2        0.1200000        0.00123686    0.00000000
                                                     2        0.1800000       -0.00752022    0.00000000
                                                     2        0.2600000        0.02503380    0.00000000
                                                     2        0.4000000       -0.08702670    0.00000000
                                                     2        0.6000000        0.30134159    0.00000000
                                                     2        0.8000000       -0.50204959    0.00000000
                                                     2        1.2000000        0.52208372    0.00000000
                                      S - F
                                                     0        0.0000010       -0.01618346    0.00000000
                                                     2        0.1200000       -0.07880581    0.00000000
                                                     2        0.1600000        0.32040539    0.00000000
                                                     2        0.2400000       -0.47500956    0.00000000
                                                     2        0.5000000        0.54013668    0.00000000
                                                     2        1.5000000       -1.40434292    0.00000000
                                                     2        3.0000000        1.46283806    0.00000000
                                      P - F
                                                     0        0.0000010        0.00612970    0.00000000
                                                     2        0.1200000        0.02254406    0.00000000
                                                     2        0.1800000       -0.13874529    0.00000000
                                                     2        0.3000000        0.38299049    0.00000000
                                                     2        0.5000000       -0.57923512    0.00000000
                                                     2        1.0000000        0.63021625    0.00000000
                                                     2        2.0000000       -0.79201034    0.00000000
                                      D - F
                                                     0        0.0000010       -0.00296226    0.00000000
                                                     2        0.1200000       -0.00547344    0.00000000
                                                     2        0.1400000        0.01837884    0.00000000
                                                     2        0.2400000       -0.05565704    0.00000000
                                                     2        0.4000000        0.15376597    0.00000000
                                                     2        0.8000000       -0.32464795    0.00000000
   10          1            1
                                      F and up 
                                                     0        0.0000010       -0.00000699    0.00000000
                                                     2        0.1200000        0.00123686    0.00000000
                                                     2        0.1800000       -0.00752022    0.00000000
                                                     2        0.2600000        0.02503380    0.00000000
                                                     2        0.4000000       -0.08702670    0.00000000
                                                     2        0.6000000        0.30134159    0.00000000
                                                     2        0.8000000       -0.50204959    0.00000000
                                                     2        1.2000000        0.52208372    0.00000000
                                      S - F
                                                     0        0.0000010       -0.01618346    0.00000000
                                                     2        0.1200000       -0.07880581    0.00000000
                                                     2        0.1600000        0.32040539    0.00000000
                                                     2        0.2400000       -0.47500956    0.00000000
                                                     2        0.5000000        0.54013668    0.00000000
                                                     2        1.5000000       -1.40434292    0.00000000
                                                     2        3.0000000        1.46283806    0.00000000
                                      P - F
                                                     0        0.0000010        0.00612970    0.00000000
                                                     2        0.1200000        0.02254406    0.00000000
                                                     2        0.1800000       -0.13874529    0.00000000
                                                     2        0.3000000        0.38299049    0.00000000
                                                     2        0.5000000       -0.57923512    0.00000000
                                                     2        1.0000000        0.63021625    0.00000000
                                                     2        2.0000000       -0.79201034    0.00000000
                                      D - F
                                                     0        0.0000010       -0.00296226    0.00000000
                                                     2        0.1200000       -0.00547344    0.00000000
                                                     2        0.1400000        0.01837884    0.00000000
                                                     2        0.2400000       -0.05565704    0.00000000
                                                     2        0.4000000        0.15376597    0.00000000
                                                     2        0.8000000       -0.32464795    0.00000000
   11          1            1
                                      F and up 
                                                     0        0.0000010       -0.00000699    0.00000000
                                                     2        0.1200000        0.00123686    0.00000000
                                                     2        0.1800000       -0.00752022    0.00000000
                                                     2        0.2600000        0.02503380    0.00000000
                                                     2        0.4000000       -0.08702670    0.00000000
                                                     2        0.6000000        0.30134159    0.00000000
                                                     2        0.8000000       -0.50204959    0.00000000
                                                     2        1.2000000        0.52208372    0.00000000
                                      S - F
                                                     0        0.0000010       -0.01618346    0.00000000
                                                     2        0.1200000       -0.07880581    0.00000000
                                                     2        0.1600000        0.32040539    0.00000000
                                                     2        0.2400000       -0.47500956    0.00000000
                                                     2        0.5000000        0.54013668    0.00000000
                                                     2        1.5000000       -1.40434292    0.00000000
                                                     2        3.0000000        1.46283806    0.00000000
                                      P - F
                                                     0        0.0000010        0.00612970    0.00000000
                                                     2        0.1200000        0.02254406    0.00000000
                                                     2        0.1800000       -0.13874529    0.00000000
                                                     2        0.3000000        0.38299049    0.00000000
                                                     2        0.5000000       -0.57923512    0.00000000
                                                     2        1.0000000        0.63021625    0.00000000
                                                     2        2.0000000       -0.79201034    0.00000000
                                      D - F
                                                     0        0.0000010       -0.00296226    0.00000000
                                                     2        0.1200000       -0.00547344    0.00000000
                                                     2        0.1400000        0.01837884    0.00000000
                                                     2        0.2400000       -0.05565704    0.00000000
                                                     2        0.4000000        0.15376597    0.00000000
                                                     2        0.8000000       -0.32464795    0.00000000
 ======================================================================================================
   183 basis functions,   313 primitive gaussians,   195 cartesian basis functions
    21 alpha electrons       21 beta electrons
       nuclear repulsion energy       206.2528927029 Hartrees.
 NAtoms=   11 NActive=   11 NUniq=   11 SFac= 1.00D+00 NAtFMM=   60 NAOKFM=F Big=F
   2 Symmetry operations used in ECPInt.
 ECPInt:  NShTT=    3160 NPrTT=   15336 LenC2=    3161 LenP2D=   12395.
 LDataN:  DoStor=T MaxTD1= 6 Len=  172
 Initial guess from the checkpoint file:  "BDE49_expt_339_mol1.chk"
 B after Tr=     0.000000   -0.000000   -0.000000
         Rot=   -0.000000    0.707107   -0.707107    0.000000 Ang= 180.00 deg.
 Initial guess orbital symmetries:
       Occupied  (A') (A') (A') (A') (A') (A') (A') (A') (A') (A')
                 (A') (A') (A') (A') (A') (A') (A") (A') (A') (A")
                 (A")
       Virtual   (A') (A') (A') (A') (A') (A") (A") (A") (A') (A')
                 (A') (A") (A") (A') (A') (A') (A') (A') (A') (A')
                 (A") (A') (A") (A') (A") (A') (A') (A') (A') (A")
                 (A') (A') (A') (A") (A') (A') (A') (A') (A') (A")
                 (A') (A') (A') (A") (A") (A") (A') (A') (A') (A")
                 (A') (A') (A') (A") (A') (A') (A') (A') (A') (A')
                 (A") (A") (A') (A') (A') (A') (A") (A") (A') (A")
                 (A') (A') (A') (A') (A') (A') (A") (A") (A") (A")
                 (A') (A") (A') (A') (A') (A") (A") (A') (A') (A')
                 (A") (A') (A") (A") (A') (A') (A') (A') (A') (A")
                 (A") (A') (A') (A') (A') (A') (A') (A') (A") (A")
                 (A') (A") (A') (A") (A') (A') (A') (A") (A") (A')
                 (A') (A") (A') (A') (A') (A') (A") (A') (A") (A')
                 (A') (A") (A") (A') (A') (A') (A') (A") (A") (A')
                 (A') (A") (A') (A') (A') (A') (A") (A') (A') (A')
                 (A') (A") (A') (A') (A') (A') (A') (A') (A') (A')
                 (A') (A')
 >>>>>>>>>> Convergence criterion not met.
 SCF Done:  E(RHF) =  -246.796558370     A.U. after    2 cycles
            NFock=  1  Conv=0.91D-02     -V/T= 2.0020

 **********************************************************************

            Population analysis using the SCF Density.

 **********************************************************************

 Orbital symmetries:
       Occupied  (A') (A') (A') (A') (A') (A') (A') (A') (A') (A')
                 (A') (A') (A') (A') (A') (A') (A") (A') (A') (A")
                 (A")
       Virtual   (A') (A') (A') (A') (A') (A") (A") (A") (A') (A')
                 (A') (A") (A") (A') (A') (A') (A') (A') (A') (A')
                 (A') (A") (A") (A') (A") (A') (A') (A') (A') (A")
                 (A') (A') (A') (A") (A') (A') (A') (A') (A') (A")
                 (A') (A') (A') (A") (A") (A") (A') (A') (A') (A")
                 (A') (A') (A') (A") (A') (A') (A') (A') (A') (A')
                 (A") (A") (A') (A') (A') (A") (A') (A") (A') (A")
                 (A') (A') (A') (A') (A') (A') (A") (A") (A") (A")
                 (A') (A") (A') (A') (A') (A") (A") (A') (A') (A')
                 (A") (A') (A") (A") (A') (A') (A') (A') (A') (A")
                 (A") (A') (A') (A') (A') (A') (A') (A') (A") (A")
                 (A') (A") (A') (A") (A') (A') (A') (A") (A") (A')
                 (A') (A") (A') (A') (A') (A') (A") (A') (A") (A')
                 (A") (A') (A") (A') (A') (A') (A") (A') (A") (A')
                 (A') (A") (A') (A') (A') (A') (A') (A') (A') (A")
                 (A') (A') (A') (A") (A') (A') (A') (A') (A') (A')
                 (A') (A')
 The electronic state is 1-A'.
 Alpha  occ. eigenvalues --  -15.63173 -11.28673 -11.28661 -11.27078 -11.25319
 Alpha  occ. eigenvalues --  -11.25316  -1.23160  -1.07826  -1.02894  -0.85715
 Alpha  occ. eigenvalues --   -0.85695  -0.72512  -0.66555  -0.65552  -0.60270
 Alpha  occ. eigenvalues --   -0.57887  -0.54356  -0.52329  -0.41427  -0.38508
 Alpha  occ. eigenvalues --   -0.35061
 Alpha virt. eigenvalues --    0.03107   0.03811   0.04568   0.05941   0.06400
 Alpha virt. eigenvalues --    0.08545   0.10265   0.10570   0.11765   0.12406
 Alpha virt. eigenvalues --    0.13023   0.13692   0.14159   0.14588   0.14716
 Alpha virt. eigenvalues --    0.15631   0.15874   0.16560   0.17875   0.18533
 Alpha virt. eigenvalues --    0.18597   0.18598   0.19426   0.24111   0.27965
 Alpha virt. eigenvalues --    0.28639   0.29000   0.29772   0.30585   0.32475
 Alpha virt. eigenvalues --    0.33173   0.34315   0.34456   0.34595   0.35669
 Alpha virt. eigenvalues --    0.36832   0.37645   0.40456   0.41650   0.42626
 Alpha virt. eigenvalues --    0.42977   0.43135   0.44088   0.44921   0.50011
 Alpha virt. eigenvalues --    0.52527   0.54441   0.55087   0.55760   0.56181
 Alpha virt. eigenvalues --    0.56613   0.58570   0.59259   0.59861   0.61478
 Alpha virt. eigenvalues --    0.62660   0.65837   0.66330   0.68290   0.68397
 Alpha virt. eigenvalues --    0.68691   0.68748   0.69505   0.70257   0.72403
 Alpha virt. eigenvalues --    0.73906   0.73938   0.74818   0.77084   0.79953
 Alpha virt. eigenvalues --    0.81356   0.84618   0.84919   0.85541   0.88831
 Alpha virt. eigenvalues --    0.89575   0.89730   0.90609   0.91014   0.93282
 Alpha virt. eigenvalues --    0.94170   0.96582   0.97521   0.99046   1.01419
 Alpha virt. eigenvalues --    1.02310   1.07099   1.08336   1.10005   1.13403
 Alpha virt. eigenvalues --    1.13606   1.19221   1.23362   1.26302   1.29956
 Alpha virt. eigenvalues --    1.34582   1.38841   1.40875   1.44441   1.52784
 Alpha virt. eigenvalues --    1.52811   1.55820   1.55828   1.58278   1.59701
 Alpha virt. eigenvalues --    1.60702   1.60907   1.65889   1.66104   1.67407
 Alpha virt. eigenvalues --    1.69147   1.70859   1.74034   1.75808   1.77517
 Alpha virt. eigenvalues --    1.79314   1.81011   1.84035   1.90337   1.90834
 Alpha virt. eigenvalues --    1.92847   1.93927   1.95270   2.02642   2.04636
 Alpha virt. eigenvalues --    2.06402   2.07811   2.09669   2.10679   2.15941
 Alpha virt. eigenvalues --    2.17646   2.18803   2.22295   2.25436   2.26921
 Alpha virt. eigenvalues --    2.29399   2.34468   2.34596   2.41850   2.43454
 Alpha virt. eigenvalues --    2.47868   2.54562   2.59061   2.67174   2.70003
 Alpha virt. eigenvalues --    2.73815   2.80690   2.83043   2.88481   2.88657
 Alpha virt. eigenvalues --    2.96706   3.00710   3.08434   3.10275   3.11058
 Alpha virt. eigenvalues --    3.11342   3.27822   3.42709   3.47824   3.65430
 Alpha virt. eigenvalues --    3.67050   4.26751
          Condensed to atoms (all electrons):
 Mulliken charges:
               1
     1  N   -0.419725
     2  C    0.451353
     3  C    0.775769
     4  C    0.775775
     5  C    0.451352
     6  C   -0.187342
     7  H   -0.391197
     8  H   -0.393711
     9  H   -0.335537
    10  H   -0.391196
    11  H   -0.335538
 Sum of Mulliken charges =  -0.00000
 Mulliken charges with hydrogens summed into heavy atoms:
               1
     1  N   -0.419725
     2  C    0.115815
     3  C    0.384572
     4  C    0.384577
     5  C    0.115814
     6  C   -0.581054
 Electronic spatial extent (au):  <R**2>=            434.8974
 Charge=             -0.0000 electrons
 Dipole moment (field-independent basis, Debye):
    X=              2.2465    Y=             -0.0000    Z=              0.0000  Tot=              2.2465

 Test job not archived.
 1\1\GINC-SE128\SP\RHF\Aug-CC-pVDZ\C5H5N1\OHZDE\08-Apr-2025\0\\#t hf au
 g-cc-pvdz iop(5/13=1,5/36=2,99/5=2) pseudo=read geom=check guess=(read
 ,tcheck) scf=(maxcycle=1)\\title\\0,1\N,0,0.,1.417025,0.\C,0,-1.140587
 ,0.721132,0.\C,0,-1.1962,-0.67168,0.\C,0,1.1962,-0.671681,0.\C,0,1.140
 587,0.721131,0.\C,0,0.,-1.382899,0.\H,0,2.153113,-1.180393,0.\H,0,-0.0
 00001,-2.467251,0.\H,0,-2.056236,1.306427,0.\H,0,-2.153114,-1.180392,0
 .\H,0,2.056236,1.306426,0.\\Version=ES64L-G16RevC.01\State=1-A'\HF=-24
 6.7965584\RMSD=9.092e-03\Dipole=0.0000001,-0.8838221,0.\Quadrupole=4.1
 844649,-1.1669163,-3.0175486,-0.0000035,0.,0.\PG=CS [SG(C5H5N1)]\\@


 HEAVEN'S NET CASTS WIDE.
 THOUGH ITS MESHES ARE COARSE, NOTHING SLIPS THROUGH.

                                          -- LAO-TSU
 Job cpu time:       0 days  0 hours  0 minutes 58.9 seconds.
 Elapsed time:       0 days  0 hours  0 minutes  4.8 seconds.
 File lengths (MBytes):  RWF=     10 Int=      0 D2E=      0 Chk=      5 Scr=      1
 Normal termination of Gaussian 16 at Tue Apr  8 23:01:50 2025.
