 Entering Gaussian System, Link 0=g16
 Input=BDE49_nonexpt_142_mol2.gjf
 Output=BDE49_nonexpt_142_mol2.log
 Initial command:
 /arc/software/Gaussian/g16.c01/l1.exe "/tmp/slurm/4845036/Gau-95225.inp" -scrdir="/tmp/slurm/4845036/"
 Entering Link 1 = /arc/software/Gaussian/g16.c01/l1.exe PID=     95226.
  
 Copyright (c) 1988-2019, Gaussian, Inc.  All Rights Reserved.
  
 This is part of the Gaussian(R) 16 program.  It is based on
 the Gaussian(R) 09 system (copyright 2009, Gaussian, Inc.),
 the Gaussian(R) 03 system (copyright 2003, Gaussian, Inc.),
 the Gaussian(R) 98 system (copyright 1998, Gaussian, Inc.),
 the Gaussian(R) 94 system (copyright 1995, Gaussian, Inc.),
 the Gaussian 92(TM) system (copyright 1992, Gaussian, Inc.),
 the Gaussian 90(TM) system (copyright 1990, Gaussian, Inc.),
 the Gaussian 88(TM) system (copyright 1988, Gaussian, Inc.),
 the Gaussian 86(TM) system (copyright 1986, Carnegie Mellon
 University), and the Gaussian 82(TM) system (copyright 1983,
 Carnegie Mellon University). Gaussian is a federally registered
 trademark of Gaussian, Inc.
  
 This software contains proprietary and confidential information,
 including trade secrets, belonging to Gaussian, Inc.
  
 This software is provided under written license and may be
 used, copied, transmitted, or stored only in accord with that
 written license.
  
 The following legend is applicable only to US Government
 contracts under FAR:
  
                    RESTRICTED RIGHTS LEGEND
  
 Use, reproduction and disclosure by the US Government is
 subject to restrictions as set forth in subparagraphs (a)
 and (c) of the Commercial Computer Software - Restricted
 Rights clause in FAR 52.227-19.
  
 Gaussian, Inc.
 340 Quinnipiac St., Bldg. 40, Wallingford CT 06492
  
  
 ---------------------------------------------------------------
 Warning -- This program may not be used in any manner that
 competes with the business of Gaussian, Inc. or will provide
 assistance to any competitor of Gaussian, Inc.  The licensee
 of this program is prohibited from giving any competitor of
 Gaussian, Inc. access to this program.  By using this program,
 the user acknowledges that Gaussian, Inc. is engaged in the
 business of creating and licensing software in the field of
 computational chemistry and represents and warrants to the
 licensee that it is not a competitor of Gaussian, Inc. and that
 it will not use this program in any manner prohibited above.
 ---------------------------------------------------------------
  

 Cite this work as:
 Gaussian 16, Revision C.01,
 M. J. Frisch, G. W. Trucks, H. B. Schlegel, G. E. Scuseria, 
 M. A. Robb, J. R. Cheeseman, G. Scalmani, V. Barone, 
 G. A. Petersson, H. Nakatsuji, X. Li, M. Caricato, A. V. Marenich, 
 J. Bloino, B. G. Janesko, R. Gomperts, B. Mennucci, H. P. Hratchian, 
 J. V. Ortiz, A. F. Izmaylov, J. L. Sonnenberg, D. Williams-Young, 
 F. Ding, F. Lipparini, F. Egidi, J. Goings, B. Peng, A. Petrone, 
 T. Henderson, D. Ranasinghe, V. G. Zakrzewski, J. Gao, N. Rega, 
 G. Zheng, W. Liang, M. Hada, M. Ehara, K. Toyota, R. Fukuda, 
 J. Hasegawa, M. Ishida, T. Nakajima, Y. Honda, O. Kitao, H. Nakai, 
 T. Vreven, K. Throssell, J. A. Montgomery, Jr., J. E. Peralta, 
 F. Ogliaro, M. J. Bearpark, J. J. Heyd, E. N. Brothers, K. N. Kudin, 
 V. N. Staroverov, T. A. Keith, R. Kobayashi, J. Normand, 
 K. Raghavachari, A. P. Rendell, J. C. Burant, S. S. Iyengar, 
 J. Tomasi, M. Cossi, J. M. Millam, M. Klene, C. Adamo, R. Cammi, 
 J. W. Ochterski, R. L. Martin, K. Morokuma, O. Farkas, 
 J. B. Foresman, and D. J. Fox, Gaussian, Inc., Wallingford CT, 2019.
 
 ******************************************
 Gaussian 16:  ES64L-G16RevC.01  3-Jul-2019
                 8-Apr-2025 
 ******************************************
 %nprocs=16
 Will use up to   16 processors via shared memory.
 %mem=30GB
 %chk=BDE49_nonexpt_142_mol2.chk
 ----------------------------------------------------------------------
 #t hf aug-cc-pvdz symm=none int=(grid=ultrafine) guess=(read,tcheck) s
 table=opt
 ----------------------------------------------------------------------
 -----
 title
 -----
 Symbolic Z-matrix:
 Charge =  0 Multiplicity = 2
 B                    -0.84445  0.        0. 
 B                     0.71714   0.        0. 
 H                     1.32876   1.0269   0. 
 H                     1.32877  -1.02689   0. 
 H                    -2.02098   0.       -0.00001 
 
                    Distance matrix (angstroms):
                    1          2          3          4          5
     1  B    0.000000
     2  B    1.561586   0.000000
     3  H    2.403617   1.195243   0.000000
     4  H    2.403622   1.195243   2.053789   0.000000
     5  H    1.176528   2.738114   3.503610   3.503617   0.000000
 Symmetry turned off by external request.
 Rotational constants (GHZ):         237.7663578          23.8783712          21.6991696
    73 basis functions,   119 primitive gaussians,    77 cartesian basis functions
     7 alpha electrons        6 beta electrons
       nuclear repulsion energy        18.8756818610 Hartrees.
 NAtoms=    5 NActive=    5 NUniq=    5 SFac= 1.00D+00 NAtFMM=   60 NAOKFM=F Big=F
 ExpMin= 2.38D-02 ExpMax= 4.57D+03 ExpMxC= 1.57D+02 IAcc=3 IRadAn=         5 AccDes= 0.00D+00
 Harris functional with IExCor=  205 and IRadAn=       5 diagonalized for initial guess.
 HarFok:  IExCor=  205 AccDes= 0.00D+00 IRadAn=         5 IDoV= 1 UseB2=F ITyADJ=14
 ICtDFT=  3500011 ScaDFX=  1.000000  1.000000  1.000000  1.000000
 FoFCou: FMM=F IPFlag=           0 FMFlag=      100000 FMFlg1=           0
         NFxFlg=           0 DoJE=T BraDBF=F KetDBF=T FulRan=T
         wScrn=  0.000000 ICntrl=       500 IOpCl=  0 I1Cent=   200000004 NGrid=           0
         NMat0=    1 NMatS0=      1 NMatT0=    0 NMatD0=    1 NMtDS0=    0 NMtDT0=    0
 Symmetry not used in FoFCou.
 Initial guess <Sx>= 0.0000 <Sy>= 0.0000 <Sz>= 0.5000 <S**2>= 0.7500 S= 0.5000
 SCF Done:  E(UHF) =  -51.0223503064     A.U. after   14 cycles
            NFock= 14  Conv=0.75D-08     -V/T= 1.9991
 <Sx>= 0.0000 <Sy>= 0.0000 <Sz>= 0.5000 <S**2>= 0.7577 S= 0.5039
 <L.S>=  0.00000000000    
 Annihilation of the first spin contaminant:
 S**2 before annihilation     0.7577,   after     0.7500

 **********************************************************************

            Population analysis using the SCF Density.

 **********************************************************************

 Alpha  occ. eigenvalues --   -7.64689  -7.58060  -0.75908  -0.63318  -0.48628
 Alpha  occ. eigenvalues --   -0.48426  -0.32777
 Alpha virt. eigenvalues --    0.03524   0.03739   0.04955   0.05898   0.06627
 Alpha virt. eigenvalues --    0.06659   0.07381   0.09789   0.10825   0.12991
 Alpha virt. eigenvalues --    0.14179   0.14497   0.15135   0.23976   0.24028
 Alpha virt. eigenvalues --    0.27481   0.28825   0.29905   0.31698   0.32519
 Alpha virt. eigenvalues --    0.34091   0.36290   0.37683   0.38763   0.40414
 Alpha virt. eigenvalues --    0.43610   0.46361   0.46656   0.47818   0.51105
 Alpha virt. eigenvalues --    0.53311   0.53932   0.57845   0.60023   0.60976
 Alpha virt. eigenvalues --    0.62081   0.69614   0.77054   0.77259   0.79881
 Alpha virt. eigenvalues --    0.86718   0.94484   0.97380   1.01919   1.04489
 Alpha virt. eigenvalues --    1.09935   1.10200   1.17195   1.22084   1.29456
 Alpha virt. eigenvalues --    1.36424   1.39784   1.42861   1.54691   1.72983
 Alpha virt. eigenvalues --    1.73931   2.06620   2.07893   2.10396   2.17873
 Alpha virt. eigenvalues --    2.17973   2.35673   2.47179   2.64057   2.75735
 Alpha virt. eigenvalues --    2.99736
  Beta  occ. eigenvalues --   -7.63693  -7.57828  -0.70949  -0.61826  -0.48340
  Beta  occ. eigenvalues --   -0.47397
  Beta virt. eigenvalues --    0.02206   0.03792   0.04049   0.05062   0.06037
  Beta virt. eigenvalues --    0.07283   0.07446   0.09969   0.10642   0.11037
  Beta virt. eigenvalues --    0.13573   0.14209   0.15334   0.19678   0.24461
  Beta virt. eigenvalues --    0.25855   0.29241   0.29569   0.30142   0.33393
  Beta virt. eigenvalues --    0.33716   0.34699   0.36561   0.39810   0.40829
  Beta virt. eigenvalues --    0.41063   0.44168   0.46633   0.47011   0.50678
  Beta virt. eigenvalues --    0.51531   0.53386   0.54498   0.58911   0.60226
  Beta virt. eigenvalues --    0.62434   0.63317   0.69683   0.77503   0.79043
  Beta virt. eigenvalues --    0.83477   0.87013   0.95419   1.01296   1.05827
  Beta virt. eigenvalues --    1.07720   1.10269   1.11289   1.19492   1.22366
  Beta virt. eigenvalues --    1.29842   1.36767   1.40509   1.45037   1.55670
  Beta virt. eigenvalues --    1.73814   1.73871   2.06764   2.07724   2.11041
  Beta virt. eigenvalues --    2.18129   2.18429   2.35655   2.47242   2.64146
  Beta virt. eigenvalues --    2.75781   3.00059
          Condensed to atoms (all electrons):
          Atomic-Atomic Spin Densities.
 Mulliken charges and spin densities:
               1          2
     1  B   -0.528201   0.767982
     2  B   -0.365979   0.358195
     3  H    0.250623  -0.053128
     4  H    0.250623  -0.053128
     5  H    0.392933  -0.019921
 Sum of Mulliken charges =  -0.00000   1.00000
 Mulliken charges and spin densities with hydrogens summed into heavy atoms:
               1          2
     1  B   -0.135267   0.748061
     2  B    0.135267   0.251939
 Electronic spatial extent (au):  <R**2>=             89.3993
 Charge=             -0.0000 electrons
 Dipole moment (field-independent basis, Debye):
    X=             -1.4040    Y=             -0.0000    Z=             -0.0000  Tot=              1.4040
                          Isotropic Fermi Contact Couplings
        Atom                 a.u.       MegaHertz       Gauss      10(-4) cm-1
     1  B(11)              0.05393      77.35754      27.60309      25.80370
     2  B(11)              0.00074       1.05622       0.37689       0.35232
     3  H(1)              -0.00716     -32.01203     -11.42269     -10.67806
     4  H(1)              -0.00716     -32.01201     -11.42268     -10.67806
     5  H(1)              -0.01595     -71.28943     -25.43784     -23.77959
 --------------------------------------------------------
       Center         ----  Spin Dipole Couplings  ----
                      3XX-RR        3YY-RR        3ZZ-RR
 --------------------------------------------------------
     1   Atom       -0.177026     -0.193631      0.370658
     2   Atom       -0.066499     -0.071935      0.138434
     3   Atom        0.003523     -0.001723     -0.001800
     4   Atom        0.003523     -0.001723     -0.001800
     5   Atom        0.035398     -0.036685      0.001286
 --------------------------------------------------------
                        XY            XZ            YZ
 --------------------------------------------------------
     1   Atom        0.000000     -0.000003      0.000001
     2   Atom       -0.000000      0.000000      0.000001
     3   Atom        0.017619     -0.000000     -0.000000
     4   Atom       -0.017619      0.000000      0.000000
     5   Atom       -0.000000      0.000000      0.000000
 --------------------------------------------------------


 ---------------------------------------------------------------------------------
              Anisotropic Spin Dipole Couplings in Principal Axis System
 ---------------------------------------------------------------------------------

       Atom             a.u.   MegaHertz   Gauss  10(-4) cm-1        Axes

              Baa    -0.1936   -33.153   -11.830   -11.058 -0.0000  1.0000 -0.0000
     1 B(11)  Bbb    -0.1770   -30.310   -10.815   -10.110  1.0000  0.0000  0.0000
              Bcc     0.3707    63.462    22.645    21.169 -0.0000  0.0000  1.0000
 
              Baa    -0.0719   -12.316    -4.395    -4.108  0.0000  1.0000 -0.0000
     2 B(11)  Bbb    -0.0665   -11.386    -4.063    -3.798  1.0000 -0.0000 -0.0000
              Bcc     0.1384    23.702     8.457     7.906  0.0000  0.0000  1.0000
 
              Baa    -0.0169    -9.024    -3.220    -3.010 -0.6530  0.7574  0.0000
     3 H(1)   Bbb    -0.0018    -0.960    -0.343    -0.320  0.0000  0.0000  1.0000
              Bcc     0.0187     9.985     3.563     3.330  0.7574  0.6530 -0.0000
 
              Baa    -0.0169    -9.024    -3.220    -3.010  0.6530  0.7574 -0.0000
     4 H(1)   Bbb    -0.0018    -0.960    -0.343    -0.320  0.0000  0.0000  1.0000
              Bcc     0.0187     9.985     3.563     3.330  0.7574 -0.6530  0.0000
 
              Baa    -0.0367   -19.573    -6.984    -6.529  0.0000  1.0000 -0.0000
     5 H(1)   Bbb     0.0013     0.686     0.245     0.229 -0.0000  0.0000  1.0000
              Bcc     0.0354    18.887     6.739     6.300  1.0000 -0.0000  0.0000
 

 ---------------------------------------------------------------------------------

 NROrb=     73 NOA=     7 NOB=     6 NVA=    66 NVB=    67

 **** Warning!!: The largest alpha MO coefficient is  0.46182810D+02


 **** Warning!!: The largest beta MO coefficient is  0.45691862D+02

    12 initial guesses have been made.
 Iteration     1 Dimension    12 NMult     0 NNew     12
 Iteration     2 Dimension    24 NMult    12 NNew     12
 Iteration     3 Dimension    27 NMult    24 NNew      3
 Iteration     4 Dimension    30 NMult    27 NNew      3
 Iteration     5 Dimension    33 NMult    30 NNew      3
 ***********************************************************************
 Stability analysis using <AA,BB:AA,BB> singles matrix:
 ***********************************************************************
 Ground to excited state transition densities written to RWF  633

 Eigenvectors of the stability matrix:
 
 Excited state symmetry could not be determined.
 Eigenvector   1:  2.034-?Sym  Eigenvalue= 0.0612283  <S**2>=0.785
      7A ->  8A        0.71415
      7A -> 11A        0.29360
      7A -> 15A        0.58447
      7A -> 25A        0.12633
      7A -> 29A       -0.11547
 The wavefunction is stable under the perturbations considered.
 The wavefunction is already stable.

 **********************************************************************

            Population analysis using the SCF Density.

 **********************************************************************

 Alpha  occ. eigenvalues --   -7.64689  -7.58060  -0.75908  -0.63318  -0.48628
 Alpha  occ. eigenvalues --   -0.48426  -0.32777
 Alpha virt. eigenvalues --    0.03524   0.03739   0.04955   0.05898   0.06627
 Alpha virt. eigenvalues --    0.06659   0.07381   0.09789   0.10825   0.12991
 Alpha virt. eigenvalues --    0.14179   0.14497   0.15135   0.23976   0.24028
 Alpha virt. eigenvalues --    0.27481   0.28825   0.29905   0.31698   0.32519
 Alpha virt. eigenvalues --    0.34091   0.36290   0.37683   0.38763   0.40414
 Alpha virt. eigenvalues --    0.43610   0.46361   0.46656   0.47818   0.51105
 Alpha virt. eigenvalues --    0.53311   0.53932   0.57845   0.60023   0.60976
 Alpha virt. eigenvalues --    0.62081   0.69614   0.77054   0.77259   0.79881
 Alpha virt. eigenvalues --    0.86718   0.94484   0.97380   1.01919   1.04489
 Alpha virt. eigenvalues --    1.09935   1.10200   1.17195   1.22084   1.29456
 Alpha virt. eigenvalues --    1.36424   1.39784   1.42861   1.54691   1.72983
 Alpha virt. eigenvalues --    1.73931   2.06620   2.07893   2.10396   2.17873
 Alpha virt. eigenvalues --    2.17973   2.35673   2.47179   2.64057   2.75735
 Alpha virt. eigenvalues --    2.99736
  Beta  occ. eigenvalues --   -7.63693  -7.57828  -0.70949  -0.61826  -0.48340
  Beta  occ. eigenvalues --   -0.47397
  Beta virt. eigenvalues --    0.02206   0.03792   0.04049   0.05062   0.06037
  Beta virt. eigenvalues --    0.07283   0.07446   0.09969   0.10642   0.11037
  Beta virt. eigenvalues --    0.13573   0.14209   0.15334   0.19678   0.24461
  Beta virt. eigenvalues --    0.25855   0.29241   0.29569   0.30142   0.33393
  Beta virt. eigenvalues --    0.33716   0.34699   0.36561   0.39810   0.40829
  Beta virt. eigenvalues --    0.41063   0.44168   0.46633   0.47011   0.50678
  Beta virt. eigenvalues --    0.51531   0.53386   0.54498   0.58911   0.60226
  Beta virt. eigenvalues --    0.62434   0.63317   0.69683   0.77503   0.79043
  Beta virt. eigenvalues --    0.83477   0.87013   0.95419   1.01296   1.05827
  Beta virt. eigenvalues --    1.07720   1.10269   1.11289   1.19492   1.22366
  Beta virt. eigenvalues --    1.29842   1.36767   1.40509   1.45037   1.55670
  Beta virt. eigenvalues --    1.73814   1.73871   2.06764   2.07724   2.11041
  Beta virt. eigenvalues --    2.18129   2.18429   2.35655   2.47242   2.64146
  Beta virt. eigenvalues --    2.75781   3.00059
          Condensed to atoms (all electrons):
          Atomic-Atomic Spin Densities.
 Mulliken charges and spin densities:
               1          2
     1  B   -0.528201   0.767982
     2  B   -0.365979   0.358195
     3  H    0.250623  -0.053128
     4  H    0.250623  -0.053128
     5  H    0.392933  -0.019921
 Sum of Mulliken charges =  -0.00000   1.00000
 Mulliken charges and spin densities with hydrogens summed into heavy atoms:
               1          2
     1  B   -0.135267   0.748061
     2  B    0.135267   0.251939
 Electronic spatial extent (au):  <R**2>=             89.3993
 Charge=             -0.0000 electrons
 Dipole moment (field-independent basis, Debye):
    X=             -1.4040    Y=             -0.0000    Z=             -0.0000  Tot=              1.4040
                          Isotropic Fermi Contact Couplings
        Atom                 a.u.       MegaHertz       Gauss      10(-4) cm-1
     1  B(11)              0.05393      77.35754      27.60309      25.80370
     2  B(11)              0.00074       1.05622       0.37689       0.35232
     3  H(1)              -0.00716     -32.01203     -11.42269     -10.67806
     4  H(1)              -0.00716     -32.01201     -11.42268     -10.67806
     5  H(1)              -0.01595     -71.28943     -25.43784     -23.77959
 --------------------------------------------------------
       Center         ----  Spin Dipole Couplings  ----
                      3XX-RR        3YY-RR        3ZZ-RR
 --------------------------------------------------------
     1   Atom       -0.177026     -0.193631      0.370658
     2   Atom       -0.066499     -0.071935      0.138434
     3   Atom        0.003523     -0.001723     -0.001800
     4   Atom        0.003523     -0.001723     -0.001800
     5   Atom        0.035398     -0.036685      0.001286
 --------------------------------------------------------
                        XY            XZ            YZ
 --------------------------------------------------------
     1   Atom        0.000000     -0.000003      0.000001
     2   Atom       -0.000000      0.000000      0.000001
     3   Atom        0.017619     -0.000000     -0.000000
     4   Atom       -0.017619      0.000000      0.000000
     5   Atom       -0.000000      0.000000      0.000000
 --------------------------------------------------------


 ---------------------------------------------------------------------------------
              Anisotropic Spin Dipole Couplings in Principal Axis System
 ---------------------------------------------------------------------------------

       Atom             a.u.   MegaHertz   Gauss  10(-4) cm-1        Axes

              Baa    -0.1936   -33.153   -11.830   -11.058 -0.0000  1.0000 -0.0000
     1 B(11)  Bbb    -0.1770   -30.310   -10.815   -10.110  1.0000  0.0000  0.0000
              Bcc     0.3707    63.462    22.645    21.169 -0.0000  0.0000  1.0000
 
              Baa    -0.0719   -12.316    -4.395    -4.108  0.0000  1.0000 -0.0000
     2 B(11)  Bbb    -0.0665   -11.386    -4.063    -3.798  1.0000 -0.0000 -0.0000
              Bcc     0.1384    23.702     8.457     7.906  0.0000  0.0000  1.0000
 
              Baa    -0.0169    -9.024    -3.220    -3.010 -0.6530  0.7574  0.0000
     3 H(1)   Bbb    -0.0018    -0.960    -0.343    -0.320  0.0000  0.0000  1.0000
              Bcc     0.0187     9.985     3.563     3.330  0.7574  0.6530 -0.0000
 
              Baa    -0.0169    -9.024    -3.220    -3.010  0.6530  0.7574 -0.0000
     4 H(1)   Bbb    -0.0018    -0.960    -0.343    -0.320  0.0000  0.0000  1.0000
              Bcc     0.0187     9.985     3.563     3.330  0.7574 -0.6530  0.0000
 
              Baa    -0.0367   -19.573    -6.984    -6.529  0.0000  1.0000 -0.0000
     5 H(1)   Bbb     0.0013     0.686     0.245     0.229 -0.0000  0.0000  1.0000
              Bcc     0.0354    18.887     6.739     6.300  1.0000 -0.0000  0.0000
 

 ---------------------------------------------------------------------------------

 Unable to Open any file for archive entry.
 1\1\GINC-SE087\Stability\UHF\Aug-CC-pVDZ\B2H3\OHZDE\08-Apr-2025\0\\#t 
 hf aug-cc-pvdz symm=none int=(grid=ultrafine) guess=(read,tcheck) stab
 le=opt\\title\\0,2\B,0,-0.844449,-0.000001,-0.000002\B,0,0.717137,0.,0
 .000003\H,0,1.328764,1.026897,-0.000002\H,0,1.328773,-1.026892,0.00000
 3\H,0,-2.020977,0.,-0.000006\\Version=ES64L-G16RevC.01\HF=-51.0223503\
 S2=0.757732\S2-1=0.\S2A=0.750024\RMSD=7.497e-09\Dipole=-0.552358,-0.00
 00007,-0.0000004\Quadrupole=0.1032893,0.3000851,-0.4033744,0.0000002,0
 .0000056,-0.0000017\PG=Unknown\\@
 The archive entry for this job was punched.


 LIFE CAN ONLY BE UNDERSTOOD BACKWARD, BUT MUST
 BE LIVED FORWARD. -- KIRKEGAARD
 Job cpu time:       0 days  0 hours  0 minutes 20.0 seconds.
 Elapsed time:       0 days  0 hours  0 minutes  2.2 seconds.
 File lengths (MBytes):  RWF=     35 Int=      0 D2E=      0 Chk=      2 Scr=      1
 Normal termination of Gaussian 16 at Tue Apr  8 23:30:57 2025.
 Initial command:
 /arc/software/Gaussian/g16.c01/l1.exe "/tmp/slurm/4845036/Gau-95225.inp" -scrdir="/tmp/slurm/4845036/"
 Entering Link 1 = /arc/software/Gaussian/g16.c01/l1.exe PID=     95437.
  
 Copyright (c) 1988-2019, Gaussian, Inc.  All Rights Reserved.
  
 This is part of the Gaussian(R) 16 program.  It is based on
 the Gaussian(R) 09 system (copyright 2009, Gaussian, Inc.),
 the Gaussian(R) 03 system (copyright 2003, Gaussian, Inc.),
 the Gaussian(R) 98 system (copyright 1998, Gaussian, Inc.),
 the Gaussian(R) 94 system (copyright 1995, Gaussian, Inc.),
 the Gaussian 92(TM) system (copyright 1992, Gaussian, Inc.),
 the Gaussian 90(TM) system (copyright 1990, Gaussian, Inc.),
 the Gaussian 88(TM) system (copyright 1988, Gaussian, Inc.),
 the Gaussian 86(TM) system (copyright 1986, Carnegie Mellon
 University), and the Gaussian 82(TM) system (copyright 1983,
 Carnegie Mellon University). Gaussian is a federally registered
 trademark of Gaussian, Inc.
  
 This software contains proprietary and confidential information,
 including trade secrets, belonging to Gaussian, Inc.
  
 This software is provided under written license and may be
 used, copied, transmitted, or stored only in accord with that
 written license.
  
 The following legend is applicable only to US Government
 contracts under FAR:
  
                    RESTRICTED RIGHTS LEGEND
  
 Use, reproduction and disclosure by the US Government is
 subject to restrictions as set forth in subparagraphs (a)
 and (c) of the Commercial Computer Software - Restricted
 Rights clause in FAR 52.227-19.
  
 Gaussian, Inc.
 340 Quinnipiac St., Bldg. 40, Wallingford CT 06492
  
  
 ---------------------------------------------------------------
 Warning -- This program may not be used in any manner that
 competes with the business of Gaussian, Inc. or will provide
 assistance to any competitor of Gaussian, Inc.  The licensee
 of this program is prohibited from giving any competitor of
 Gaussian, Inc. access to this program.  By using this program,
 the user acknowledges that Gaussian, Inc. is engaged in the
 business of creating and licensing software in the field of
 computational chemistry and represents and warrants to the
 licensee that it is not a competitor of Gaussian, Inc. and that
 it will not use this program in any manner prohibited above.
 ---------------------------------------------------------------
  

 Cite this work as:
 Gaussian 16, Revision C.01,
 M. J. Frisch, G. W. Trucks, H. B. Schlegel, G. E. Scuseria, 
 M. A. Robb, J. R. Cheeseman, G. Scalmani, V. Barone, 
 G. A. Petersson, H. Nakatsuji, X. Li, M. Caricato, A. V. Marenich, 
 J. Bloino, B. G. Janesko, R. Gomperts, B. Mennucci, H. P. Hratchian, 
 J. V. Ortiz, A. F. Izmaylov, J. L. Sonnenberg, D. Williams-Young, 
 F. Ding, F. Lipparini, F. Egidi, J. Goings, B. Peng, A. Petrone, 
 T. Henderson, D. Ranasinghe, V. G. Zakrzewski, J. Gao, N. Rega, 
 G. Zheng, W. Liang, M. Hada, M. Ehara, K. Toyota, R. Fukuda, 
 J. Hasegawa, M. Ishida, T. Nakajima, Y. Honda, O. Kitao, H. Nakai, 
 T. Vreven, K. Throssell, J. A. Montgomery, Jr., J. E. Peralta, 
 F. Ogliaro, M. J. Bearpark, J. J. Heyd, E. N. Brothers, K. N. Kudin, 
 V. N. Staroverov, T. A. Keith, R. Kobayashi, J. Normand, 
 K. Raghavachari, A. P. Rendell, J. C. Burant, S. S. Iyengar, 
 J. Tomasi, M. Cossi, J. M. Millam, M. Klene, C. Adamo, R. Cammi, 
 J. W. Ochterski, R. L. Martin, K. Morokuma, O. Farkas, 
 J. B. Foresman, and D. J. Fox, Gaussian, Inc., Wallingford CT, 2019.
 
 ******************************************
 Gaussian 16:  ES64L-G16RevC.01  3-Jul-2019
                 8-Apr-2025 
 ******************************************
 %nprocs=16
 Will use up to   16 processors via shared memory.
 %mem=30GB
 %chk=BDE49_nonexpt_142_mol2.chk
 ----------------------------------------------------------------------
 #t hf aug-cc-pvdz iop(5/13=1,5/36=2,99/5=2) pseudo=read geom=check gue
 ss=(read,tcheck) scf=(maxcycle=1)
 ----------------------------------------------------------------------
 -----
 title
 -----
 Structure from the checkpoint file:  "BDE49_nonexpt_142_mol2.chk"
 Charge =  0 Multiplicity = 2
 Z-Matrix found in chk file.
 B,0,-0.844449,-0.000001,-0.000002
 B,0,0.717137,0.,0.000003
 H,0,1.328764,1.026897,-0.000002
 H,0,1.328773,-1.026892,0.000003
 H,0,-2.020977,0.,-0.000006
 Recover connectivity data from disk.
                    Distance matrix (angstroms):
                    1          2          3          4          5
     1  B    0.000000
     2  B    1.561586   0.000000
     3  H    2.403617   1.195243   0.000000
     4  H    2.403622   1.195243   2.053789   0.000000
     5  H    1.176528   2.738114   3.503610   3.503617   0.000000
 Framework group  C1[X(B2H3)]
 Deg. of freedom     9
                         Standard orientation:                         
 ---------------------------------------------------------------------
 Center     Atomic      Atomic             Coordinates (Angstroms)
 Number     Number       Type             X           Y           Z
 ---------------------------------------------------------------------
      1          5           0        0.844449   -0.000001    0.000002
      2          5           0       -0.717137   -0.000000   -0.000003
      3          1           0       -1.328764    1.026897    0.000002
      4          1           0       -1.328773   -1.026892   -0.000003
      5          1           0        2.020977    0.000000    0.000006
 ---------------------------------------------------------------------
 Rotational constants (GHZ):         237.7663578          23.8783712          21.6991696
 ======================================================================================================
                                       Pseudopotential Parameters
 ======================================================================================================
  Center     Atomic      Valence      Angular      Power
  Number     Number     Electrons     Momentum     of R      Exponent        Coefficient   SO-Coeffient
 ======================================================================================================
    1          5            5
                                      G and up 
                                                     0        0.0000010       -0.00003285    0.00000000
                                                     2        0.1200000        0.02009075    0.00000000
                                                     2        0.1400000       -0.05866979    0.00000000
                                                     2        0.1800000        0.09995788    0.00000000
                                                     2        0.2400000       -0.11795078    0.00000000
                                                     2        0.4000000        0.15024519    0.00000000
                                                     2        0.7000000       -0.33885613    0.00000000
                                                     2        1.7000000        0.21467576    0.00000000
                                      S - G
                                                     0        0.0000010       -0.00100850    0.00000000
                                                     2        0.1200000       -0.13105755    0.00000000
                                                     2        0.1800000        0.21911891    0.00000000
                                      P - G
                                                     0        0.0000010        0.06216691    0.00000000
                                                     2        0.1200000       -0.01035601    0.00000000
                                                     2        0.1600000        0.01974098    0.00000000
                                                     2        0.2600000       -0.03556758    0.00000000
                                      D - G
                                                     0        0.0000010        0.03724396    0.00000000
                                                     2        0.1200000       -0.16834167    0.00000000
                                                     2        0.1800000        0.42333345    0.00000000
                                                     2        0.4000000       -1.11304036    0.00000000
                                                     2        0.7000000        1.72162222    0.00000000
                                      F - G
                                                     0        0.0000010       -0.04974272    0.00000000
                                                     2        0.1200000        0.10484788    0.00000000
                                                     2        0.1600000       -0.14333884    0.00000000
                                                     2        0.2800000       -0.09166252    0.00000000
                                                     2        0.5000000        0.53351878    0.00000000
    2          5            5
                                      G and up 
                                                     0        0.0000010       -0.00003285    0.00000000
                                                     2        0.1200000        0.02009075    0.00000000
                                                     2        0.1400000       -0.05866979    0.00000000
                                                     2        0.1800000        0.09995788    0.00000000
                                                     2        0.2400000       -0.11795078    0.00000000
                                                     2        0.4000000        0.15024519    0.00000000
                                                     2        0.7000000       -0.33885613    0.00000000
                                                     2        1.7000000        0.21467576    0.00000000
                                      S - G
                                                     0        0.0000010       -0.00100850    0.00000000
                                                     2        0.1200000       -0.13105755    0.00000000
                                                     2        0.1800000        0.21911891    0.00000000
                                      P - G
                                                     0        0.0000010        0.06216691    0.00000000
                                                     2        0.1200000       -0.01035601    0.00000000
                                                     2        0.1600000        0.01974098    0.00000000
                                                     2        0.2600000       -0.03556758    0.00000000
                                      D - G
                                                     0        0.0000010        0.03724396    0.00000000
                                                     2        0.1200000       -0.16834167    0.00000000
                                                     2        0.1800000        0.42333345    0.00000000
                                                     2        0.4000000       -1.11304036    0.00000000
                                                     2        0.7000000        1.72162222    0.00000000
                                      F - G
                                                     0        0.0000010       -0.04974272    0.00000000
                                                     2        0.1200000        0.10484788    0.00000000
                                                     2        0.1600000       -0.14333884    0.00000000
                                                     2        0.2800000       -0.09166252    0.00000000
                                                     2        0.5000000        0.53351878    0.00000000
    3          1            1
                                      F and up 
                                                     0        0.0000010       -0.00000699    0.00000000
                                                     2        0.1200000        0.00123686    0.00000000
                                                     2        0.1800000       -0.00752022    0.00000000
                                                     2        0.2600000        0.02503380    0.00000000
                                                     2        0.4000000       -0.08702670    0.00000000
                                                     2        0.6000000        0.30134159    0.00000000
                                                     2        0.8000000       -0.50204959    0.00000000
                                                     2        1.2000000        0.52208372    0.00000000
                                      S - F
                                                     0        0.0000010       -0.01618346    0.00000000
                                                     2        0.1200000       -0.07880581    0.00000000
                                                     2        0.1600000        0.32040539    0.00000000
                                                     2        0.2400000       -0.47500956    0.00000000
                                                     2        0.5000000        0.54013668    0.00000000
                                                     2        1.5000000       -1.40434292    0.00000000
                                                     2        3.0000000        1.46283806    0.00000000
                                      P - F
                                                     0        0.0000010        0.00612970    0.00000000
                                                     2        0.1200000        0.02254406    0.00000000
                                                     2        0.1800000       -0.13874529    0.00000000
                                                     2        0.3000000        0.38299049    0.00000000
                                                     2        0.5000000       -0.57923512    0.00000000
                                                     2        1.0000000        0.63021625    0.00000000
                                                     2        2.0000000       -0.79201034    0.00000000
                                      D - F
                                                     0        0.0000010       -0.00296226    0.00000000
                                                     2        0.1200000       -0.00547344    0.00000000
                                                     2        0.1400000        0.01837884    0.00000000
                                                     2        0.2400000       -0.05565704    0.00000000
                                                     2        0.4000000        0.15376597    0.00000000
                                                     2        0.8000000       -0.32464795    0.00000000
    4          1            1
                                      F and up 
                                                     0        0.0000010       -0.00000699    0.00000000
                                                     2        0.1200000        0.00123686    0.00000000
                                                     2        0.1800000       -0.00752022    0.00000000
                                                     2        0.2600000        0.02503380    0.00000000
                                                     2        0.4000000       -0.08702670    0.00000000
                                                     2        0.6000000        0.30134159    0.00000000
                                                     2        0.8000000       -0.50204959    0.00000000
                                                     2        1.2000000        0.52208372    0.00000000
                                      S - F
                                                     0        0.0000010       -0.01618346    0.00000000
                                                     2        0.1200000       -0.07880581    0.00000000
                                                     2        0.1600000        0.32040539    0.00000000
                                                     2        0.2400000       -0.47500956    0.00000000
                                                     2        0.5000000        0.54013668    0.00000000
                                                     2        1.5000000       -1.40434292    0.00000000
                                                     2        3.0000000        1.46283806    0.00000000
                                      P - F
                                                     0        0.0000010        0.00612970    0.00000000
                                                     2        0.1200000        0.02254406    0.00000000
                                                     2        0.1800000       -0.13874529    0.00000000
                                                     2        0.3000000        0.38299049    0.00000000
                                                     2        0.5000000       -0.57923512    0.00000000
                                                     2        1.0000000        0.63021625    0.00000000
                                                     2        2.0000000       -0.79201034    0.00000000
                                      D - F
                                                     0        0.0000010       -0.00296226    0.00000000
                                                     2        0.1200000       -0.00547344    0.00000000
                                                     2        0.1400000        0.01837884    0.00000000
                                                     2        0.2400000       -0.05565704    0.00000000
                                                     2        0.4000000        0.15376597    0.00000000
                                                     2        0.8000000       -0.32464795    0.00000000
    5          1            1
                                      F and up 
                                                     0        0.0000010       -0.00000699    0.00000000
                                                     2        0.1200000        0.00123686    0.00000000
                                                     2        0.1800000       -0.00752022    0.00000000
                                                     2        0.2600000        0.02503380    0.00000000
                                                     2        0.4000000       -0.08702670    0.00000000
                                                     2        0.6000000        0.30134159    0.00000000
                                                     2        0.8000000       -0.50204959    0.00000000
                                                     2        1.2000000        0.52208372    0.00000000
                                      S - F
                                                     0        0.0000010       -0.01618346    0.00000000
                                                     2        0.1200000       -0.07880581    0.00000000
                                                     2        0.1600000        0.32040539    0.00000000
                                                     2        0.2400000       -0.47500956    0.00000000
                                                     2        0.5000000        0.54013668    0.00000000
                                                     2        1.5000000       -1.40434292    0.00000000
                                                     2        3.0000000        1.46283806    0.00000000
                                      P - F
                                                     0        0.0000010        0.00612970    0.00000000
                                                     2        0.1200000        0.02254406    0.00000000
                                                     2        0.1800000       -0.13874529    0.00000000
                                                     2        0.3000000        0.38299049    0.00000000
                                                     2        0.5000000       -0.57923512    0.00000000
                                                     2        1.0000000        0.63021625    0.00000000
                                                     2        2.0000000       -0.79201034    0.00000000
                                      D - F
                                                     0        0.0000010       -0.00296226    0.00000000
                                                     2        0.1200000       -0.00547344    0.00000000
                                                     2        0.1400000        0.01837884    0.00000000
                                                     2        0.2400000       -0.05565704    0.00000000
                                                     2        0.4000000        0.15376597    0.00000000
                                                     2        0.8000000       -0.32464795    0.00000000
 ======================================================================================================
    73 basis functions,   119 primitive gaussians,    77 cartesian basis functions
     7 alpha electrons        6 beta electrons
       nuclear repulsion energy        18.8756818610 Hartrees.
 NAtoms=    5 NActive=    5 NUniq=    5 SFac= 1.00D+00 NAtFMM=   60 NAOKFM=F Big=F
   1 Symmetry operations used in ECPInt.
 ECPInt:  NShTT=     561 NPrTT=    2377 LenC2=     562 LenP2D=    2217.
 LDataN:  DoStor=T MaxTD1= 6 Len=  172
 Initial guess from the checkpoint file:  "BDE49_nonexpt_142_mol2.chk"
 B after Tr=     0.000000   -0.000000   -0.000000
         Rot=    0.000000   -0.000000    1.000000   -0.000000 Ang=-180.00 deg.
 Initial guess <Sx>= 0.0000 <Sy>= 0.0000 <Sz>= 0.5000 <S**2>= 0.7577 S= 0.5039
 >>>>>>>>>> Convergence criterion not met.
 SCF Done:  E(UHF) =  -51.0380350011     A.U. after    2 cycles
            NFock=  1  Conv=0.40D-02     -V/T= 1.9994
 <Sx>= 0.0000 <Sy>= 0.0000 <Sz>= 0.5000 <S**2>= 0.7578 S= 0.5039
 <L.S>=  0.00000000000    
 Annihilation of the first spin contaminant:
 S**2 before annihilation     0.7578,   after     0.7500

 **********************************************************************

            Population analysis using the SCF Density.

 **********************************************************************

 Orbital symmetries:
 Alpha Orbitals:
       Occupied  (A) (A) (A) (A) (A) (A) (A)
       Virtual   (A) (A) (A) (A) (A) (A) (A) (A) (A) (A) (A) (A)
                 (A) (A) (A) (A) (A) (A) (A) (A) (A) (A) (A) (A)
                 (A) (A) (A) (A) (A) (A) (A) (A) (A) (A) (A) (A)
                 (A) (A) (A) (A) (A) (A) (A) (A) (A) (A) (A) (A)
                 (A) (A) (A) (A) (A) (A) (A) (A) (A) (A) (A) (A)
                 (A) (A) (A) (A) (A) (A)
 Beta  Orbitals:
       Occupied  (A) (A) (A) (A) (A) (A)
       Virtual   (A) (A) (A) (A) (A) (A) (A) (A) (A) (A) (A) (A)
                 (A) (A) (A) (A) (A) (A) (A) (A) (A) (A) (A) (A)
                 (A) (A) (A) (A) (A) (A) (A) (A) (A) (A) (A) (A)
                 (A) (A) (A) (A) (A) (A) (A) (A) (A) (A) (A) (A)
                 (A) (A) (A) (A) (A) (A) (A) (A) (A) (A) (A) (A)
                 (A) (A) (A) (A) (A) (A) (A)
 The electronic state is 2-A.
 Alpha  occ. eigenvalues --   -7.65516  -7.58890  -0.75083  -0.62969  -0.48852
 Alpha  occ. eigenvalues --   -0.48556  -0.32679
 Alpha virt. eigenvalues --    0.03636   0.03797   0.04872   0.05969   0.06669
 Alpha virt. eigenvalues --    0.06852   0.07428   0.09849   0.10773   0.12864
 Alpha virt. eigenvalues --    0.14243   0.14475   0.15215   0.23875   0.23917
 Alpha virt. eigenvalues --    0.27520   0.28837   0.29903   0.31732   0.32518
 Alpha virt. eigenvalues --    0.34061   0.36223   0.37678   0.38621   0.40538
 Alpha virt. eigenvalues --    0.43463   0.46306   0.46643   0.48130   0.51054
 Alpha virt. eigenvalues --    0.53305   0.53900   0.57886   0.59970   0.61453
 Alpha virt. eigenvalues --    0.62091   0.69644   0.77892   0.78254   0.81015
 Alpha virt. eigenvalues --    0.87813   0.95639   0.98760   1.03719   1.05951
 Alpha virt. eigenvalues --    1.10921   1.11777   1.18904   1.23061   1.30832
 Alpha virt. eigenvalues --    1.38059   1.40413   1.45144   1.56949   1.74820
 Alpha virt. eigenvalues --    1.75388   2.07092   2.08634   2.14458   2.18298
 Alpha virt. eigenvalues --    2.18484   2.37314   2.47764   2.65941   2.77808
 Alpha virt. eigenvalues --    3.02173
  Beta  occ. eigenvalues --   -7.64522  -7.58657  -0.70158  -0.61516  -0.48474
  Beta  occ. eigenvalues --   -0.47560
  Beta virt. eigenvalues --    0.02440   0.03859   0.04191   0.04983   0.06093
  Beta virt. eigenvalues --    0.07321   0.07492   0.10077   0.10692   0.10991
  Beta virt. eigenvalues --    0.13436   0.14271   0.15410   0.19623   0.24352
  Beta virt. eigenvalues --    0.25745   0.29260   0.29598   0.30139   0.33386
  Beta virt. eigenvalues --    0.33719   0.34670   0.36491   0.39654   0.40952
  Beta virt. eigenvalues --    0.40996   0.44021   0.46578   0.46995   0.50850
  Beta virt. eigenvalues --    0.51478   0.53377   0.54474   0.58947   0.60170
  Beta virt. eigenvalues --    0.62457   0.63932   0.69713   0.78337   0.80026
  Beta virt. eigenvalues --    0.84663   0.88117   0.96586   1.02676   1.07632
  Beta virt. eigenvalues --    1.09030   1.12105   1.12168   1.21204   1.23338
  Beta virt. eigenvalues --    1.31222   1.38402   1.41138   1.47317   1.57940
  Beta virt. eigenvalues --    1.75325   1.75633   2.07240   2.08466   2.15108
  Beta virt. eigenvalues --    2.18560   2.18956   2.37307   2.47839   2.66027
  Beta virt. eigenvalues --    2.77858   3.02508
          Condensed to atoms (all electrons):
          Atomic-Atomic Spin Densities.
 Mulliken charges and spin densities:
               1          2
     1  B   -0.471315   0.777071
     2  B   -0.205741   0.345899
     3  H    0.181610  -0.052782
     4  H    0.181610  -0.052781
     5  H    0.313836  -0.017407
 Sum of Mulliken charges =   0.00000   1.00000
 Mulliken charges and spin densities with hydrogens summed into heavy atoms:
               1          2
     1  B   -0.157479   0.759664
     2  B    0.157479   0.240336
 Electronic spatial extent (au):  <R**2>=             89.3730
 Charge=             -0.0000 electrons
 Dipole moment (field-independent basis, Debye):
    X=              1.4195    Y=             -0.0000    Z=              0.0000  Tot=              1.4195
                          Isotropic Fermi Contact Couplings
        Atom                 a.u.       MegaHertz       Gauss      10(-4) cm-1
     1  B(11)              0.05419      77.73448      27.73760      25.92943
     2  B(11)              0.00054       0.77428       0.27628       0.25827
     3  H(1)              -0.00711     -31.78596     -11.34202     -10.60265
     4  H(1)              -0.00711     -31.78594     -11.34201     -10.60265
     5  H(1)              -0.01588     -70.97785     -25.32666     -23.67566
 --------------------------------------------------------
       Center         ----  Spin Dipole Couplings  ----
                      3XX-RR        3YY-RR        3ZZ-RR
 --------------------------------------------------------
     1   Atom       -0.177261     -0.193607      0.370868
     2   Atom       -0.066376     -0.072409      0.138786
     3   Atom        0.003513     -0.001684     -0.001829
     4   Atom        0.003513     -0.001684     -0.001829
     5   Atom        0.035375     -0.036742      0.001367
 --------------------------------------------------------
                        XY            XZ            YZ
 --------------------------------------------------------
     1   Atom       -0.000000     -0.000003     -0.000001
     2   Atom        0.000000      0.000000     -0.000001
     3   Atom       -0.017657     -0.000000      0.000000
     4   Atom        0.017657      0.000000     -0.000000
     5   Atom        0.000000      0.000000     -0.000000
 --------------------------------------------------------


 ---------------------------------------------------------------------------------
              Anisotropic Spin Dipole Couplings in Principal Axis System
 ---------------------------------------------------------------------------------

       Atom             a.u.   MegaHertz   Gauss  10(-4) cm-1        Axes

              Baa    -0.1936   -33.148   -11.828   -11.057  0.0000  1.0000  0.0000
     1 B(11)  Bbb    -0.1773   -30.350   -10.830   -10.124  1.0000 -0.0000  0.0000
              Bcc     0.3709    63.498    22.658    21.181 -0.0000 -0.0000  1.0000
 
              Baa    -0.0724   -12.398    -4.424    -4.135 -0.0000  1.0000  0.0000
     2 B(11)  Bbb    -0.0664   -11.365    -4.055    -3.791  1.0000  0.0000 -0.0000
              Bcc     0.1388    23.762     8.479     7.926  0.0000 -0.0000  1.0000
 
              Baa    -0.0169    -9.034    -3.224    -3.014  0.6536  0.7568 -0.0000
     3 H(1)   Bbb    -0.0018    -0.976    -0.348    -0.325  0.0000 -0.0000  1.0000
              Bcc     0.0188    10.010     3.572     3.339  0.7568 -0.6536 -0.0000
 
              Baa    -0.0169    -9.034    -3.224    -3.014 -0.6536  0.7568  0.0000
     4 H(1)   Bbb    -0.0018    -0.976    -0.348    -0.325  0.0000 -0.0000  1.0000
              Bcc     0.0188    10.010     3.572     3.339  0.7568  0.6536  0.0000
 
              Baa    -0.0367   -19.604    -6.995    -6.539 -0.0000  1.0000  0.0000
     5 H(1)   Bbb     0.0014     0.729     0.260     0.243 -0.0000 -0.0000  1.0000
              Bcc     0.0354    18.875     6.735     6.296  1.0000  0.0000  0.0000
 

 ---------------------------------------------------------------------------------


 Test job not archived.
 1\1\GINC-SE087\SP\UHF\Aug-CC-pVDZ\B2H3(2)\OHZDE\08-Apr-2025\0\\#t hf a
 ug-cc-pvdz iop(5/13=1,5/36=2,99/5=2) pseudo=read geom=check guess=(rea
 d,tcheck) scf=(maxcycle=1)\\title\\0,2\B,0,-0.844449,-0.000001,-0.0000
 02\B,0,0.717137,0.,0.000003\H,0,1.328764,1.026897,-0.000002\H,0,1.3287
 73,-1.026892,0.000003\H,0,-2.020977,0.,-0.000006\\Version=ES64L-G16Rev
 C.01\State=2-A\HF=-51.038035\S2=0.757758\S2-1=0.\S2A=0.750024\RMSD=4.0
 07e-03\Dipole=-0.5584699,-0.0000007,-0.0000004\Quadrupole=0.0811702,0.
 3026843,-0.3838546,0.0000002,0.0000056,-0.0000017\PG=C01 [X(B2H3)]\\@


 GOD DOES NOT PLAY WITH DICE.
               -- A. EINSTEIN
 Job cpu time:       0 days  0 hours  0 minutes  9.8 seconds.
 Elapsed time:       0 days  0 hours  0 minutes  1.3 seconds.
 File lengths (MBytes):  RWF=      6 Int=      0 D2E=      0 Chk=      2 Scr=      1
 Normal termination of Gaussian 16 at Tue Apr  8 23:30:59 2025.
