 Entering Gaussian System, Link 0=g16
 Input=BDE49_expt_407_mol1.gjf
 Output=BDE49_expt_407_mol1.log
 Initial command:
 /arc/software/Gaussian/g16.c01/l1.exe "/tmp/slurm/4843162/Gau-518431.inp" -scrdir="/tmp/slurm/4843162/"
 Entering Link 1 = /arc/software/Gaussian/g16.c01/l1.exe PID=    518432.
  
 Copyright (c) 1988-2019, Gaussian, Inc.  All Rights Reserved.
  
 This is part of the Gaussian(R) 16 program.  It is based on
 the Gaussian(R) 09 system (copyright 2009, Gaussian, Inc.),
 the Gaussian(R) 03 system (copyright 2003, Gaussian, Inc.),
 the Gaussian(R) 98 system (copyright 1998, Gaussian, Inc.),
 the Gaussian(R) 94 system (copyright 1995, Gaussian, Inc.),
 the Gaussian 92(TM) system (copyright 1992, Gaussian, Inc.),
 the Gaussian 90(TM) system (copyright 1990, Gaussian, Inc.),
 the Gaussian 88(TM) system (copyright 1988, Gaussian, Inc.),
 the Gaussian 86(TM) system (copyright 1986, Carnegie Mellon
 University), and the Gaussian 82(TM) system (copyright 1983,
 Carnegie Mellon University). Gaussian is a federally registered
 trademark of Gaussian, Inc.
  
 This software contains proprietary and confidential information,
 including trade secrets, belonging to Gaussian, Inc.
  
 This software is provided under written license and may be
 used, copied, transmitted, or stored only in accord with that
 written license.
  
 The following legend is applicable only to US Government
 contracts under FAR:
  
                    RESTRICTED RIGHTS LEGEND
  
 Use, reproduction and disclosure by the US Government is
 subject to restrictions as set forth in subparagraphs (a)
 and (c) of the Commercial Computer Software - Restricted
 Rights clause in FAR 52.227-19.
  
 Gaussian, Inc.
 340 Quinnipiac St., Bldg. 40, Wallingford CT 06492
  
  
 ---------------------------------------------------------------
 Warning -- This program may not be used in any manner that
 competes with the business of Gaussian, Inc. or will provide
 assistance to any competitor of Gaussian, Inc.  The licensee
 of this program is prohibited from giving any competitor of
 Gaussian, Inc. access to this program.  By using this program,
 the user acknowledges that Gaussian, Inc. is engaged in the
 business of creating and licensing software in the field of
 computational chemistry and represents and warrants to the
 licensee that it is not a competitor of Gaussian, Inc. and that
 it will not use this program in any manner prohibited above.
 ---------------------------------------------------------------
  

 Cite this work as:
 Gaussian 16, Revision C.01,
 M. J. Frisch, G. W. Trucks, H. B. Schlegel, G. E. Scuseria, 
 M. A. Robb, J. R. Cheeseman, G. Scalmani, V. Barone, 
 G. A. Petersson, H. Nakatsuji, X. Li, M. Caricato, A. V. Marenich, 
 J. Bloino, B. G. Janesko, R. Gomperts, B. Mennucci, H. P. Hratchian, 
 J. V. Ortiz, A. F. Izmaylov, J. L. Sonnenberg, D. Williams-Young, 
 F. Ding, F. Lipparini, F. Egidi, J. Goings, B. Peng, A. Petrone, 
 T. Henderson, D. Ranasinghe, V. G. Zakrzewski, J. Gao, N. Rega, 
 G. Zheng, W. Liang, M. Hada, M. Ehara, K. Toyota, R. Fukuda, 
 J. Hasegawa, M. Ishida, T. Nakajima, Y. Honda, O. Kitao, H. Nakai, 
 T. Vreven, K. Throssell, J. A. Montgomery, Jr., J. E. Peralta, 
 F. Ogliaro, M. J. Bearpark, J. J. Heyd, E. N. Brothers, K. N. Kudin, 
 V. N. Staroverov, T. A. Keith, R. Kobayashi, J. Normand, 
 K. Raghavachari, A. P. Rendell, J. C. Burant, S. S. Iyengar, 
 J. Tomasi, M. Cossi, J. M. Millam, M. Klene, C. Adamo, R. Cammi, 
 J. W. Ochterski, R. L. Martin, K. Morokuma, O. Farkas, 
 J. B. Foresman, and D. J. Fox, Gaussian, Inc., Wallingford CT, 2019.
 
 ******************************************
 Gaussian 16:  ES64L-G16RevC.01  3-Jul-2019
                 8-Apr-2025 
 ******************************************
 %nprocs=16
 Will use up to   16 processors via shared memory.
 %mem=30GB
 %chk=BDE49_expt_407_mol1.chk
 ----------------------------------------------------------------------
 #t hf aug-cc-pvdz symm=none int=(grid=ultrafine) guess=(read,tcheck) s
 table=(opt,rrhf)
 ----------------------------------------------------------------------
 -----
 title
 -----
 Symbolic Z-matrix:
 Charge =  0 Multiplicity = 1
 C                     1.40663  -1.50522  -0.0019 
 C                     2.69358  -1.02346   0.00241 
 C                     2.94103   0.36888   0.00581 
 C                     1.88752   1.25182   0.00491 
 C                     0.54853   0.78813   0.00033 
 C                     0.29483  -0.62049  -0.0032 
 C                    -1.0421   -1.0858   -0.00334 
 C                    -2.11043  -0.20763  -0.00527 
 C                    -1.84943   1.19251  -0.00689 
 C                    -0.5652    1.66793  -0.00082 
 H                     3.5292   -1.71486   0.00267 
 H                     3.96148   0.7346    0.00879 
 H                     1.2235   -2.57492  -0.00518 
 H                     2.06862   2.32211   0.00723 
 H                    -2.68682   1.88321  -0.01923 
 H                    -0.38684   2.73844   0.00095 
 N                    -3.43129  -0.65158  -0.06996 
 H                    -3.57972  -1.60636   0.22213 
 H                    -4.11657  -0.02454   0.32521 
 H                    -1.22356  -2.15671  -0.00508 
 
                    Distance matrix (angstroms):
                    1          2          3          4          5
     1  C    0.000000
     2  C    1.374172   0.000000
     3  C    2.422130   1.414169   0.000000
     4  C    2.798670   2.413845   1.374580   0.000000
     5  C    2.448628   2.807685   2.428961   1.417006   0.000000
     6  C    1.420862   2.432371   2.825127   2.458101   1.431289
     7  C    2.484381   3.736196   4.240459   3.747955   2.457995
     8  C    3.748784   4.872789   5.084262   4.256015   2.839304
     9  C    4.228431   5.054651   4.860763   3.737434   2.431827
    10  C    3.735899   4.226489   3.739145   2.487768   1.419309
    11  H    2.132908   1.084574   2.165167   3.390624   3.892220
    12  H    3.397670   2.167578   1.084006   2.137488   3.413377
    13  H    1.085273   2.137337   3.408229   3.883938   3.430125
    14  H    3.884164   3.403447   2.139206   1.085505   2.159579
    15  H    5.313945   6.115380   5.828080   4.617769   3.415710
    16  H    4.607073   4.862187   4.085284   2.717122   2.163009
    17  N    4.913123   6.136575   6.453961   5.649627   4.232815
    18  H    4.992396   6.304144   6.816783   6.173088   4.777575
    19  H    5.727572   6.890583   7.075773   6.146607   4.746492
    20  H    2.709676   4.077779   4.870584   4.614867   3.436925
                    6          7          8          9         10
     6  C    0.000000
     7  C    1.415583   0.000000
     8  C    2.440427   1.382935   0.000000
     9  C    2.807985   2.417124   1.424262   0.000000
    10  C    2.444685   2.794720   2.430121   1.369419   0.000000
    11  H    3.414510   4.614380   5.837567   6.114126   5.311063
    12  H    3.909060   5.324449   6.144594   5.828942   4.621905
    13  H    2.163854   2.711164   4.088901   4.861730   4.604481
    14  H    3.435885   4.614161   4.885095   4.077654   2.713852
    15  H    3.893449   3.394169   2.168882   1.085562   2.132596
    16  H    3.427396   3.879969   3.413226   2.128170   1.085265
    17  N    3.726846   2.429249   1.394977   2.430419   3.687737
    18  H    4.004346   2.600256   2.041312   3.298486   4.456230
    19  H    4.463564   3.269036   2.041409   2.594504   3.947533
    20  H    2.159974   1.086177   2.141360   3.407195   3.880893
                   11         12         13         14         15
    11  H    0.000000
    12  H    2.487319   0.000000
    13  H    2.460898   4.295306   0.000000
    14  H    4.293072   2.470451   4.969436   0.000000
    15  H    7.182305   6.746849   5.930070   4.775720   0.000000
    16  H    5.930199   4.787832   5.552028   2.490510   2.453919
    17  N    7.041613   7.522019   5.036918   6.252822   2.642341
    18  H    7.113131   7.899064   4.905167   6.883509   3.610069
    19  H    7.837029   8.119810   5.927050   6.623024   2.408807
    20  H    4.773263   5.936709   2.482542   5.558634   4.296774
                   16         17         18         19         20
    16  H    0.000000
    17  N    4.556964   0.000000
    18  H    5.396351   1.009431   0.000000
    19  H    4.652966   1.009423   1.673610   0.000000
    20  H    4.966145   2.672770   2.430220   3.608976   0.000000
 Symmetry turned off by external request.
 Rotational constants (GHZ):           2.8457792           0.8263629           0.6407559
   334 basis functions,   572 primitive gaussians,   356 cartesian basis functions
    38 alpha electrons       38 beta electrons
       nuclear repulsion energy       544.0247435778 Hartrees.
 NAtoms=   20 NActive=   20 NUniq=   20 SFac= 1.00D+00 NAtFMM=   60 NAOKFM=F Big=F
 ExpMin= 2.97D-02 ExpMax= 9.05D+03 ExpMxC= 3.09D+02 IAcc=3 IRadAn=         5 AccDes= 0.00D+00
 Harris functional with IExCor=  205 and IRadAn=       5 diagonalized for initial guess.
 HarFok:  IExCor=  205 AccDes= 0.00D+00 IRadAn=         5 IDoV= 1 UseB2=F ITyADJ=14
 ICtDFT=  3500011 ScaDFX=  1.000000  1.000000  1.000000  1.000000
 FoFCou: FMM=F IPFlag=           0 FMFlag=      100000 FMFlg1=           0
         NFxFlg=           0 DoJE=T BraDBF=F KetDBF=T FulRan=T
         wScrn=  0.000000 ICntrl=       500 IOpCl=  0 I1Cent=   200000004 NGrid=           0
         NMat0=    1 NMatS0=      1 NMatT0=    0 NMatD0=    1 NMtDS0=    0 NMtDT0=    0
 Symmetry not used in FoFCou.
 SCF Done:  E(RHF) =  -438.436606995     A.U. after   16 cycles
            NFock= 16  Conv=0.86D-08     -V/T= 2.0008

 **********************************************************************

            Population analysis using the SCF Density.

 **********************************************************************

 Alpha  occ. eigenvalues --  -15.57732 -11.28795 -11.24837 -11.24751 -11.24035
 Alpha  occ. eigenvalues --  -11.23926 -11.23864 -11.23818 -11.23421 -11.23250
 Alpha  occ. eigenvalues --  -11.22595  -1.23079  -1.16575  -1.09494  -1.04625
 Alpha  occ. eigenvalues --   -0.99858  -0.97278  -0.85592  -0.83080  -0.81199
 Alpha  occ. eigenvalues --   -0.71659  -0.70731  -0.69272  -0.65429  -0.62430
 Alpha  occ. eigenvalues --   -0.60888  -0.58621  -0.57623  -0.57297  -0.54412
 Alpha  occ. eigenvalues --   -0.52488  -0.49790  -0.48998  -0.47299  -0.41576
 Alpha  occ. eigenvalues --   -0.37695  -0.30470  -0.27231
 Alpha virt. eigenvalues --    0.03101   0.03818   0.03877   0.05053   0.05153
 Alpha virt. eigenvalues --    0.06652   0.07052   0.08249   0.08917   0.09708
 Alpha virt. eigenvalues --    0.10150   0.10862   0.11254   0.11794   0.12241
 Alpha virt. eigenvalues --    0.13110   0.13620   0.13919   0.14465   0.14957
 Alpha virt. eigenvalues --    0.15240   0.15418   0.15791   0.16084   0.16736
 Alpha virt. eigenvalues --    0.16912   0.17657   0.18233   0.18689   0.19220
 Alpha virt. eigenvalues --    0.19403   0.19683   0.20948   0.21171   0.21776
 Alpha virt. eigenvalues --    0.22405   0.22886   0.23557   0.24219   0.24848
 Alpha virt. eigenvalues --    0.25405   0.25737   0.26595   0.27104   0.29069
 Alpha virt. eigenvalues --    0.29498   0.29776   0.30587   0.31167   0.32288
 Alpha virt. eigenvalues --    0.33071   0.33428   0.34103   0.34340   0.34896
 Alpha virt. eigenvalues --    0.35480   0.36164   0.36810   0.37078   0.37767
 Alpha virt. eigenvalues --    0.38705   0.38964   0.39486   0.39971   0.41086
 Alpha virt. eigenvalues --    0.41120   0.42197   0.42364   0.42951   0.44624
 Alpha virt. eigenvalues --    0.45299   0.45691   0.46043   0.46852   0.47359
 Alpha virt. eigenvalues --    0.48176   0.49185   0.50288   0.51166   0.51604
 Alpha virt. eigenvalues --    0.52173   0.52354   0.54107   0.54742   0.56036
 Alpha virt. eigenvalues --    0.56512   0.57002   0.57277   0.57914   0.60153
 Alpha virt. eigenvalues --    0.60344   0.62345   0.62827   0.63710   0.64531
 Alpha virt. eigenvalues --    0.65033   0.65378   0.66007   0.66607   0.66803
 Alpha virt. eigenvalues --    0.67887   0.68104   0.68717   0.68767   0.69539
 Alpha virt. eigenvalues --    0.69988   0.70667   0.70965   0.71423   0.72617
 Alpha virt. eigenvalues --    0.73172   0.73463   0.74755   0.75362   0.75400
 Alpha virt. eigenvalues --    0.76324   0.77049   0.77479   0.77798   0.78798
 Alpha virt. eigenvalues --    0.79656   0.80124   0.81465   0.83274   0.84308
 Alpha virt. eigenvalues --    0.85479   0.87258   0.88186   0.89168   0.89693
 Alpha virt. eigenvalues --    0.90103   0.90477   0.91392   0.91810   0.93253
 Alpha virt. eigenvalues --    0.93749   0.94010   0.95145   0.95621   0.96279
 Alpha virt. eigenvalues --    0.97396   0.98083   0.98521   1.00171   1.00669
 Alpha virt. eigenvalues --    1.01525   1.02051   1.02774   1.04264   1.04690
 Alpha virt. eigenvalues --    1.06341   1.06762   1.07257   1.09313   1.10847
 Alpha virt. eigenvalues --    1.11205   1.13959   1.15252   1.16519   1.20260
 Alpha virt. eigenvalues --    1.20822   1.22445   1.23369   1.24721   1.26143
 Alpha virt. eigenvalues --    1.27322   1.30773   1.32273   1.33558   1.35669
 Alpha virt. eigenvalues --    1.37089   1.42786   1.47643   1.48248   1.49103
 Alpha virt. eigenvalues --    1.50894   1.52795   1.53623   1.54265   1.55063
 Alpha virt. eigenvalues --    1.56137   1.57295   1.57527   1.60428   1.62053
 Alpha virt. eigenvalues --    1.63015   1.63481   1.64307   1.64796   1.66022
 Alpha virt. eigenvalues --    1.67250   1.68343   1.69689   1.70562   1.71666
 Alpha virt. eigenvalues --    1.72990   1.75339   1.76025   1.77171   1.77703
 Alpha virt. eigenvalues --    1.78881   1.80683   1.81482   1.82654   1.84056
 Alpha virt. eigenvalues --    1.84731   1.85550   1.86969   1.88903   1.90934
 Alpha virt. eigenvalues --    1.93208   1.94090   1.95227   1.96645   1.97429
 Alpha virt. eigenvalues --    1.98009   1.98695   1.99482   2.01832   2.05643
 Alpha virt. eigenvalues --    2.06144   2.07955   2.08857   2.09189   2.09707
 Alpha virt. eigenvalues --    2.09777   2.12291   2.12806   2.14743   2.15415
 Alpha virt. eigenvalues --    2.17776   2.19128   2.21085   2.22465   2.23626
 Alpha virt. eigenvalues --    2.25603   2.25994   2.27392   2.28141   2.29110
 Alpha virt. eigenvalues --    2.29201   2.31117   2.32667   2.34016   2.34302
 Alpha virt. eigenvalues --    2.36210   2.36633   2.39037   2.40362   2.41157
 Alpha virt. eigenvalues --    2.41563   2.42728   2.45062   2.46357   2.47130
 Alpha virt. eigenvalues --    2.48976   2.51131   2.54838   2.56580   2.58261
 Alpha virt. eigenvalues --    2.60290   2.61803   2.67043   2.69527   2.72315
 Alpha virt. eigenvalues --    2.74797   2.78944   2.81014   2.83232   2.84422
 Alpha virt. eigenvalues --    2.86610   2.93426   2.95695   2.97996   2.99927
 Alpha virt. eigenvalues --    3.05116   3.09014   3.10544   3.13735   3.17259
 Alpha virt. eigenvalues --    3.21164   3.24615   3.28277   3.36097   3.39058
 Alpha virt. eigenvalues --    3.41569   3.48730   3.64662   3.70098   3.75713
 Alpha virt. eigenvalues --    3.81241   3.85955   3.91055   4.53288   4.75936
          Condensed to atoms (all electrons):
 Mulliken charges:
               1
     1  C    0.407293
     2  C    0.171901
     3  C    0.358469
     4  C    0.531776
     5  C    0.343688
     6  C    0.561397
     7  C    0.718447
     8  C   -0.058245
     9  C    0.742508
    10  C    0.685425
    11  H   -0.462871
    12  H   -0.460682
    13  H   -0.592209
    14  H   -0.589349
    15  H   -0.593509
    16  H   -0.642924
    17  N   -0.396403
    18  H   -0.027376
    19  H   -0.041290
    20  H   -0.656045
 Sum of Mulliken charges =  -0.00000
 Mulliken charges with hydrogens summed into heavy atoms:
               1
     1  C   -0.184916
     2  C   -0.290970
     3  C   -0.102213
     4  C   -0.057573
     5  C    0.343688
     6  C    0.561397
     7  C    0.062402
     8  C   -0.058245
     9  C    0.148998
    10  C    0.042501
    17  N   -0.465069
 Electronic spatial extent (au):  <R**2>=           1733.6204
 Charge=             -0.0000 electrons
 Dipole moment (field-independent basis, Debye):
    X=             -1.3444    Y=             -0.0558    Z=              0.9717  Tot=              1.6597
 NROrb=    333 NOA=    38 NOB=    38 NVA=   295 NVB=   295

 **** Warning!!: The largest alpha MO coefficient is  0.19029473D+03

    12 initial guesses have been made.
 Iteration     1 Dimension    12 NMult     0 NNew     12
 Iteration     2 Dimension    24 NMult    12 NNew     12
 Iteration     3 Dimension    27 NMult    24 NNew      3
 Iteration     4 Dimension    30 NMult    27 NNew      3
 Iteration     5 Dimension    33 NMult    30 NNew      3
 Iteration     6 Dimension    36 NMult    33 NNew      3
 Iteration     7 Dimension    39 NMult    36 NNew      3
 ***********************************************************************
 Stability analysis using <AA,BB:AA,BB> singles matrix:
 ***********************************************************************
 Ground to excited state transition densities written to RWF  633

 Eigenvectors of the stability matrix:
 
 Excited state symmetry could not be determined.
 Eigenvector   1:      Singlet-?Sym  Eigenvalue= 0.1356950  <S**2>=0.000
      37 -> 46         0.25266
      37 -> 50         0.20956
      37 -> 51        -0.12395
      37 -> 52        -0.15710
      38 -> 46         0.45031
      38 -> 50        -0.13492
      38 -> 52         0.14272
      38 -> 55        -0.10355
 The wavefunction is stable under the perturbations considered.
 The wavefunction is already stable.

 **********************************************************************

            Population analysis using the SCF Density.

 **********************************************************************

 Alpha  occ. eigenvalues --  -15.57732 -11.28795 -11.24837 -11.24751 -11.24035
 Alpha  occ. eigenvalues --  -11.23926 -11.23864 -11.23818 -11.23421 -11.23250
 Alpha  occ. eigenvalues --  -11.22595  -1.23079  -1.16575  -1.09494  -1.04625
 Alpha  occ. eigenvalues --   -0.99858  -0.97278  -0.85592  -0.83080  -0.81199
 Alpha  occ. eigenvalues --   -0.71659  -0.70731  -0.69272  -0.65429  -0.62430
 Alpha  occ. eigenvalues --   -0.60888  -0.58621  -0.57623  -0.57297  -0.54412
 Alpha  occ. eigenvalues --   -0.52488  -0.49790  -0.48998  -0.47299  -0.41576
 Alpha  occ. eigenvalues --   -0.37695  -0.30470  -0.27231
 Alpha virt. eigenvalues --    0.03101   0.03818   0.03877   0.05053   0.05153
 Alpha virt. eigenvalues --    0.06652   0.07052   0.08249   0.08917   0.09708
 Alpha virt. eigenvalues --    0.10150   0.10862   0.11254   0.11794   0.12241
 Alpha virt. eigenvalues --    0.13110   0.13620   0.13919   0.14465   0.14957
 Alpha virt. eigenvalues --    0.15240   0.15418   0.15791   0.16084   0.16736
 Alpha virt. eigenvalues --    0.16912   0.17657   0.18233   0.18689   0.19220
 Alpha virt. eigenvalues --    0.19403   0.19683   0.20948   0.21171   0.21776
 Alpha virt. eigenvalues --    0.22405   0.22886   0.23557   0.24219   0.24848
 Alpha virt. eigenvalues --    0.25405   0.25737   0.26595   0.27104   0.29069
 Alpha virt. eigenvalues --    0.29498   0.29776   0.30587   0.31167   0.32288
 Alpha virt. eigenvalues --    0.33071   0.33428   0.34103   0.34340   0.34896
 Alpha virt. eigenvalues --    0.35480   0.36164   0.36810   0.37078   0.37767
 Alpha virt. eigenvalues --    0.38705   0.38964   0.39486   0.39971   0.41086
 Alpha virt. eigenvalues --    0.41120   0.42197   0.42364   0.42951   0.44624
 Alpha virt. eigenvalues --    0.45299   0.45691   0.46043   0.46852   0.47359
 Alpha virt. eigenvalues --    0.48176   0.49185   0.50288   0.51166   0.51604
 Alpha virt. eigenvalues --    0.52173   0.52354   0.54107   0.54742   0.56036
 Alpha virt. eigenvalues --    0.56512   0.57002   0.57277   0.57914   0.60153
 Alpha virt. eigenvalues --    0.60344   0.62345   0.62827   0.63710   0.64531
 Alpha virt. eigenvalues --    0.65033   0.65378   0.66007   0.66607   0.66803
 Alpha virt. eigenvalues --    0.67887   0.68104   0.68717   0.68767   0.69539
 Alpha virt. eigenvalues --    0.69988   0.70667   0.70965   0.71423   0.72617
 Alpha virt. eigenvalues --    0.73172   0.73463   0.74755   0.75362   0.75400
 Alpha virt. eigenvalues --    0.76324   0.77049   0.77479   0.77798   0.78798
 Alpha virt. eigenvalues --    0.79656   0.80124   0.81465   0.83274   0.84308
 Alpha virt. eigenvalues --    0.85479   0.87258   0.88186   0.89168   0.89693
 Alpha virt. eigenvalues --    0.90103   0.90477   0.91392   0.91810   0.93253
 Alpha virt. eigenvalues --    0.93749   0.94010   0.95145   0.95621   0.96279
 Alpha virt. eigenvalues --    0.97396   0.98083   0.98521   1.00171   1.00669
 Alpha virt. eigenvalues --    1.01525   1.02051   1.02774   1.04264   1.04690
 Alpha virt. eigenvalues --    1.06341   1.06762   1.07257   1.09313   1.10847
 Alpha virt. eigenvalues --    1.11205   1.13959   1.15252   1.16519   1.20260
 Alpha virt. eigenvalues --    1.20822   1.22445   1.23369   1.24721   1.26143
 Alpha virt. eigenvalues --    1.27322   1.30773   1.32273   1.33558   1.35669
 Alpha virt. eigenvalues --    1.37089   1.42786   1.47643   1.48248   1.49103
 Alpha virt. eigenvalues --    1.50894   1.52795   1.53623   1.54265   1.55063
 Alpha virt. eigenvalues --    1.56137   1.57295   1.57527   1.60428   1.62053
 Alpha virt. eigenvalues --    1.63015   1.63481   1.64307   1.64796   1.66022
 Alpha virt. eigenvalues --    1.67250   1.68343   1.69689   1.70562   1.71666
 Alpha virt. eigenvalues --    1.72990   1.75339   1.76025   1.77171   1.77703
 Alpha virt. eigenvalues --    1.78881   1.80683   1.81482   1.82654   1.84056
 Alpha virt. eigenvalues --    1.84731   1.85550   1.86969   1.88903   1.90934
 Alpha virt. eigenvalues --    1.93208   1.94090   1.95227   1.96645   1.97429
 Alpha virt. eigenvalues --    1.98009   1.98695   1.99482   2.01832   2.05643
 Alpha virt. eigenvalues --    2.06144   2.07955   2.08857   2.09189   2.09707
 Alpha virt. eigenvalues --    2.09777   2.12291   2.12806   2.14743   2.15415
 Alpha virt. eigenvalues --    2.17776   2.19128   2.21085   2.22465   2.23626
 Alpha virt. eigenvalues --    2.25603   2.25994   2.27392   2.28141   2.29110
 Alpha virt. eigenvalues --    2.29201   2.31117   2.32667   2.34016   2.34302
 Alpha virt. eigenvalues --    2.36210   2.36633   2.39037   2.40362   2.41157
 Alpha virt. eigenvalues --    2.41563   2.42728   2.45062   2.46357   2.47130
 Alpha virt. eigenvalues --    2.48976   2.51131   2.54838   2.56580   2.58261
 Alpha virt. eigenvalues --    2.60290   2.61803   2.67043   2.69527   2.72315
 Alpha virt. eigenvalues --    2.74797   2.78944   2.81014   2.83232   2.84422
 Alpha virt. eigenvalues --    2.86610   2.93426   2.95695   2.97996   2.99927
 Alpha virt. eigenvalues --    3.05116   3.09014   3.10544   3.13735   3.17259
 Alpha virt. eigenvalues --    3.21164   3.24615   3.28277   3.36097   3.39058
 Alpha virt. eigenvalues --    3.41569   3.48730   3.64662   3.70098   3.75713
 Alpha virt. eigenvalues --    3.81241   3.85955   3.91055   4.53288   4.75936
          Condensed to atoms (all electrons):
 Mulliken charges:
               1
     1  C    0.407293
     2  C    0.171901
     3  C    0.358469
     4  C    0.531776
     5  C    0.343688
     6  C    0.561397
     7  C    0.718447
     8  C   -0.058245
     9  C    0.742508
    10  C    0.685425
    11  H   -0.462871
    12  H   -0.460682
    13  H   -0.592209
    14  H   -0.589349
    15  H   -0.593509
    16  H   -0.642924
    17  N   -0.396403
    18  H   -0.027376
    19  H   -0.041290
    20  H   -0.656045
 Sum of Mulliken charges =  -0.00000
 Mulliken charges with hydrogens summed into heavy atoms:
               1
     1  C   -0.184916
     2  C   -0.290970
     3  C   -0.102213
     4  C   -0.057573
     5  C    0.343688
     6  C    0.561397
     7  C    0.062402
     8  C   -0.058245
     9  C    0.148998
    10  C    0.042501
    17  N   -0.465069
 Electronic spatial extent (au):  <R**2>=           1733.6204
 Charge=             -0.0000 electrons
 Dipole moment (field-independent basis, Debye):
    X=             -1.3444    Y=             -0.0558    Z=              0.9717  Tot=              1.6597
 Unable to Open any file for archive entry.
 1\1\GINC-SE106\Stability\RHF\Aug-CC-pVDZ\C10H9N1\OHZDE\08-Apr-2025\0\\
 #t hf aug-cc-pvdz symm=none int=(grid=ultrafine) guess=(read,tcheck) s
 table=(opt,rrhf)\\title\\0,1\C,0,1.406625,-1.505216,-0.001902\C,0,2.69
 3576,-1.023463,0.002409\C,0,2.941032,0.368883,0.005806\C,0,1.887518,1.
 25182,0.004906\C,0,0.548533,0.788134,0.000329\C,0,0.294825,-0.620485,-
 0.003195\C,0,-1.042096,-1.085799,-0.003337\C,0,-2.110426,-0.207633,-0.
 005269\C,0,-1.849427,1.19251,-0.00689\C,0,-0.565197,1.66793,-0.000815\
 H,0,3.5292,-1.714863,0.002665\H,0,3.96148,0.734597,0.00879\H,0,1.22349
 9,-2.574922,-0.005175\H,0,2.068617,2.322109,0.007226\H,0,-2.686819,1.8
 8321,-0.019228\H,0,-0.386841,2.738437,0.000949\N,0,-3.431293,-0.651578
 ,-0.069962\H,0,-3.579716,-1.606357,0.222132\H,0,-4.116571,-0.024544,0.
 325205\H,0,-1.223563,-2.156709,-0.005077\\Version=ES64L-G16RevC.01\HF=
 -438.436607\RMSD=8.607e-09\Dipole=-0.5289322,-0.021954,0.3822886\Quadr
 upole=5.4860744,3.4269694,-8.9130438,0.5455244,-3.2127196,-0.5798809\P
 G=Unknown\\@
 The archive entry for this job was punched.


 There was a great rattling of the words for the fewness of ideas.
                   -- Charles Baxter in Gryphon
 Job cpu time:       0 days  0 hours 33 minutes  4.5 seconds.
 Elapsed time:       0 days  0 hours  2 minutes 17.3 seconds.
 File lengths (MBytes):  RWF=    461 Int=      0 D2E=      0 Chk=     15 Scr=      1
 Normal termination of Gaussian 16 at Tue Apr  8 23:06:55 2025.
 Initial command:
 /arc/software/Gaussian/g16.c01/l1.exe "/tmp/slurm/4843162/Gau-518431.inp" -scrdir="/tmp/slurm/4843162/"
 Entering Link 1 = /arc/software/Gaussian/g16.c01/l1.exe PID=    518675.
  
 Copyright (c) 1988-2019, Gaussian, Inc.  All Rights Reserved.
  
 This is part of the Gaussian(R) 16 program.  It is based on
 the Gaussian(R) 09 system (copyright 2009, Gaussian, Inc.),
 the Gaussian(R) 03 system (copyright 2003, Gaussian, Inc.),
 the Gaussian(R) 98 system (copyright 1998, Gaussian, Inc.),
 the Gaussian(R) 94 system (copyright 1995, Gaussian, Inc.),
 the Gaussian 92(TM) system (copyright 1992, Gaussian, Inc.),
 the Gaussian 90(TM) system (copyright 1990, Gaussian, Inc.),
 the Gaussian 88(TM) system (copyright 1988, Gaussian, Inc.),
 the Gaussian 86(TM) system (copyright 1986, Carnegie Mellon
 University), and the Gaussian 82(TM) system (copyright 1983,
 Carnegie Mellon University). Gaussian is a federally registered
 trademark of Gaussian, Inc.
  
 This software contains proprietary and confidential information,
 including trade secrets, belonging to Gaussian, Inc.
  
 This software is provided under written license and may be
 used, copied, transmitted, or stored only in accord with that
 written license.
  
 The following legend is applicable only to US Government
 contracts under FAR:
  
                    RESTRICTED RIGHTS LEGEND
  
 Use, reproduction and disclosure by the US Government is
 subject to restrictions as set forth in subparagraphs (a)
 and (c) of the Commercial Computer Software - Restricted
 Rights clause in FAR 52.227-19.
  
 Gaussian, Inc.
 340 Quinnipiac St., Bldg. 40, Wallingford CT 06492
  
  
 ---------------------------------------------------------------
 Warning -- This program may not be used in any manner that
 competes with the business of Gaussian, Inc. or will provide
 assistance to any competitor of Gaussian, Inc.  The licensee
 of this program is prohibited from giving any competitor of
 Gaussian, Inc. access to this program.  By using this program,
 the user acknowledges that Gaussian, Inc. is engaged in the
 business of creating and licensing software in the field of
 computational chemistry and represents and warrants to the
 licensee that it is not a competitor of Gaussian, Inc. and that
 it will not use this program in any manner prohibited above.
 ---------------------------------------------------------------
  

 Cite this work as:
 Gaussian 16, Revision C.01,
 M. J. Frisch, G. W. Trucks, H. B. Schlegel, G. E. Scuseria, 
 M. A. Robb, J. R. Cheeseman, G. Scalmani, V. Barone, 
 G. A. Petersson, H. Nakatsuji, X. Li, M. Caricato, A. V. Marenich, 
 J. Bloino, B. G. Janesko, R. Gomperts, B. Mennucci, H. P. Hratchian, 
 J. V. Ortiz, A. F. Izmaylov, J. L. Sonnenberg, D. Williams-Young, 
 F. Ding, F. Lipparini, F. Egidi, J. Goings, B. Peng, A. Petrone, 
 T. Henderson, D. Ranasinghe, V. G. Zakrzewski, J. Gao, N. Rega, 
 G. Zheng, W. Liang, M. Hada, M. Ehara, K. Toyota, R. Fukuda, 
 J. Hasegawa, M. Ishida, T. Nakajima, Y. Honda, O. Kitao, H. Nakai, 
 T. Vreven, K. Throssell, J. A. Montgomery, Jr., J. E. Peralta, 
 F. Ogliaro, M. J. Bearpark, J. J. Heyd, E. N. Brothers, K. N. Kudin, 
 V. N. Staroverov, T. A. Keith, R. Kobayashi, J. Normand, 
 K. Raghavachari, A. P. Rendell, J. C. Burant, S. S. Iyengar, 
 J. Tomasi, M. Cossi, J. M. Millam, M. Klene, C. Adamo, R. Cammi, 
 J. W. Ochterski, R. L. Martin, K. Morokuma, O. Farkas, 
 J. B. Foresman, and D. J. Fox, Gaussian, Inc., Wallingford CT, 2019.
 
 ******************************************
 Gaussian 16:  ES64L-G16RevC.01  3-Jul-2019
                 8-Apr-2025 
 ******************************************
 %nprocs=16
 Will use up to   16 processors via shared memory.
 %mem=30GB
 %chk=BDE49_expt_407_mol1.chk
 ----------------------------------------------------------------------
 #t hf aug-cc-pvdz iop(5/13=1,5/36=2,99/5=2) pseudo=read geom=check gue
 ss=(read,tcheck) scf=(maxcycle=1)
 ----------------------------------------------------------------------
 -----
 title
 -----
 Structure from the checkpoint file:  "BDE49_expt_407_mol1.chk"
 Charge =  0 Multiplicity = 1
 Z-Matrix found in chk file.
 C,0,1.406625,-1.505216,-0.001902
 C,0,2.693576,-1.023463,0.002409
 C,0,2.941032,0.368883,0.005806
 C,0,1.887518,1.25182,0.004906
 C,0,0.548533,0.788134,0.000329
 C,0,0.294825,-0.620485,-0.003195
 C,0,-1.042096,-1.085799,-0.003337
 C,0,-2.110426,-0.207633,-0.005269
 C,0,-1.849427,1.19251,-0.00689
 C,0,-0.565197,1.66793,-0.000815
 H,0,3.5292,-1.714863,0.002665
 H,0,3.96148,0.734597,0.00879
 H,0,1.223499,-2.574922,-0.005175
 H,0,2.068617,2.322109,0.007226
 H,0,-2.686819,1.88321,-0.019228
 H,0,-0.386841,2.738437,0.000949
 N,0,-3.431293,-0.651578,-0.069962
 H,0,-3.579716,-1.606357,0.222132
 H,0,-4.116571,-0.024544,0.325205
 H,0,-1.223563,-2.156709,-0.005077
 Recover connectivity data from disk.
                    Distance matrix (angstroms):
                    1          2          3          4          5
     1  C    0.000000
     2  C    1.374172   0.000000
     3  C    2.422130   1.414169   0.000000
     4  C    2.798670   2.413845   1.374580   0.000000
     5  C    2.448628   2.807685   2.428961   1.417006   0.000000
     6  C    1.420862   2.432371   2.825127   2.458101   1.431289
     7  C    2.484381   3.736196   4.240459   3.747955   2.457995
     8  C    3.748784   4.872789   5.084262   4.256015   2.839304
     9  C    4.228431   5.054651   4.860763   3.737434   2.431827
    10  C    3.735899   4.226489   3.739145   2.487768   1.419309
    11  H    2.132908   1.084574   2.165167   3.390624   3.892220
    12  H    3.397670   2.167578   1.084006   2.137488   3.413377
    13  H    1.085273   2.137337   3.408229   3.883938   3.430125
    14  H    3.884164   3.403447   2.139206   1.085505   2.159579
    15  H    5.313945   6.115380   5.828080   4.617769   3.415710
    16  H    4.607073   4.862187   4.085284   2.717122   2.163009
    17  N    4.913123   6.136575   6.453961   5.649627   4.232815
    18  H    4.992396   6.304144   6.816783   6.173088   4.777575
    19  H    5.727572   6.890583   7.075773   6.146607   4.746492
    20  H    2.709676   4.077779   4.870584   4.614867   3.436925
                    6          7          8          9         10
     6  C    0.000000
     7  C    1.415583   0.000000
     8  C    2.440427   1.382935   0.000000
     9  C    2.807985   2.417124   1.424262   0.000000
    10  C    2.444685   2.794720   2.430121   1.369419   0.000000
    11  H    3.414510   4.614380   5.837567   6.114126   5.311063
    12  H    3.909060   5.324449   6.144594   5.828942   4.621905
    13  H    2.163854   2.711164   4.088901   4.861730   4.604481
    14  H    3.435885   4.614161   4.885095   4.077654   2.713852
    15  H    3.893449   3.394169   2.168882   1.085562   2.132596
    16  H    3.427396   3.879969   3.413226   2.128170   1.085265
    17  N    3.726846   2.429249   1.394977   2.430419   3.687737
    18  H    4.004346   2.600256   2.041312   3.298486   4.456230
    19  H    4.463564   3.269036   2.041409   2.594504   3.947533
    20  H    2.159974   1.086177   2.141360   3.407195   3.880893
                   11         12         13         14         15
    11  H    0.000000
    12  H    2.487319   0.000000
    13  H    2.460898   4.295306   0.000000
    14  H    4.293072   2.470451   4.969436   0.000000
    15  H    7.182305   6.746849   5.930070   4.775720   0.000000
    16  H    5.930199   4.787832   5.552028   2.490510   2.453919
    17  N    7.041613   7.522019   5.036918   6.252822   2.642341
    18  H    7.113131   7.899064   4.905167   6.883509   3.610069
    19  H    7.837029   8.119810   5.927050   6.623024   2.408807
    20  H    4.773263   5.936709   2.482542   5.558634   4.296774
                   16         17         18         19         20
    16  H    0.000000
    17  N    4.556964   0.000000
    18  H    5.396351   1.009431   0.000000
    19  H    4.652966   1.009423   1.673610   0.000000
    20  H    4.966145   2.672770   2.430220   3.608976   0.000000
 Framework group  C1[X(C10H9N)]
 Deg. of freedom    54
                         Standard orientation:                         
 ---------------------------------------------------------------------
 Center     Atomic      Atomic             Coordinates (Angstroms)
 Number     Number       Type             X           Y           Z
 ---------------------------------------------------------------------
      1          6           0        1.406625   -1.505216   -0.001902
      2          6           0        2.693576   -1.023463    0.002409
      3          6           0        2.941032    0.368883    0.005806
      4          6           0        1.887518    1.251820    0.004906
      5          6           0        0.548533    0.788134    0.000329
      6          6           0        0.294825   -0.620485   -0.003195
      7          6           0       -1.042096   -1.085799   -0.003337
      8          6           0       -2.110426   -0.207633   -0.005269
      9          6           0       -1.849427    1.192510   -0.006890
     10          6           0       -0.565197    1.667930   -0.000815
     11          1           0        3.529200   -1.714863    0.002665
     12          1           0        3.961480    0.734597    0.008790
     13          1           0        1.223499   -2.574922   -0.005175
     14          1           0        2.068617    2.322109    0.007226
     15          1           0       -2.686819    1.883210   -0.019228
     16          1           0       -0.386841    2.738437    0.000949
     17          7           0       -3.431293   -0.651578   -0.069962
     18          1           0       -3.579716   -1.606357    0.222132
     19          1           0       -4.116571   -0.024544    0.325205
     20          1           0       -1.223563   -2.156709   -0.005077
 ---------------------------------------------------------------------
 Rotational constants (GHZ):           2.8457792           0.8263629           0.6407559
 ======================================================================================================
                                       Pseudopotential Parameters
 ======================================================================================================
  Center     Atomic      Valence      Angular      Power
  Number     Number     Electrons     Momentum     of R      Exponent        Coefficient   SO-Coeffient
 ======================================================================================================
    1          6            6
                                      G and up 
                                                     0        0.0000010       -0.00011185    0.00000000
                                                     2        0.1200000       -0.02301220    0.00000000
                                                     2        0.1400000        0.13317600    0.00000000
                                                     2        0.1600000       -0.19690668    0.00000000
                                                     2        0.2200000        0.23163694    0.00000000
                                                     2        0.3000000       -0.36920489    0.00000000
                                                     2        0.4000000        0.36389709    0.00000000
                                                     2        0.7000000       -0.38862160    0.00000000
                                                     2        1.3000000        0.80803421    0.00000000
                                      S - G
                                                     0        0.0000010        0.00312304    0.00000000
                                                     2        0.1200000       -0.00632892    0.00000000
                                                     2        0.2200000       -0.03780897    0.00000000
                                                     2        0.4000000        0.26269560    0.00000000
                                                     2        0.9000000       -0.28209514    0.00000000
                                                     2        1.5000000       -0.72686737    0.00000000
                                      P - G
                                                     0        0.0000010       -0.01465594    0.00000000
                                                     2        0.1200000        0.07908409    0.00000000
                                                     2        0.1800000       -0.30615861    0.00000000
                                                     2        0.2600000        0.41506950    0.00000000
                                                     2        0.5000000       -0.36252345    0.00000000
                                                     2        0.9000000        0.15124193    0.00000000
                                                     2        3.0000000       -0.80425677    0.00000000
                                      D - G
                                                     0        0.0000010        0.01149631    0.00000000
                                                     2        0.1200000       -0.04713561    0.00000000
                                                     2        0.1600000        0.10865096    0.00000000
                                                     2        0.2800000       -0.15816701    0.00000000
                                                     2        0.7000000        0.65478804    0.00000000
                                                     2        1.3000000       -1.73816624    0.00000000
                                      F - G
                                                     0        0.0000010        0.00481868    0.00000000
                                                     2        0.1200000       -0.04746842    0.00000000
                                                     2        0.1600000        0.09327889    0.00000000
                                                     2        0.4000000       -0.19693326    0.00000000
                                                     2        0.9000000        0.34938253    0.00000000
    2          6            6
                                      G and up 
                                                     0        0.0000010       -0.00011185    0.00000000
                                                     2        0.1200000       -0.02301220    0.00000000
                                                     2        0.1400000        0.13317600    0.00000000
                                                     2        0.1600000       -0.19690668    0.00000000
                                                     2        0.2200000        0.23163694    0.00000000
                                                     2        0.3000000       -0.36920489    0.00000000
                                                     2        0.4000000        0.36389709    0.00000000
                                                     2        0.7000000       -0.38862160    0.00000000
                                                     2        1.3000000        0.80803421    0.00000000
                                      S - G
                                                     0        0.0000010        0.00312304    0.00000000
                                                     2        0.1200000       -0.00632892    0.00000000
                                                     2        0.2200000       -0.03780897    0.00000000
                                                     2        0.4000000        0.26269560    0.00000000
                                                     2        0.9000000       -0.28209514    0.00000000
                                                     2        1.5000000       -0.72686737    0.00000000
                                      P - G
                                                     0        0.0000010       -0.01465594    0.00000000
                                                     2        0.1200000        0.07908409    0.00000000
                                                     2        0.1800000       -0.30615861    0.00000000
                                                     2        0.2600000        0.41506950    0.00000000
                                                     2        0.5000000       -0.36252345    0.00000000
                                                     2        0.9000000        0.15124193    0.00000000
                                                     2        3.0000000       -0.80425677    0.00000000
                                      D - G
                                                     0        0.0000010        0.01149631    0.00000000
                                                     2        0.1200000       -0.04713561    0.00000000
                                                     2        0.1600000        0.10865096    0.00000000
                                                     2        0.2800000       -0.15816701    0.00000000
                                                     2        0.7000000        0.65478804    0.00000000
                                                     2        1.3000000       -1.73816624    0.00000000
                                      F - G
                                                     0        0.0000010        0.00481868    0.00000000
                                                     2        0.1200000       -0.04746842    0.00000000
                                                     2        0.1600000        0.09327889    0.00000000
                                                     2        0.4000000       -0.19693326    0.00000000
                                                     2        0.9000000        0.34938253    0.00000000
    3          6            6
                                      G and up 
                                                     0        0.0000010       -0.00011185    0.00000000
                                                     2        0.1200000       -0.02301220    0.00000000
                                                     2        0.1400000        0.13317600    0.00000000
                                                     2        0.1600000       -0.19690668    0.00000000
                                                     2        0.2200000        0.23163694    0.00000000
                                                     2        0.3000000       -0.36920489    0.00000000
                                                     2        0.4000000        0.36389709    0.00000000
                                                     2        0.7000000       -0.38862160    0.00000000
                                                     2        1.3000000        0.80803421    0.00000000
                                      S - G
                                                     0        0.0000010        0.00312304    0.00000000
                                                     2        0.1200000       -0.00632892    0.00000000
                                                     2        0.2200000       -0.03780897    0.00000000
                                                     2        0.4000000        0.26269560    0.00000000
                                                     2        0.9000000       -0.28209514    0.00000000
                                                     2        1.5000000       -0.72686737    0.00000000
                                      P - G
                                                     0        0.0000010       -0.01465594    0.00000000
                                                     2        0.1200000        0.07908409    0.00000000
                                                     2        0.1800000       -0.30615861    0.00000000
                                                     2        0.2600000        0.41506950    0.00000000
                                                     2        0.5000000       -0.36252345    0.00000000
                                                     2        0.9000000        0.15124193    0.00000000
                                                     2        3.0000000       -0.80425677    0.00000000
                                      D - G
                                                     0        0.0000010        0.01149631    0.00000000
                                                     2        0.1200000       -0.04713561    0.00000000
                                                     2        0.1600000        0.10865096    0.00000000
                                                     2        0.2800000       -0.15816701    0.00000000
                                                     2        0.7000000        0.65478804    0.00000000
                                                     2        1.3000000       -1.73816624    0.00000000
                                      F - G
                                                     0        0.0000010        0.00481868    0.00000000
                                                     2        0.1200000       -0.04746842    0.00000000
                                                     2        0.1600000        0.09327889    0.00000000
                                                     2        0.4000000       -0.19693326    0.00000000
                                                     2        0.9000000        0.34938253    0.00000000
    4          6            6
                                      G and up 
                                                     0        0.0000010       -0.00011185    0.00000000
                                                     2        0.1200000       -0.02301220    0.00000000
                                                     2        0.1400000        0.13317600    0.00000000
                                                     2        0.1600000       -0.19690668    0.00000000
                                                     2        0.2200000        0.23163694    0.00000000
                                                     2        0.3000000       -0.36920489    0.00000000
                                                     2        0.4000000        0.36389709    0.00000000
                                                     2        0.7000000       -0.38862160    0.00000000
                                                     2        1.3000000        0.80803421    0.00000000
                                      S - G
                                                     0        0.0000010        0.00312304    0.00000000
                                                     2        0.1200000       -0.00632892    0.00000000
                                                     2        0.2200000       -0.03780897    0.00000000
                                                     2        0.4000000        0.26269560    0.00000000
                                                     2        0.9000000       -0.28209514    0.00000000
                                                     2        1.5000000       -0.72686737    0.00000000
                                      P - G
                                                     0        0.0000010       -0.01465594    0.00000000
                                                     2        0.1200000        0.07908409    0.00000000
                                                     2        0.1800000       -0.30615861    0.00000000
                                                     2        0.2600000        0.41506950    0.00000000
                                                     2        0.5000000       -0.36252345    0.00000000
                                                     2        0.9000000        0.15124193    0.00000000
                                                     2        3.0000000       -0.80425677    0.00000000
                                      D - G
                                                     0        0.0000010        0.01149631    0.00000000
                                                     2        0.1200000       -0.04713561    0.00000000
                                                     2        0.1600000        0.10865096    0.00000000
                                                     2        0.2800000       -0.15816701    0.00000000
                                                     2        0.7000000        0.65478804    0.00000000
                                                     2        1.3000000       -1.73816624    0.00000000
                                      F - G
                                                     0        0.0000010        0.00481868    0.00000000
                                                     2        0.1200000       -0.04746842    0.00000000
                                                     2        0.1600000        0.09327889    0.00000000
                                                     2        0.4000000       -0.19693326    0.00000000
                                                     2        0.9000000        0.34938253    0.00000000
    5          6            6
                                      G and up 
                                                     0        0.0000010       -0.00011185    0.00000000
                                                     2        0.1200000       -0.02301220    0.00000000
                                                     2        0.1400000        0.13317600    0.00000000
                                                     2        0.1600000       -0.19690668    0.00000000
                                                     2        0.2200000        0.23163694    0.00000000
                                                     2        0.3000000       -0.36920489    0.00000000
                                                     2        0.4000000        0.36389709    0.00000000
                                                     2        0.7000000       -0.38862160    0.00000000
                                                     2        1.3000000        0.80803421    0.00000000
                                      S - G
                                                     0        0.0000010        0.00312304    0.00000000
                                                     2        0.1200000       -0.00632892    0.00000000
                                                     2        0.2200000       -0.03780897    0.00000000
                                                     2        0.4000000        0.26269560    0.00000000
                                                     2        0.9000000       -0.28209514    0.00000000
                                                     2        1.5000000       -0.72686737    0.00000000
                                      P - G
                                                     0        0.0000010       -0.01465594    0.00000000
                                                     2        0.1200000        0.07908409    0.00000000
                                                     2        0.1800000       -0.30615861    0.00000000
                                                     2        0.2600000        0.41506950    0.00000000
                                                     2        0.5000000       -0.36252345    0.00000000
                                                     2        0.9000000        0.15124193    0.00000000
                                                     2        3.0000000       -0.80425677    0.00000000
                                      D - G
                                                     0        0.0000010        0.01149631    0.00000000
                                                     2        0.1200000       -0.04713561    0.00000000
                                                     2        0.1600000        0.10865096    0.00000000
                                                     2        0.2800000       -0.15816701    0.00000000
                                                     2        0.7000000        0.65478804    0.00000000
                                                     2        1.3000000       -1.73816624    0.00000000
                                      F - G
                                                     0        0.0000010        0.00481868    0.00000000
                                                     2        0.1200000       -0.04746842    0.00000000
                                                     2        0.1600000        0.09327889    0.00000000
                                                     2        0.4000000       -0.19693326    0.00000000
                                                     2        0.9000000        0.34938253    0.00000000
    6          6            6
                                      G and up 
                                                     0        0.0000010       -0.00011185    0.00000000
                                                     2        0.1200000       -0.02301220    0.00000000
                                                     2        0.1400000        0.13317600    0.00000000
                                                     2        0.1600000       -0.19690668    0.00000000
                                                     2        0.2200000        0.23163694    0.00000000
                                                     2        0.3000000       -0.36920489    0.00000000
                                                     2        0.4000000        0.36389709    0.00000000
                                                     2        0.7000000       -0.38862160    0.00000000
                                                     2        1.3000000        0.80803421    0.00000000
                                      S - G
                                                     0        0.0000010        0.00312304    0.00000000
                                                     2        0.1200000       -0.00632892    0.00000000
                                                     2        0.2200000       -0.03780897    0.00000000
                                                     2        0.4000000        0.26269560    0.00000000
                                                     2        0.9000000       -0.28209514    0.00000000
                                                     2        1.5000000       -0.72686737    0.00000000
                                      P - G
                                                     0        0.0000010       -0.01465594    0.00000000
                                                     2        0.1200000        0.07908409    0.00000000
                                                     2        0.1800000       -0.30615861    0.00000000
                                                     2        0.2600000        0.41506950    0.00000000
                                                     2        0.5000000       -0.36252345    0.00000000
                                                     2        0.9000000        0.15124193    0.00000000
                                                     2        3.0000000       -0.80425677    0.00000000
                                      D - G
                                                     0        0.0000010        0.01149631    0.00000000
                                                     2        0.1200000       -0.04713561    0.00000000
                                                     2        0.1600000        0.10865096    0.00000000
                                                     2        0.2800000       -0.15816701    0.00000000
                                                     2        0.7000000        0.65478804    0.00000000
                                                     2        1.3000000       -1.73816624    0.00000000
                                      F - G
                                                     0        0.0000010        0.00481868    0.00000000
                                                     2        0.1200000       -0.04746842    0.00000000
                                                     2        0.1600000        0.09327889    0.00000000
                                                     2        0.4000000       -0.19693326    0.00000000
                                                     2        0.9000000        0.34938253    0.00000000
    7          6            6
                                      G and up 
                                                     0        0.0000010       -0.00011185    0.00000000
                                                     2        0.1200000       -0.02301220    0.00000000
                                                     2        0.1400000        0.13317600    0.00000000
                                                     2        0.1600000       -0.19690668    0.00000000
                                                     2        0.2200000        0.23163694    0.00000000
                                                     2        0.3000000       -0.36920489    0.00000000
                                                     2        0.4000000        0.36389709    0.00000000
                                                     2        0.7000000       -0.38862160    0.00000000
                                                     2        1.3000000        0.80803421    0.00000000
                                      S - G
                                                     0        0.0000010        0.00312304    0.00000000
                                                     2        0.1200000       -0.00632892    0.00000000
                                                     2        0.2200000       -0.03780897    0.00000000
                                                     2        0.4000000        0.26269560    0.00000000
                                                     2        0.9000000       -0.28209514    0.00000000
                                                     2        1.5000000       -0.72686737    0.00000000
                                      P - G
                                                     0        0.0000010       -0.01465594    0.00000000
                                                     2        0.1200000        0.07908409    0.00000000
                                                     2        0.1800000       -0.30615861    0.00000000
                                                     2        0.2600000        0.41506950    0.00000000
                                                     2        0.5000000       -0.36252345    0.00000000
                                                     2        0.9000000        0.15124193    0.00000000
                                                     2        3.0000000       -0.80425677    0.00000000
                                      D - G
                                                     0        0.0000010        0.01149631    0.00000000
                                                     2        0.1200000       -0.04713561    0.00000000
                                                     2        0.1600000        0.10865096    0.00000000
                                                     2        0.2800000       -0.15816701    0.00000000
                                                     2        0.7000000        0.65478804    0.00000000
                                                     2        1.3000000       -1.73816624    0.00000000
                                      F - G
                                                     0        0.0000010        0.00481868    0.00000000
                                                     2        0.1200000       -0.04746842    0.00000000
                                                     2        0.1600000        0.09327889    0.00000000
                                                     2        0.4000000       -0.19693326    0.00000000
                                                     2        0.9000000        0.34938253    0.00000000
    8          6            6
                                      G and up 
                                                     0        0.0000010       -0.00011185    0.00000000
                                                     2        0.1200000       -0.02301220    0.00000000
                                                     2        0.1400000        0.13317600    0.00000000
                                                     2        0.1600000       -0.19690668    0.00000000
                                                     2        0.2200000        0.23163694    0.00000000
                                                     2        0.3000000       -0.36920489    0.00000000
                                                     2        0.4000000        0.36389709    0.00000000
                                                     2        0.7000000       -0.38862160    0.00000000
                                                     2        1.3000000        0.80803421    0.00000000
                                      S - G
                                                     0        0.0000010        0.00312304    0.00000000
                                                     2        0.1200000       -0.00632892    0.00000000
                                                     2        0.2200000       -0.03780897    0.00000000
                                                     2        0.4000000        0.26269560    0.00000000
                                                     2        0.9000000       -0.28209514    0.00000000
                                                     2        1.5000000       -0.72686737    0.00000000
                                      P - G
                                                     0        0.0000010       -0.01465594    0.00000000
                                                     2        0.1200000        0.07908409    0.00000000
                                                     2        0.1800000       -0.30615861    0.00000000
                                                     2        0.2600000        0.41506950    0.00000000
                                                     2        0.5000000       -0.36252345    0.00000000
                                                     2        0.9000000        0.15124193    0.00000000
                                                     2        3.0000000       -0.80425677    0.00000000
                                      D - G
                                                     0        0.0000010        0.01149631    0.00000000
                                                     2        0.1200000       -0.04713561    0.00000000
                                                     2        0.1600000        0.10865096    0.00000000
                                                     2        0.2800000       -0.15816701    0.00000000
                                                     2        0.7000000        0.65478804    0.00000000
                                                     2        1.3000000       -1.73816624    0.00000000
                                      F - G
                                                     0        0.0000010        0.00481868    0.00000000
                                                     2        0.1200000       -0.04746842    0.00000000
                                                     2        0.1600000        0.09327889    0.00000000
                                                     2        0.4000000       -0.19693326    0.00000000
                                                     2        0.9000000        0.34938253    0.00000000
    9          6            6
                                      G and up 
                                                     0        0.0000010       -0.00011185    0.00000000
                                                     2        0.1200000       -0.02301220    0.00000000
                                                     2        0.1400000        0.13317600    0.00000000
                                                     2        0.1600000       -0.19690668    0.00000000
                                                     2        0.2200000        0.23163694    0.00000000
                                                     2        0.3000000       -0.36920489    0.00000000
                                                     2        0.4000000        0.36389709    0.00000000
                                                     2        0.7000000       -0.38862160    0.00000000
                                                     2        1.3000000        0.80803421    0.00000000
                                      S - G
                                                     0        0.0000010        0.00312304    0.00000000
                                                     2        0.1200000       -0.00632892    0.00000000
                                                     2        0.2200000       -0.03780897    0.00000000
                                                     2        0.4000000        0.26269560    0.00000000
                                                     2        0.9000000       -0.28209514    0.00000000
                                                     2        1.5000000       -0.72686737    0.00000000
                                      P - G
                                                     0        0.0000010       -0.01465594    0.00000000
                                                     2        0.1200000        0.07908409    0.00000000
                                                     2        0.1800000       -0.30615861    0.00000000
                                                     2        0.2600000        0.41506950    0.00000000
                                                     2        0.5000000       -0.36252345    0.00000000
                                                     2        0.9000000        0.15124193    0.00000000
                                                     2        3.0000000       -0.80425677    0.00000000
                                      D - G
                                                     0        0.0000010        0.01149631    0.00000000
                                                     2        0.1200000       -0.04713561    0.00000000
                                                     2        0.1600000        0.10865096    0.00000000
                                                     2        0.2800000       -0.15816701    0.00000000
                                                     2        0.7000000        0.65478804    0.00000000
                                                     2        1.3000000       -1.73816624    0.00000000
                                      F - G
                                                     0        0.0000010        0.00481868    0.00000000
                                                     2        0.1200000       -0.04746842    0.00000000
                                                     2        0.1600000        0.09327889    0.00000000
                                                     2        0.4000000       -0.19693326    0.00000000
                                                     2        0.9000000        0.34938253    0.00000000
   10          6            6
                                      G and up 
                                                     0        0.0000010       -0.00011185    0.00000000
                                                     2        0.1200000       -0.02301220    0.00000000
                                                     2        0.1400000        0.13317600    0.00000000
                                                     2        0.1600000       -0.19690668    0.00000000
                                                     2        0.2200000        0.23163694    0.00000000
                                                     2        0.3000000       -0.36920489    0.00000000
                                                     2        0.4000000        0.36389709    0.00000000
                                                     2        0.7000000       -0.38862160    0.00000000
                                                     2        1.3000000        0.80803421    0.00000000
                                      S - G
                                                     0        0.0000010        0.00312304    0.00000000
                                                     2        0.1200000       -0.00632892    0.00000000
                                                     2        0.2200000       -0.03780897    0.00000000
                                                     2        0.4000000        0.26269560    0.00000000
                                                     2        0.9000000       -0.28209514    0.00000000
                                                     2        1.5000000       -0.72686737    0.00000000
                                      P - G
                                                     0        0.0000010       -0.01465594    0.00000000
                                                     2        0.1200000        0.07908409    0.00000000
                                                     2        0.1800000       -0.30615861    0.00000000
                                                     2        0.2600000        0.41506950    0.00000000
                                                     2        0.5000000       -0.36252345    0.00000000
                                                     2        0.9000000        0.15124193    0.00000000
                                                     2        3.0000000       -0.80425677    0.00000000
                                      D - G
                                                     0        0.0000010        0.01149631    0.00000000
                                                     2        0.1200000       -0.04713561    0.00000000
                                                     2        0.1600000        0.10865096    0.00000000
                                                     2        0.2800000       -0.15816701    0.00000000
                                                     2        0.7000000        0.65478804    0.00000000
                                                     2        1.3000000       -1.73816624    0.00000000
                                      F - G
                                                     0        0.0000010        0.00481868    0.00000000
                                                     2        0.1200000       -0.04746842    0.00000000
                                                     2        0.1600000        0.09327889    0.00000000
                                                     2        0.4000000       -0.19693326    0.00000000
                                                     2        0.9000000        0.34938253    0.00000000
   11          1            1
                                      F and up 
                                                     0        0.0000010       -0.00000699    0.00000000
                                                     2        0.1200000        0.00123686    0.00000000
                                                     2        0.1800000       -0.00752022    0.00000000
                                                     2        0.2600000        0.02503380    0.00000000
                                                     2        0.4000000       -0.08702670    0.00000000
                                                     2        0.6000000        0.30134159    0.00000000
                                                     2        0.8000000       -0.50204959    0.00000000
                                                     2        1.2000000        0.52208372    0.00000000
                                      S - F
                                                     0        0.0000010       -0.01618346    0.00000000
                                                     2        0.1200000       -0.07880581    0.00000000
                                                     2        0.1600000        0.32040539    0.00000000
                                                     2        0.2400000       -0.47500956    0.00000000
                                                     2        0.5000000        0.54013668    0.00000000
                                                     2        1.5000000       -1.40434292    0.00000000
                                                     2        3.0000000        1.46283806    0.00000000
                                      P - F
                                                     0        0.0000010        0.00612970    0.00000000
                                                     2        0.1200000        0.02254406    0.00000000
                                                     2        0.1800000       -0.13874529    0.00000000
                                                     2        0.3000000        0.38299049    0.00000000
                                                     2        0.5000000       -0.57923512    0.00000000
                                                     2        1.0000000        0.63021625    0.00000000
                                                     2        2.0000000       -0.79201034    0.00000000
                                      D - F
                                                     0        0.0000010       -0.00296226    0.00000000
                                                     2        0.1200000       -0.00547344    0.00000000
                                                     2        0.1400000        0.01837884    0.00000000
                                                     2        0.2400000       -0.05565704    0.00000000
                                                     2        0.4000000        0.15376597    0.00000000
                                                     2        0.8000000       -0.32464795    0.00000000
   12          1            1
                                      F and up 
                                                     0        0.0000010       -0.00000699    0.00000000
                                                     2        0.1200000        0.00123686    0.00000000
                                                     2        0.1800000       -0.00752022    0.00000000
                                                     2        0.2600000        0.02503380    0.00000000
                                                     2        0.4000000       -0.08702670    0.00000000
                                                     2        0.6000000        0.30134159    0.00000000
                                                     2        0.8000000       -0.50204959    0.00000000
                                                     2        1.2000000        0.52208372    0.00000000
                                      S - F
                                                     0        0.0000010       -0.01618346    0.00000000
                                                     2        0.1200000       -0.07880581    0.00000000
                                                     2        0.1600000        0.32040539    0.00000000
                                                     2        0.2400000       -0.47500956    0.00000000
                                                     2        0.5000000        0.54013668    0.00000000
                                                     2        1.5000000       -1.40434292    0.00000000
                                                     2        3.0000000        1.46283806    0.00000000
                                      P - F
                                                     0        0.0000010        0.00612970    0.00000000
                                                     2        0.1200000        0.02254406    0.00000000
                                                     2        0.1800000       -0.13874529    0.00000000
                                                     2        0.3000000        0.38299049    0.00000000
                                                     2        0.5000000       -0.57923512    0.00000000
                                                     2        1.0000000        0.63021625    0.00000000
                                                     2        2.0000000       -0.79201034    0.00000000
                                      D - F
                                                     0        0.0000010       -0.00296226    0.00000000
                                                     2        0.1200000       -0.00547344    0.00000000
                                                     2        0.1400000        0.01837884    0.00000000
                                                     2        0.2400000       -0.05565704    0.00000000
                                                     2        0.4000000        0.15376597    0.00000000
                                                     2        0.8000000       -0.32464795    0.00000000
   13          1            1
                                      F and up 
                                                     0        0.0000010       -0.00000699    0.00000000
                                                     2        0.1200000        0.00123686    0.00000000
                                                     2        0.1800000       -0.00752022    0.00000000
                                                     2        0.2600000        0.02503380    0.00000000
                                                     2        0.4000000       -0.08702670    0.00000000
[...]
                                                     2        0.1800000       -0.00752022    0.00000000
                                                     2        0.2600000        0.02503380    0.00000000
                                                     2        0.4000000       -0.08702670    0.00000000
                                                     2        0.6000000        0.30134159    0.00000000
                                                     2        0.8000000       -0.50204959    0.00000000
                                                     2        1.2000000        0.52208372    0.00000000
                                      S - F
                                                     0        0.0000010       -0.01618346    0.00000000
                                                     2        0.1200000       -0.07880581    0.00000000
                                                     2        0.1600000        0.32040539    0.00000000
                                                     2        0.2400000       -0.47500956    0.00000000
                                                     2        0.5000000        0.54013668    0.00000000
                                                     2        1.5000000       -1.40434292    0.00000000
                                                     2        3.0000000        1.46283806    0.00000000
                                      P - F
                                                     0        0.0000010        0.00612970    0.00000000
                                                     2        0.1200000        0.02254406    0.00000000
                                                     2        0.1800000       -0.13874529    0.00000000
                                                     2        0.3000000        0.38299049    0.00000000
                                                     2        0.5000000       -0.57923512    0.00000000
                                                     2        1.0000000        0.63021625    0.00000000
                                                     2        2.0000000       -0.79201034    0.00000000
                                      D - F
                                                     0        0.0000010       -0.00296226    0.00000000
                                                     2        0.1200000       -0.00547344    0.00000000
                                                     2        0.1400000        0.01837884    0.00000000
                                                     2        0.2400000       -0.05565704    0.00000000
                                                     2        0.4000000        0.15376597    0.00000000
                                                     2        0.8000000       -0.32464795    0.00000000
   19          1            1
                                      F and up 
                                                     0        0.0000010       -0.00000699    0.00000000
                                                     2        0.1200000        0.00123686    0.00000000
                                                     2        0.1800000       -0.00752022    0.00000000
                                                     2        0.2600000        0.02503380    0.00000000
                                                     2        0.4000000       -0.08702670    0.00000000
                                                     2        0.6000000        0.30134159    0.00000000
                                                     2        0.8000000       -0.50204959    0.00000000
                                                     2        1.2000000        0.52208372    0.00000000
                                      S - F
                                                     0        0.0000010       -0.01618346    0.00000000
                                                     2        0.1200000       -0.07880581    0.00000000
                                                     2        0.1600000        0.32040539    0.00000000
                                                     2        0.2400000       -0.47500956    0.00000000
                                                     2        0.5000000        0.54013668    0.00000000
                                                     2        1.5000000       -1.40434292    0.00000000
                                                     2        3.0000000        1.46283806    0.00000000
                                      P - F
                                                     0        0.0000010        0.00612970    0.00000000
                                                     2        0.1200000        0.02254406    0.00000000
                                                     2        0.1800000       -0.13874529    0.00000000
                                                     2        0.3000000        0.38299049    0.00000000
                                                     2        0.5000000       -0.57923512    0.00000000
                                                     2        1.0000000        0.63021625    0.00000000
                                                     2        2.0000000       -0.79201034    0.00000000
                                      D - F
                                                     0        0.0000010       -0.00296226    0.00000000
                                                     2        0.1200000       -0.00547344    0.00000000
                                                     2        0.1400000        0.01837884    0.00000000
                                                     2        0.2400000       -0.05565704    0.00000000
                                                     2        0.4000000        0.15376597    0.00000000
                                                     2        0.8000000       -0.32464795    0.00000000
   20          1            1
                                      F and up 
                                                     0        0.0000010       -0.00000699    0.00000000
                                                     2        0.1200000        0.00123686    0.00000000
                                                     2        0.1800000       -0.00752022    0.00000000
                                                     2        0.2600000        0.02503380    0.00000000
                                                     2        0.4000000       -0.08702670    0.00000000
                                                     2        0.6000000        0.30134159    0.00000000
                                                     2        0.8000000       -0.50204959    0.00000000
                                                     2        1.2000000        0.52208372    0.00000000
                                      S - F
                                                     0        0.0000010       -0.01618346    0.00000000
                                                     2        0.1200000       -0.07880581    0.00000000
                                                     2        0.1600000        0.32040539    0.00000000
                                                     2        0.2400000       -0.47500956    0.00000000
                                                     2        0.5000000        0.54013668    0.00000000
                                                     2        1.5000000       -1.40434292    0.00000000
                                                     2        3.0000000        1.46283806    0.00000000
                                      P - F
                                                     0        0.0000010        0.00612970    0.00000000
                                                     2        0.1200000        0.02254406    0.00000000
                                                     2        0.1800000       -0.13874529    0.00000000
                                                     2        0.3000000        0.38299049    0.00000000
                                                     2        0.5000000       -0.57923512    0.00000000
                                                     2        1.0000000        0.63021625    0.00000000
                                                     2        2.0000000       -0.79201034    0.00000000
                                      D - F
                                                     0        0.0000010       -0.00296226    0.00000000
                                                     2        0.1200000       -0.00547344    0.00000000
                                                     2        0.1400000        0.01837884    0.00000000
                                                     2        0.2400000       -0.05565704    0.00000000
                                                     2        0.4000000        0.15376597    0.00000000
                                                     2        0.8000000       -0.32464795    0.00000000
 ======================================================================================================
   334 basis functions,   572 primitive gaussians,   356 cartesian basis functions
    38 alpha electrons       38 beta electrons
       nuclear repulsion energy       544.0247435778 Hartrees.
 NAtoms=   20 NActive=   20 NUniq=   20 SFac= 1.00D+00 NAtFMM=   60 NAOKFM=F Big=F
   1 Symmetry operations used in ECPInt.
 ECPInt:  NShTT=   10440 NPrTT=   50608 LenC2=   10357 LenP2D=   36762.
 LDataN:  DoStor=T MaxTD1= 6 Len=  172
 Initial guess from the checkpoint file:  "BDE49_expt_407_mol1.chk"
 B after Tr=    -0.000000    0.000000   -0.000000
         Rot=    1.000000   -0.000000    0.000000    0.000000 Ang=   0.00 deg.
 >>>>>>>>>> Convergence criterion not met.
 SCF Done:  E(RHF) =  -438.563160945     A.U. after    2 cycles
            NFock=  1  Conv=0.35D-01     -V/T= 2.0019

 **********************************************************************

            Population analysis using the SCF Density.

 **********************************************************************

 Orbital symmetries:
       Occupied  (A) (A) (A) (A) (A) (A) (A) (A) (A) (A) (A) (A)
                 (A) (A) (A) (A) (A) (A) (A) (A) (A) (A) (A) (A)
                 (A) (A) (A) (A) (A) (A) (A) (A) (A) (A) (A) (A)
                 (A) (A)
       Virtual   (A) (A) (A) (A) (A) (A) (A) (A) (A) (A) (A) (A)
                 (A) (A) (A) (A) (A) (A) (A) (A) (A) (A) (A) (A)
                 (A) (A) (A) (A) (A) (A) (A) (A) (A) (A) (A) (A)
                 (A) (A) (A) (A) (A) (A) (A) (A) (A) (A) (A) (A)
                 (A) (A) (A) (A) (A) (A) (A) (A) (A) (A) (A) (A)
                 (A) (A) (A) (A) (A) (A) (A) (A) (A) (A) (A) (A)
                 (A) (A) (A) (A) (A) (A) (A) (A) (A) (A) (A) (A)
                 (A) (A) (A) (A) (A) (A) (A) (A) (A) (A) (A) (A)
                 (A) (A) (A) (A) (A) (A) (A) (A) (A) (A) (A) (A)
                 (A) (A) (A) (A) (A) (A) (A) (A) (A) (A) (A) (A)
                 (A) (A) (A) (A) (A) (A) (A) (A) (A) (A) (A) (A)
                 (A) (A) (A) (A) (A) (A) (A) (A) (A) (A) (A) (A)
                 (A) (A) (A) (A) (A) (A) (A) (A) (A) (A) (A) (A)
                 (A) (A) (A) (A) (A) (A) (A) (A) (A) (A) (A) (A)
                 (A) (A) (A) (A) (A) (A) (A) (A) (A) (A) (A) (A)
                 (A) (A) (A) (A) (A) (A) (A) (A) (A) (A) (A) (A)
                 (A) (A) (A) (A) (A) (A) (A) (A) (A) (A) (A) (A)
                 (A) (A) (A) (A) (A) (A) (A) (A) (A) (A) (A) (A)
                 (A) (A) (A) (A) (A) (A) (A) (A) (A) (A) (A) (A)
                 (A) (A) (A) (A) (A) (A) (A) (A) (A) (A) (A) (A)
                 (A) (A) (A) (A) (A) (A) (A) (A) (A) (A) (A) (A)
                 (A) (A) (A) (A) (A) (A) (A) (A) (A) (A) (A) (A)
                 (A) (A) (A) (A) (A) (A) (A) (A) (A) (A) (A) (A)
                 (A) (A) (A) (A) (A) (A) (A) (A) (A) (A) (A) (A)
                 (A) (A) (A) (A) (A) (A) (A)
 The electronic state is 1-A.
 Alpha  occ. eigenvalues --  -15.63404 -11.29257 -11.25221 -11.25131 -11.24412
 Alpha  occ. eigenvalues --  -11.24304 -11.24250 -11.24203 -11.23799 -11.23631
 Alpha  occ. eigenvalues --  -11.22978  -1.20053  -1.15061  -1.08333  -1.03719
 Alpha  occ. eigenvalues --   -0.99128  -0.96630  -0.85539  -0.83077  -0.81337
 Alpha  occ. eigenvalues --   -0.71755  -0.70919  -0.69569  -0.65537  -0.62694
 Alpha  occ. eigenvalues --   -0.61279  -0.58991  -0.58037  -0.57720  -0.54643
 Alpha  occ. eigenvalues --   -0.52873  -0.50049  -0.49214  -0.47693  -0.41717
 Alpha  occ. eigenvalues --   -0.38002  -0.30796  -0.27471
 Alpha virt. eigenvalues --    0.03074   0.03596   0.03768   0.05015   0.05090
 Alpha virt. eigenvalues --    0.06686   0.07115   0.08031   0.08899   0.09688
 Alpha virt. eigenvalues --    0.10176   0.10859   0.11365   0.11700   0.12340
 Alpha virt. eigenvalues --    0.13131   0.13556   0.13894   0.14550   0.14910
 Alpha virt. eigenvalues --    0.15298   0.15395   0.15789   0.16017   0.16722
 Alpha virt. eigenvalues --    0.16861   0.17626   0.18280   0.18647   0.19183
 Alpha virt. eigenvalues --    0.19375   0.19617   0.20854   0.21219   0.21663
 Alpha virt. eigenvalues --    0.22374   0.22860   0.23608   0.24201   0.24796
 Alpha virt. eigenvalues --    0.25391   0.25748   0.26569   0.27101   0.29044
 Alpha virt. eigenvalues --    0.29338   0.29729   0.30591   0.31140   0.32260
 Alpha virt. eigenvalues --    0.33049   0.33356   0.34106   0.34386   0.34818
 Alpha virt. eigenvalues --    0.35433   0.36086   0.36723   0.36925   0.37741
 Alpha virt. eigenvalues --    0.38649   0.38927   0.39396   0.39871   0.40935
 Alpha virt. eigenvalues --    0.41088   0.42146   0.42301   0.42945   0.44609
 Alpha virt. eigenvalues --    0.45222   0.45638   0.45991   0.46817   0.47327
 Alpha virt. eigenvalues --    0.48158   0.49165   0.50356   0.51130   0.51619
 Alpha virt. eigenvalues --    0.52088   0.52292   0.54019   0.54650   0.55916
 Alpha virt. eigenvalues --    0.56460   0.56850   0.57215   0.57816   0.60088
 Alpha virt. eigenvalues --    0.60325   0.62259   0.62733   0.63551   0.64538
 Alpha virt. eigenvalues --    0.64987   0.65281   0.65906   0.66470   0.66748
 Alpha virt. eigenvalues --    0.67669   0.68052   0.68689   0.68704   0.69483
 Alpha virt. eigenvalues --    0.69911   0.70609   0.70918   0.71339   0.72583
 Alpha virt. eigenvalues --    0.73077   0.73452   0.74606   0.75280   0.75330
 Alpha virt. eigenvalues --    0.76242   0.76888   0.77403   0.77717   0.78706
 Alpha virt. eigenvalues --    0.79433   0.79932   0.81229   0.83057   0.84054
 Alpha virt. eigenvalues --    0.85249   0.86974   0.87978   0.88742   0.89481
 Alpha virt. eigenvalues --    0.89673   0.90341   0.91255   0.91683   0.92967
 Alpha virt. eigenvalues --    0.93495   0.93759   0.94952   0.95246   0.95817
 Alpha virt. eigenvalues --    0.97195   0.97439   0.98348   0.99818   1.00467
 Alpha virt. eigenvalues --    1.01394   1.01756   1.02498   1.03924   1.04432
 Alpha virt. eigenvalues --    1.05774   1.06412   1.06610   1.08801   1.10439
 Alpha virt. eigenvalues --    1.10975   1.13409   1.14794   1.16117   1.19856
 Alpha virt. eigenvalues --    1.20315   1.21965   1.23268   1.24634   1.25800
 Alpha virt. eigenvalues --    1.27005   1.30429   1.31789   1.33133   1.35326
 Alpha virt. eigenvalues --    1.36750   1.42459   1.47052   1.47458   1.48362
 Alpha virt. eigenvalues --    1.50519   1.52098   1.52752   1.53579   1.54420
 Alpha virt. eigenvalues --    1.55376   1.56604   1.56793   1.59927   1.61119
 Alpha virt. eigenvalues --    1.62246   1.62632   1.63606   1.64046   1.65190
 Alpha virt. eigenvalues --    1.66484   1.67539   1.68851   1.69510   1.70751
 Alpha virt. eigenvalues --    1.72106   1.74381   1.75081   1.75789   1.76339
 Alpha virt. eigenvalues --    1.77701   1.79237   1.80605   1.81580   1.82754
 Alpha virt. eigenvalues --    1.83819   1.84608   1.86153   1.87761   1.89803
 Alpha virt. eigenvalues --    1.92137   1.93084   1.94141   1.95877   1.96510
 Alpha virt. eigenvalues --    1.96778   1.97738   1.98194   2.00645   2.04665
 Alpha virt. eigenvalues --    2.05299   2.06905   2.07894   2.08117   2.08414
 Alpha virt. eigenvalues --    2.08902   2.11092   2.12151   2.13833   2.14565
 Alpha virt. eigenvalues --    2.16769   2.17533   2.19901   2.21728   2.22750
 Alpha virt. eigenvalues --    2.24174   2.24520   2.26196   2.27192   2.27570
 Alpha virt. eigenvalues --    2.28492   2.29766   2.31562   2.32776   2.33386
 Alpha virt. eigenvalues --    2.35464   2.35682   2.38216   2.39258   2.39939
 Alpha virt. eigenvalues --    2.40233   2.42616   2.44923   2.45449   2.47553
 Alpha virt. eigenvalues --    2.48128   2.49759   2.53325   2.55501   2.57954
 Alpha virt. eigenvalues --    2.59312   2.64254   2.66860   2.68982   2.71815
 Alpha virt. eigenvalues --    2.76378   2.78517   2.81776   2.82748   2.83205
 Alpha virt. eigenvalues --    2.85840   2.94627   2.96717   2.97588   3.00752
 Alpha virt. eigenvalues --    3.07310   3.08280   3.08788   3.12833   3.17316
 Alpha virt. eigenvalues --    3.23369   3.25449   3.28555   3.36728   3.37806
 Alpha virt. eigenvalues --    3.42907   3.49346   3.64447   3.70198   3.75900
 Alpha virt. eigenvalues --    3.83116   3.88681   3.89673   4.53245   4.76632
          Condensed to atoms (all electrons):
 Mulliken charges:
               1
     1  C    0.500774
     2  C    0.324525
     3  C    0.466577
     4  C    0.485193
     5  C    0.045993
     6  C    0.107679
     7  C    0.577734
     8  C    0.164693
     9  C    0.871399
    10  C    0.714598
    11  H   -0.453734
    12  H   -0.451860
    13  H   -0.567692
    14  H   -0.577264
    15  H   -0.575589
    16  H   -0.623470
    17  N   -0.299346
    18  H   -0.023114
    19  H   -0.039028
    20  H   -0.648067
 Sum of Mulliken charges =   0.00000
 Mulliken charges with hydrogens summed into heavy atoms:
               1
     1  C   -0.066918
     2  C   -0.129209
     3  C    0.014717
     4  C   -0.092071
     5  C    0.045993
     6  C    0.107679
     7  C   -0.070333
     8  C    0.164693
     9  C    0.295810
    10  C    0.091127
    17  N   -0.361487
 Electronic spatial extent (au):  <R**2>=           1732.6486
 Charge=             -0.0000 electrons
 Dipole moment (field-independent basis, Debye):
    X=             -1.3885    Y=             -0.0598    Z=              0.9707  Tot=              1.6953

 Test job not archived.
 1\1\GINC-SE106\SP\RHF\Aug-CC-pVDZ\C10H9N1\OHZDE\08-Apr-2025\0\\#t hf a
 ug-cc-pvdz iop(5/13=1,5/36=2,99/5=2) pseudo=read geom=check guess=(rea
 d,tcheck) scf=(maxcycle=1)\\title\\0,1\C,0,1.406625,-1.505216,-0.00190
 2\C,0,2.693576,-1.023463,0.002409\C,0,2.941032,0.368883,0.005806\C,0,1
 .887518,1.25182,0.004906\C,0,0.548533,0.788134,0.000329\C,0,0.294825,-
 0.620485,-0.003195\C,0,-1.042096,-1.085799,-0.003337\C,0,-2.110426,-0.
 207633,-0.005269\C,0,-1.849427,1.19251,-0.00689\C,0,-0.565197,1.66793,
 -0.000815\H,0,3.5292,-1.714863,0.002665\H,0,3.96148,0.734597,0.00879\H
 ,0,1.223499,-2.574922,-0.005175\H,0,2.068617,2.322109,0.007226\H,0,-2.
 686819,1.88321,-0.019228\H,0,-0.386841,2.738437,0.000949\N,0,-3.431293
 ,-0.651578,-0.069962\H,0,-3.579716,-1.606357,0.222132\H,0,-4.116571,-0
 .024544,0.325205\H,0,-1.223563,-2.156709,-0.005077\\Version=ES64L-G16R
 evC.01\State=1-A\HF=-438.5631609\RMSD=3.497e-02\Dipole=-0.5462944,-0.0
 235117,0.3819155\Quadrupole=5.5716747,3.4050539,-8.9767286,0.5579073,-
 3.204807,-0.5785619\PG=C01 [X(C10H9N1)]\\@


 THE ... SCIENTISTS WERE WRONG ... THE MOST PERSISTENT PRINCIPLES 
 OF THE UNIVERSE WERE ACCIDENT AND ERROR.

                          -- FRANK HERBERT IN DUNE
 Job cpu time:       0 days  0 hours  2 minutes 59.7 seconds.
 Elapsed time:       0 days  0 hours  0 minutes 12.9 seconds.
 File lengths (MBytes):  RWF=     19 Int=      0 D2E=      0 Chk=     15 Scr=      1
 Normal termination of Gaussian 16 at Tue Apr  8 23:07:08 2025.
