 Entering Gaussian System, Link 0=g16
 Input=BDE49_nonexpt_1723_mol1.gjf
 Output=BDE49_nonexpt_1723_mol1.log
 Initial command:
 /arc/software/Gaussian/g16.c01/l1.exe "/tmp/slurm/4846841/Gau-1494139.inp" -scrdir="/tmp/slurm/4846841/"
 Entering Link 1 = /arc/software/Gaussian/g16.c01/l1.exe PID=   1494140.
  
 Copyright (c) 1988-2019, Gaussian, Inc.  All Rights Reserved.
  
 This is part of the Gaussian(R) 16 program.  It is based on
 the Gaussian(R) 09 system (copyright 2009, Gaussian, Inc.),
 the Gaussian(R) 03 system (copyright 2003, Gaussian, Inc.),
 the Gaussian(R) 98 system (copyright 1998, Gaussian, Inc.),
 the Gaussian(R) 94 system (copyright 1995, Gaussian, Inc.),
 the Gaussian 92(TM) system (copyright 1992, Gaussian, Inc.),
 the Gaussian 90(TM) system (copyright 1990, Gaussian, Inc.),
 the Gaussian 88(TM) system (copyright 1988, Gaussian, Inc.),
 the Gaussian 86(TM) system (copyright 1986, Carnegie Mellon
 University), and the Gaussian 82(TM) system (copyright 1983,
 Carnegie Mellon University). Gaussian is a federally registered
 trademark of Gaussian, Inc.
  
 This software contains proprietary and confidential information,
 including trade secrets, belonging to Gaussian, Inc.
  
 This software is provided under written license and may be
 used, copied, transmitted, or stored only in accord with that
 written license.
  
 The following legend is applicable only to US Government
 contracts under FAR:
  
                    RESTRICTED RIGHTS LEGEND
  
 Use, reproduction and disclosure by the US Government is
 subject to restrictions as set forth in subparagraphs (a)
 and (c) of the Commercial Computer Software - Restricted
 Rights clause in FAR 52.227-19.
  
 Gaussian, Inc.
 340 Quinnipiac St., Bldg. 40, Wallingford CT 06492
  
  
 ---------------------------------------------------------------
 Warning -- This program may not be used in any manner that
 competes with the business of Gaussian, Inc. or will provide
 assistance to any competitor of Gaussian, Inc.  The licensee
 of this program is prohibited from giving any competitor of
 Gaussian, Inc. access to this program.  By using this program,
 the user acknowledges that Gaussian, Inc. is engaged in the
 business of creating and licensing software in the field of
 computational chemistry and represents and warrants to the
 licensee that it is not a competitor of Gaussian, Inc. and that
 it will not use this program in any manner prohibited above.
 ---------------------------------------------------------------
  

 Cite this work as:
 Gaussian 16, Revision C.01,
 M. J. Frisch, G. W. Trucks, H. B. Schlegel, G. E. Scuseria, 
 M. A. Robb, J. R. Cheeseman, G. Scalmani, V. Barone, 
 G. A. Petersson, H. Nakatsuji, X. Li, M. Caricato, A. V. Marenich, 
 J. Bloino, B. G. Janesko, R. Gomperts, B. Mennucci, H. P. Hratchian, 
 J. V. Ortiz, A. F. Izmaylov, J. L. Sonnenberg, D. Williams-Young, 
 F. Ding, F. Lipparini, F. Egidi, J. Goings, B. Peng, A. Petrone, 
 T. Henderson, D. Ranasinghe, V. G. Zakrzewski, J. Gao, N. Rega, 
 G. Zheng, W. Liang, M. Hada, M. Ehara, K. Toyota, R. Fukuda, 
 J. Hasegawa, M. Ishida, T. Nakajima, Y. Honda, O. Kitao, H. Nakai, 
 T. Vreven, K. Throssell, J. A. Montgomery, Jr., J. E. Peralta, 
 F. Ogliaro, M. J. Bearpark, J. J. Heyd, E. N. Brothers, K. N. Kudin, 
 V. N. Staroverov, T. A. Keith, R. Kobayashi, J. Normand, 
 K. Raghavachari, A. P. Rendell, J. C. Burant, S. S. Iyengar, 
 J. Tomasi, M. Cossi, J. M. Millam, M. Klene, C. Adamo, R. Cammi, 
 J. W. Ochterski, R. L. Martin, K. Morokuma, O. Farkas, 
 J. B. Foresman, and D. J. Fox, Gaussian, Inc., Wallingford CT, 2019.
 
 ******************************************
 Gaussian 16:  ES64L-G16RevC.01  3-Jul-2019
                 8-Apr-2025 
 ******************************************
 %nprocs=16
 Will use up to   16 processors via shared memory.
 %mem=30GB
 %chk=BDE49_nonexpt_1723_mol1.chk
 ----------------------------------------------------------------------
 #t hf aug-cc-pvdz symm=none int=(grid=ultrafine) guess=(read,tcheck) s
 table=(opt,rrhf)
 ----------------------------------------------------------------------
 -----
 title
 -----
 Symbolic Z-matrix:
 Charge =  0 Multiplicity = 1
 S                     0.13757   1.35711  -0.45817 
 P                     1.52166  -0.1874    0.05762 
 O                     2.83818   0.36918  -0.25017 
 O                     1.08871  -1.4998   -0.68349 
 O                    -1.37664   0.91969   0.28577 
 C                    -2.04229  -0.19451  -0.09635 
 C                    -3.44507  -0.17898   0.44633 
 H                    -3.88386  -1.16824   0.33691 
 H                    -4.03483   0.54901  -0.1168 
 H                    -3.44559   0.13183   1.49143 
 O                    -1.57134  -1.07924  -0.77214 
 O                     1.21663  -0.55461   1.58581 
 H                     1.57675   0.10424   2.19371 
 H                     0.12133  -1.52045  -0.86483 
 
                    Distance matrix (angstroms):
                    1          2          3          4          5
     1  S    0.000000
     2  P    2.137122   0.000000
     3  O    2.883154   1.462099   0.000000
     4  O    3.019504   1.568142   2.596435   0.000000
     5  O    1.742868   3.110921   4.284266   3.587663   0.000000
     6  C    2.700038   3.567278   4.915316   3.442626   1.352973
     7  C    4.001619   4.981922   6.345450   4.855535   2.347606
     8  H    4.814712   5.500885   6.920560   5.087009   3.263166
     9  H    4.263623   5.607794   6.876656   5.547025   2.713940
    10  H    4.259257   5.179896   6.524971   5.287005   2.520896
    11  O    2.992445   3.324227   4.670563   2.694547   2.269973
    12  O    2.999491   1.601018   2.617944   2.461602   3.254033
    13  H    3.267020   2.156616   2.762963   3.330080   3.609390
    14  H    2.906197   2.142155   3.365967   0.984447   3.085779
                    6          7          8          9         10
     6  C    0.000000
     7  C    1.504171   0.000000
     8  H    2.127738   1.087729   0.000000
     9  H    2.126848   1.093118   1.782581   0.000000
    10  H    2.144015   1.090341   1.793097   1.762853   0.000000
    11  O    1.208816   2.409564   2.566261   3.024812   3.178565
    12  O    3.685090   4.813623   5.286905   5.629811   4.713433
    13  H    4.293138   5.324677   5.906370   6.084911   5.071277
    14  H    2.651399   4.029624   4.196405   4.702755   4.583113
                   11         12         13         14
    11  O    0.000000
    12  O    3.688893   0.000000
    13  H    4.484120   0.966082   0.000000
    14  H    1.751678   2.852746   3.756664   0.000000
 Symmetry turned off by external request.
 Rotational constants (GHZ):           2.3308709           0.8044486           0.7307659
   260 basis functions,   518 primitive gaussians,   278 cartesian basis functions
    44 alpha electrons       44 beta electrons
       nuclear repulsion energy       703.1119856498 Hartrees.
 NAtoms=   14 NActive=   14 NUniq=   14 SFac= 1.00D+00 NAtFMM=   60 NAOKFM=F Big=F
 ExpMin= 2.97D-02 ExpMax= 1.11D+05 ExpMxC= 3.24D+03 IAcc=3 IRadAn=         5 AccDes= 0.00D+00
 Harris functional with IExCor=  205 and IRadAn=       5 diagonalized for initial guess.
 HarFok:  IExCor=  205 AccDes= 0.00D+00 IRadAn=         5 IDoV= 1 UseB2=F ITyADJ=14
 ICtDFT=  3500011 ScaDFX=  1.000000  1.000000  1.000000  1.000000
 FoFCou: FMM=F IPFlag=           0 FMFlag=      100000 FMFlg1=           0
         NFxFlg=           0 DoJE=T BraDBF=F KetDBF=T FulRan=T
         wScrn=  0.000000 ICntrl=       500 IOpCl=  0 I1Cent=   200000004 NGrid=           0
         NMat0=    1 NMatS0=      1 NMatT0=    0 NMatD0=    1 NMtDS0=    0 NMtDT0=    0
 Symmetry not used in FoFCou.
 SCF Done:  E(RHF) =  -1191.36934824     A.U. after   15 cycles
            NFock= 15  Conv=0.72D-08     -V/T= 2.0008

 **********************************************************************

            Population analysis using the SCF Density.

 **********************************************************************

 Alpha  occ. eigenvalues --  -92.04713 -80.14322 -20.66790 -20.63361 -20.61258
 Alpha  occ. eigenvalues --  -20.60430 -20.54155 -11.43941 -11.27832  -9.04314
 Alpha  occ. eigenvalues --   -7.66254  -6.72498  -6.72245  -6.72022  -5.56052
 Alpha  occ. eigenvalues --   -5.56011  -5.55963  -1.50029  -1.45811  -1.40824
 Alpha  occ. eigenvalues --   -1.39828  -1.32746  -1.06764  -0.99343  -0.86826
 Alpha  occ. eigenvalues --   -0.81048  -0.77802  -0.73408  -0.71282  -0.69701
 Alpha  occ. eigenvalues --   -0.67526  -0.64684  -0.61409  -0.60703  -0.60103
 Alpha  occ. eigenvalues --   -0.58829  -0.56882  -0.55788  -0.53960  -0.51400
 Alpha  occ. eigenvalues --   -0.49049  -0.48692  -0.44961  -0.41182
 Alpha virt. eigenvalues --    0.02433   0.03806   0.04897   0.05171   0.06669
 Alpha virt. eigenvalues --    0.07044   0.07697   0.09803   0.10311   0.11151
 Alpha virt. eigenvalues --    0.11612   0.12287   0.12552   0.13568   0.14206
 Alpha virt. eigenvalues --    0.14726   0.15599   0.15732   0.16590   0.16719
 Alpha virt. eigenvalues --    0.19172   0.19629   0.20769   0.21444   0.22287
 Alpha virt. eigenvalues --    0.23206   0.23845   0.24469   0.25024   0.25914
 Alpha virt. eigenvalues --    0.26804   0.27551   0.28690   0.29621   0.30519
 Alpha virt. eigenvalues --    0.30989   0.31372   0.31584   0.31790   0.33398
 Alpha virt. eigenvalues --    0.33939   0.34916   0.35529   0.36196   0.38132
 Alpha virt. eigenvalues --    0.38577   0.39087   0.39858   0.40459   0.41927
 Alpha virt. eigenvalues --    0.42528   0.43380   0.43770   0.44978   0.45212
 Alpha virt. eigenvalues --    0.45901   0.47403   0.48961   0.49665   0.51460
 Alpha virt. eigenvalues --    0.51636   0.52742   0.54522   0.55184   0.55942
 Alpha virt. eigenvalues --    0.56774   0.57576   0.58430   0.59094   0.60282
 Alpha virt. eigenvalues --    0.61737   0.62589   0.63485   0.64380   0.65715
 Alpha virt. eigenvalues --    0.65926   0.66882   0.68425   0.69425   0.70253
 Alpha virt. eigenvalues --    0.71526   0.72625   0.73902   0.77133   0.77945
 Alpha virt. eigenvalues --    0.80288   0.81343   0.84696   0.86284   0.86989
 Alpha virt. eigenvalues --    0.88403   0.89706   0.91043   0.91631   0.92761
 Alpha virt. eigenvalues --    0.95570   0.96480   0.98378   0.99458   1.01595
 Alpha virt. eigenvalues --    1.02143   1.03509   1.04250   1.06063   1.06927
 Alpha virt. eigenvalues --    1.10888   1.11230   1.11955   1.12638   1.13201
 Alpha virt. eigenvalues --    1.15834   1.17040   1.19085   1.19688   1.20450
 Alpha virt. eigenvalues --    1.21900   1.22562   1.23472   1.25095   1.26447
 Alpha virt. eigenvalues --    1.29167   1.30094   1.31764   1.33515   1.34035
 Alpha virt. eigenvalues --    1.36409   1.37559   1.38023   1.39846   1.43327
 Alpha virt. eigenvalues --    1.45441   1.46892   1.49069   1.49489   1.51475
 Alpha virt. eigenvalues --    1.53568   1.55411   1.57422   1.58670   1.62221
 Alpha virt. eigenvalues --    1.64361   1.66113   1.67101   1.71758   1.72729
 Alpha virt. eigenvalues --    1.73407   1.75162   1.79140   1.79673   1.83680
 Alpha virt. eigenvalues --    1.85061   1.87749   1.89318   1.91076   1.95687
 Alpha virt. eigenvalues --    1.98330   2.00409   2.00965   2.02731   2.06518
 Alpha virt. eigenvalues --    2.10146   2.12985   2.16407   2.18026   2.18878
 Alpha virt. eigenvalues --    2.21021   2.23873   2.27040   2.28589   2.31619
 Alpha virt. eigenvalues --    2.36432   2.41936   2.44021   2.47255   2.51682
 Alpha virt. eigenvalues --    2.55942   2.58844   2.63797   2.72344   2.73507
 Alpha virt. eigenvalues --    2.83283   2.84326   2.91556   2.94028   2.97010
 Alpha virt. eigenvalues --    3.02038   3.04106   3.10256   3.19211   3.20623
 Alpha virt. eigenvalues --    3.36405   3.62180   3.65319   3.66424   3.67969
 Alpha virt. eigenvalues --    3.68179   3.70088   3.70499   3.72119   3.73631
 Alpha virt. eigenvalues --    3.74206   3.75157   3.76408   3.78955   3.79858
 Alpha virt. eigenvalues --    3.81025   3.82504   3.85827   3.89332   3.94245
 Alpha virt. eigenvalues --    3.95843   4.05032   4.09433   4.20606   4.23019
 Alpha virt. eigenvalues --    4.38797
          Condensed to atoms (all electrons):
 Mulliken charges:
               1
     1  S    0.178917
     2  P    2.473460
     3  O   -0.965612
     4  O   -0.871325
     5  O   -0.947109
     6  C    0.722813
     7  C    0.309846
     8  H    0.000191
     9  H    0.083266
    10  H    0.026015
    11  O   -0.761239
    12  O   -0.804669
    13  H    0.166789
    14  H    0.388658
 Sum of Mulliken charges =  -0.00000
 Mulliken charges with hydrogens summed into heavy atoms:
               1
     1  S    0.178917
     2  P    2.473460
     3  O   -0.965612
     4  O   -0.482668
     5  O   -0.947109
     6  C    0.722813
     7  C    0.419317
    11  O   -0.761239
    12  O   -0.637880
 Electronic spatial extent (au):  <R**2>=           1619.5090
 Charge=             -0.0000 electrons
 Dipole moment (field-independent basis, Debye):
    X=             -5.5071    Y=              0.9852    Z=              2.6406  Tot=              6.1864
 NROrb=    260 NOA=    44 NOB=    44 NVA=   216 NVB=   216

 **** Warning!!: The largest alpha MO coefficient is  0.32526578D+02

    12 initial guesses have been made.
 Iteration     1 Dimension    12 NMult     0 NNew     12
 Iteration     2 Dimension    24 NMult    12 NNew     12
 Iteration     3 Dimension    27 NMult    24 NNew      3
 Iteration     4 Dimension    30 NMult    27 NNew      3
 Iteration     5 Dimension    33 NMult    30 NNew      3
 Iteration     6 Dimension    36 NMult    33 NNew      3
 Iteration     7 Dimension    39 NMult    36 NNew      3
 Iteration     8 Dimension    42 NMult    39 NNew      3
 ***********************************************************************
 Stability analysis using <AA,BB:AA,BB> singles matrix:
 ***********************************************************************
 Ground to excited state transition densities written to RWF  633

 Eigenvectors of the stability matrix:
 
 Excited state symmetry could not be determined.
 Eigenvector   1:      Singlet-?Sym  Eigenvalue= 0.1874369  <S**2>=0.000
      44 -> 45         0.12785
      44 -> 49        -0.32274
      44 -> 50         0.46099
      44 -> 52        -0.26628
      44 -> 60         0.12914
      44 -> 61         0.11991
 The wavefunction is stable under the perturbations considered.
 The wavefunction is already stable.

 **********************************************************************

            Population analysis using the SCF Density.

 **********************************************************************

 Alpha  occ. eigenvalues --  -92.04713 -80.14322 -20.66790 -20.63361 -20.61258
 Alpha  occ. eigenvalues --  -20.60430 -20.54155 -11.43941 -11.27832  -9.04314
 Alpha  occ. eigenvalues --   -7.66254  -6.72498  -6.72245  -6.72022  -5.56052
 Alpha  occ. eigenvalues --   -5.56011  -5.55963  -1.50029  -1.45811  -1.40824
 Alpha  occ. eigenvalues --   -1.39828  -1.32746  -1.06764  -0.99343  -0.86826
 Alpha  occ. eigenvalues --   -0.81048  -0.77802  -0.73408  -0.71282  -0.69701
 Alpha  occ. eigenvalues --   -0.67526  -0.64684  -0.61409  -0.60703  -0.60103
 Alpha  occ. eigenvalues --   -0.58829  -0.56882  -0.55788  -0.53960  -0.51400
 Alpha  occ. eigenvalues --   -0.49049  -0.48692  -0.44961  -0.41182
 Alpha virt. eigenvalues --    0.02433   0.03806   0.04897   0.05171   0.06669
 Alpha virt. eigenvalues --    0.07044   0.07697   0.09803   0.10311   0.11151
 Alpha virt. eigenvalues --    0.11612   0.12287   0.12552   0.13568   0.14206
 Alpha virt. eigenvalues --    0.14726   0.15599   0.15732   0.16590   0.16719
 Alpha virt. eigenvalues --    0.19172   0.19629   0.20769   0.21444   0.22287
 Alpha virt. eigenvalues --    0.23206   0.23845   0.24469   0.25024   0.25914
 Alpha virt. eigenvalues --    0.26804   0.27551   0.28690   0.29621   0.30519
 Alpha virt. eigenvalues --    0.30989   0.31372   0.31584   0.31790   0.33398
 Alpha virt. eigenvalues --    0.33939   0.34916   0.35529   0.36196   0.38132
 Alpha virt. eigenvalues --    0.38577   0.39087   0.39858   0.40459   0.41927
 Alpha virt. eigenvalues --    0.42528   0.43380   0.43770   0.44978   0.45212
 Alpha virt. eigenvalues --    0.45901   0.47403   0.48961   0.49665   0.51460
 Alpha virt. eigenvalues --    0.51636   0.52742   0.54522   0.55184   0.55942
 Alpha virt. eigenvalues --    0.56774   0.57576   0.58430   0.59094   0.60282
 Alpha virt. eigenvalues --    0.61737   0.62589   0.63485   0.64380   0.65715
 Alpha virt. eigenvalues --    0.65926   0.66882   0.68425   0.69425   0.70253
 Alpha virt. eigenvalues --    0.71526   0.72625   0.73902   0.77133   0.77945
 Alpha virt. eigenvalues --    0.80288   0.81343   0.84696   0.86284   0.86989
 Alpha virt. eigenvalues --    0.88403   0.89706   0.91043   0.91631   0.92761
 Alpha virt. eigenvalues --    0.95570   0.96480   0.98378   0.99458   1.01595
 Alpha virt. eigenvalues --    1.02143   1.03509   1.04250   1.06063   1.06927
 Alpha virt. eigenvalues --    1.10888   1.11230   1.11955   1.12638   1.13201
 Alpha virt. eigenvalues --    1.15834   1.17040   1.19085   1.19688   1.20450
 Alpha virt. eigenvalues --    1.21900   1.22562   1.23472   1.25095   1.26447
 Alpha virt. eigenvalues --    1.29167   1.30094   1.31764   1.33515   1.34035
 Alpha virt. eigenvalues --    1.36409   1.37559   1.38023   1.39846   1.43327
 Alpha virt. eigenvalues --    1.45441   1.46892   1.49069   1.49489   1.51475
 Alpha virt. eigenvalues --    1.53568   1.55411   1.57422   1.58670   1.62221
 Alpha virt. eigenvalues --    1.64361   1.66113   1.67101   1.71758   1.72729
 Alpha virt. eigenvalues --    1.73407   1.75162   1.79140   1.79673   1.83680
 Alpha virt. eigenvalues --    1.85061   1.87749   1.89318   1.91076   1.95687
 Alpha virt. eigenvalues --    1.98330   2.00409   2.00965   2.02731   2.06518
 Alpha virt. eigenvalues --    2.10146   2.12985   2.16407   2.18026   2.18878
 Alpha virt. eigenvalues --    2.21021   2.23873   2.27040   2.28589   2.31619
 Alpha virt. eigenvalues --    2.36432   2.41936   2.44021   2.47255   2.51682
 Alpha virt. eigenvalues --    2.55942   2.58844   2.63797   2.72344   2.73507
 Alpha virt. eigenvalues --    2.83283   2.84326   2.91556   2.94028   2.97010
 Alpha virt. eigenvalues --    3.02038   3.04106   3.10256   3.19211   3.20623
 Alpha virt. eigenvalues --    3.36405   3.62180   3.65319   3.66424   3.67969
 Alpha virt. eigenvalues --    3.68179   3.70088   3.70499   3.72119   3.73631
 Alpha virt. eigenvalues --    3.74206   3.75157   3.76408   3.78955   3.79858
 Alpha virt. eigenvalues --    3.81025   3.82504   3.85827   3.89332   3.94245
 Alpha virt. eigenvalues --    3.95843   4.05032   4.09433   4.20606   4.23019
 Alpha virt. eigenvalues --    4.38797
          Condensed to atoms (all electrons):
 Mulliken charges:
               1
     1  S    0.178917
     2  P    2.473460
     3  O   -0.965612
     4  O   -0.871325
     5  O   -0.947109
     6  C    0.722813
     7  C    0.309846
     8  H    0.000191
     9  H    0.083266
    10  H    0.026015
    11  O   -0.761239
    12  O   -0.804669
    13  H    0.166789
    14  H    0.388658
 Sum of Mulliken charges =  -0.00000
 Mulliken charges with hydrogens summed into heavy atoms:
               1
     1  S    0.178917
     2  P    2.473460
     3  O   -0.965612
     4  O   -0.482668
     5  O   -0.947109
     6  C    0.722813
     7  C    0.419317
    11  O   -0.761239
    12  O   -0.637880
 Electronic spatial extent (au):  <R**2>=           1619.5090
 Charge=             -0.0000 electrons
 Dipole moment (field-independent basis, Debye):
    X=             -5.5071    Y=              0.9852    Z=              2.6406  Tot=              6.1864
 Unable to Open any file for archive entry.
 1\1\GINC-SE229\Stability\RHF\Aug-CC-pVDZ\C2H5O5P1S1\OHZDE\08-Apr-2025\
 0\\#t hf aug-cc-pvdz symm=none int=(grid=ultrafine) guess=(read,tcheck
 ) stable=(opt,rrhf)\\title\\0,1\S,0,0.137565,1.357114,-0.458171\P,0,1.
 52166,-0.187404,0.057617\O,0,2.838176,0.36918,-0.250173\O,0,1.088712,-
 1.499799,-0.683493\O,0,-1.376637,0.919689,0.285765\C,0,-2.042287,-0.19
 4509,-0.096347\C,0,-3.445067,-0.178978,0.446329\H,0,-3.883864,-1.16824
 ,0.336909\H,0,-4.034834,0.549011,-0.1168\H,0,-3.445591,0.131834,1.4914
 31\O,0,-1.571336,-1.079238,-0.772139\O,0,1.216633,-0.554612,1.585811\H
 ,0,1.576748,0.104242,2.193712\H,0,0.121331,-1.520445,-0.86483\\Version
 =ES64L-G16RevC.01\HF=-1191.3693482\RMSD=7.203e-09\Dipole=-2.1666519,0.
 3876164,1.0388858\Quadrupole=-0.1827001,-2.5451159,2.727816,-0.3643718
 ,2.366587,-0.1612232\PG=Unknown\\@
 The archive entry for this job was punched.


 THERE IS MUCH PLEASURE TO BE GAINED FROM USELESS KNOWLEDGE

                                       -- BERTRAND RUSSELL
 Job cpu time:       0 days  0 hours 13 minutes 21.8 seconds.
 Elapsed time:       0 days  0 hours  0 minutes 55.8 seconds.
 File lengths (MBytes):  RWF=    398 Int=      0 D2E=      0 Chk=     10 Scr=      1
 Normal termination of Gaussian 16 at Tue Apr  8 23:44:02 2025.
 Initial command:
 /arc/software/Gaussian/g16.c01/l1.exe "/tmp/slurm/4846841/Gau-1494139.inp" -scrdir="/tmp/slurm/4846841/"
 Entering Link 1 = /arc/software/Gaussian/g16.c01/l1.exe PID=   1494624.
  
 Copyright (c) 1988-2019, Gaussian, Inc.  All Rights Reserved.
  
 This is part of the Gaussian(R) 16 program.  It is based on
 the Gaussian(R) 09 system (copyright 2009, Gaussian, Inc.),
 the Gaussian(R) 03 system (copyright 2003, Gaussian, Inc.),
 the Gaussian(R) 98 system (copyright 1998, Gaussian, Inc.),
 the Gaussian(R) 94 system (copyright 1995, Gaussian, Inc.),
 the Gaussian 92(TM) system (copyright 1992, Gaussian, Inc.),
 the Gaussian 90(TM) system (copyright 1990, Gaussian, Inc.),
 the Gaussian 88(TM) system (copyright 1988, Gaussian, Inc.),
 the Gaussian 86(TM) system (copyright 1986, Carnegie Mellon
 University), and the Gaussian 82(TM) system (copyright 1983,
 Carnegie Mellon University). Gaussian is a federally registered
 trademark of Gaussian, Inc.
  
 This software contains proprietary and confidential information,
 including trade secrets, belonging to Gaussian, Inc.
  
 This software is provided under written license and may be
 used, copied, transmitted, or stored only in accord with that
 written license.
  
 The following legend is applicable only to US Government
 contracts under FAR:
  
                    RESTRICTED RIGHTS LEGEND
  
 Use, reproduction and disclosure by the US Government is
 subject to restrictions as set forth in subparagraphs (a)
 and (c) of the Commercial Computer Software - Restricted
 Rights clause in FAR 52.227-19.
  
 Gaussian, Inc.
 340 Quinnipiac St., Bldg. 40, Wallingford CT 06492
  
  
 ---------------------------------------------------------------
 Warning -- This program may not be used in any manner that
 competes with the business of Gaussian, Inc. or will provide
 assistance to any competitor of Gaussian, Inc.  The licensee
 of this program is prohibited from giving any competitor of
 Gaussian, Inc. access to this program.  By using this program,
 the user acknowledges that Gaussian, Inc. is engaged in the
 business of creating and licensing software in the field of
 computational chemistry and represents and warrants to the
 licensee that it is not a competitor of Gaussian, Inc. and that
 it will not use this program in any manner prohibited above.
 ---------------------------------------------------------------
  

 Cite this work as:
 Gaussian 16, Revision C.01,
 M. J. Frisch, G. W. Trucks, H. B. Schlegel, G. E. Scuseria, 
 M. A. Robb, J. R. Cheeseman, G. Scalmani, V. Barone, 
 G. A. Petersson, H. Nakatsuji, X. Li, M. Caricato, A. V. Marenich, 
 J. Bloino, B. G. Janesko, R. Gomperts, B. Mennucci, H. P. Hratchian, 
 J. V. Ortiz, A. F. Izmaylov, J. L. Sonnenberg, D. Williams-Young, 
 F. Ding, F. Lipparini, F. Egidi, J. Goings, B. Peng, A. Petrone, 
 T. Henderson, D. Ranasinghe, V. G. Zakrzewski, J. Gao, N. Rega, 
 G. Zheng, W. Liang, M. Hada, M. Ehara, K. Toyota, R. Fukuda, 
 J. Hasegawa, M. Ishida, T. Nakajima, Y. Honda, O. Kitao, H. Nakai, 
 T. Vreven, K. Throssell, J. A. Montgomery, Jr., J. E. Peralta, 
 F. Ogliaro, M. J. Bearpark, J. J. Heyd, E. N. Brothers, K. N. Kudin, 
 V. N. Staroverov, T. A. Keith, R. Kobayashi, J. Normand, 
 K. Raghavachari, A. P. Rendell, J. C. Burant, S. S. Iyengar, 
 J. Tomasi, M. Cossi, J. M. Millam, M. Klene, C. Adamo, R. Cammi, 
 J. W. Ochterski, R. L. Martin, K. Morokuma, O. Farkas, 
 J. B. Foresman, and D. J. Fox, Gaussian, Inc., Wallingford CT, 2019.
 
 ******************************************
 Gaussian 16:  ES64L-G16RevC.01  3-Jul-2019
                 8-Apr-2025 
 ******************************************
 %nprocs=16
 Will use up to   16 processors via shared memory.
 %mem=30GB
 %chk=BDE49_nonexpt_1723_mol1.chk
 ----------------------------------------------------------------------
 #t hf aug-cc-pvdz iop(5/13=1,5/36=2,99/5=2) pseudo=read geom=check gue
 ss=(read,tcheck) scf=(maxcycle=1)
 ----------------------------------------------------------------------
 -----
 title
 -----
 Structure from the checkpoint file:  "BDE49_nonexpt_1723_mol1.chk"
 Charge =  0 Multiplicity = 1
 Z-Matrix found in chk file.
 S,0,0.137565,1.357114,-0.458171
 P,0,1.52166,-0.187404,0.057617
 O,0,2.838176,0.36918,-0.250173
 O,0,1.088712,-1.499799,-0.683493
 O,0,-1.376637,0.919689,0.285765
 C,0,-2.042287,-0.194509,-0.096347
 C,0,-3.445067,-0.178978,0.446329
 H,0,-3.883864,-1.16824,0.336909
 H,0,-4.034834,0.549011,-0.1168
 H,0,-3.445591,0.131834,1.491431
 O,0,-1.571336,-1.079238,-0.772139
 O,0,1.216633,-0.554612,1.585811
 H,0,1.576748,0.104242,2.193712
 H,0,0.121331,-1.520445,-0.86483
 Recover connectivity data from disk.
                    Distance matrix (angstroms):
                    1          2          3          4          5
     1  S    0.000000
     2  P    2.137122   0.000000
     3  O    2.883154   1.462099   0.000000
     4  O    3.019504   1.568142   2.596435   0.000000
     5  O    1.742868   3.110921   4.284266   3.587663   0.000000
     6  C    2.700038   3.567278   4.915316   3.442626   1.352973
     7  C    4.001619   4.981922   6.345450   4.855535   2.347606
     8  H    4.814712   5.500885   6.920560   5.087009   3.263166
     9  H    4.263623   5.607794   6.876656   5.547025   2.713940
    10  H    4.259257   5.179896   6.524971   5.287005   2.520896
    11  O    2.992445   3.324227   4.670563   2.694547   2.269973
    12  O    2.999491   1.601018   2.617944   2.461602   3.254033
    13  H    3.267020   2.156616   2.762963   3.330080   3.609390
    14  H    2.906197   2.142155   3.365967   0.984447   3.085779
                    6          7          8          9         10
     6  C    0.000000
     7  C    1.504171   0.000000
     8  H    2.127738   1.087729   0.000000
     9  H    2.126848   1.093118   1.782581   0.000000
    10  H    2.144015   1.090341   1.793097   1.762853   0.000000
    11  O    1.208816   2.409564   2.566261   3.024812   3.178565
    12  O    3.685090   4.813623   5.286905   5.629811   4.713433
    13  H    4.293138   5.324677   5.906370   6.084911   5.071277
    14  H    2.651399   4.029624   4.196405   4.702755   4.583113
                   11         12         13         14
    11  O    0.000000
    12  O    3.688893   0.000000
    13  H    4.484120   0.966082   0.000000
    14  H    1.751678   2.852746   3.756664   0.000000
 Framework group  C1[X(C2H5O5PS)]
 Deg. of freedom    36
                         Standard orientation:                         
 ---------------------------------------------------------------------
 Center     Atomic      Atomic             Coordinates (Angstroms)
 Number     Number       Type             X           Y           Z
 ---------------------------------------------------------------------
      1         16           0        0.137565    1.357114   -0.458171
      2         15           0        1.521660   -0.187404    0.057617
      3          8           0        2.838176    0.369180   -0.250173
      4          8           0        1.088712   -1.499799   -0.683493
      5          8           0       -1.376637    0.919689    0.285765
      6          6           0       -2.042287   -0.194509   -0.096347
      7          6           0       -3.445067   -0.178978    0.446329
      8          1           0       -3.883864   -1.168240    0.336909
      9          1           0       -4.034834    0.549011   -0.116800
     10          1           0       -3.445591    0.131834    1.491431
     11          8           0       -1.571336   -1.079238   -0.772139
     12          8           0        1.216633   -0.554612    1.585811
     13          1           0        1.576748    0.104242    2.193712
     14          1           0        0.121331   -1.520445   -0.864830
 ---------------------------------------------------------------------
 Rotational constants (GHZ):           2.3308709           0.8044486           0.7307659
 ======================================================================================================
                                       Pseudopotential Parameters
 ======================================================================================================
  Center     Atomic      Valence      Angular      Power
  Number     Number     Electrons     Momentum     of R      Exponent        Coefficient   SO-Coeffient
 ======================================================================================================
    1         16           16
                                      G and up 
                                                     0        0.0000010       -0.00108337    0.00000000
                                                     2        0.1200000        0.02393503    0.00000000
                                                     2        0.1400000       -0.04929246    0.00000000
                                                     2        0.2200000        0.11673929    0.00000000
                                                     2        0.3000000       -0.24406081    0.00000000
                                                     2        0.5000000        0.65938599    0.00000000
                                                     2        0.9000000       -2.67146103    0.00000000
                                                     2        1.6000000        1.72231217    0.00000000
                                      S - G
                                                     0        0.0000010       -0.00315363    0.00000000
                                                     2        0.1600000        0.09915567    0.00000000
                                                     2        0.3000000       -0.42531365    0.00000000
                                                     2        0.6000000        1.27985937    0.00000000
                                      P - G
                                                     0        0.0000010        0.05906535    0.00000000
                                                     2        0.1200000       -0.03516302    0.00000000
                                                     2        0.1600000        0.00585339    0.00000000
                                                     2        0.5000000        0.34013084    0.00000000
                                      D - G
                                                     0        0.0000010        0.03484679    0.00000000
                                                     2        0.1200000        0.00763944    0.00000000
                                                     2        0.2400000       -0.16368217    0.00000000
                                                     2        0.7000000        1.04339930    0.00000000
                                      F - G
                                                     0        0.0000010       -0.02227713    0.00000000
                                                     2        0.1200000       -0.15866626    0.00000000
                                                     2        0.1600000        0.42479417    0.00000000
                                                     2        0.2600000       -0.42884495    0.00000000
    2         15           15
                                      G and up 
                                                     0        0.0000010       -0.00062372    0.00000000
                                                     2        0.1200000        0.00273916    0.00000000
                                                     2        0.2400000       -0.02611253    0.00000000
                                                     2        0.4000000        0.07232031    0.00000000
                                                     2        0.7000000       -0.06738836    0.00000000
                                      S - G
                                                     0        0.0000010       -0.00171363    0.00000000
                                                     2        0.1200000       -0.11685950    0.00000000
                                                     2        0.2800000        0.73039551    0.00000000
                                                     2        0.7000000       -0.90461142    0.00000000
                                      P - G
                                                     0        0.0000010        0.09721278    0.00000000
                                                     2        0.1200000       -0.06687267    0.00000000
                                                     2        0.2400000        0.13955791    0.00000000
                                                     2        0.5000000       -0.14332004    0.00000000
                                                     2        0.8000000       -0.51825462    0.00000000
                                      D - G
                                                     0        0.0000010        0.13706773    0.00000000
                                                     2        0.1200000       -0.21285032    0.00000000
                                                     2        0.1800000        0.42861808    0.00000000
                                                     2        0.4000000       -1.01836828    0.00000000
                                                     2        1.0000000        2.21973069    0.00000000
                                      F - G
                                                     0        0.0000010       -0.11663732    0.00000000
                                                     2        0.1200000        0.14816215    0.00000000
                                                     2        0.1600000       -0.15649736    0.00000000
    3          8            8
                                      G and up 
                                                     0        0.0000010        0.00001165    0.00000000
                                                     2        0.1200000       -0.01744018    0.00000000
                                                     2        0.1400000        0.05401326    0.00000000
                                                     2        0.1800000       -0.08231208    0.00000000
                                                     2        0.2600000        0.11570222    0.00000000
                                                     2        0.4000000       -0.20630360    0.00000000
                                                     2        0.7000000        0.38074319    0.00000000
                                                     2        1.2000000       -0.17045091    0.00000000
                                                     2        2.0000000       -1.45433187    0.00000000
                                      S - G
                                                     0        0.0000010       -0.00117944    0.00000000
                                                     2        0.1400000        0.04368312    0.00000000
                                                     2        0.3000000       -0.33477926    0.00000000
                                                     2        0.6000000        1.52630657    0.00000000
                                                     2        1.5000000       -2.50804716    0.00000000
                                                     2        3.0000000        2.89751681    0.00000000
                                      P - G
                                                     0        0.0000010        0.06576007    0.00000000
                                                     2        0.1200000       -0.10329304    0.00000000
                                                     2        0.2000000        0.24891756    0.00000000
                                                     2        0.4000000       -0.50800022    0.00000000
                                                     2        0.9000000        0.81480796    0.00000000
                                      D - G
                                                     0        0.0000010       -0.14101855    0.00000000
                                                     2        0.1200000        0.22105937    0.00000000
                                                     2        0.1800000       -0.45814988    0.00000000
                                                     2        0.3000000        0.46029282    0.00000000
                                      F - G
                                                     0        0.0000010        0.07483044    0.00000000
                                                     2        0.1200000       -0.09134252    0.00000000
                                                     2        0.1400000        0.04125459    0.00000000
                                                     2        0.3000000        0.37914837    0.00000000
                                                     2        0.5000000       -0.86881279    0.00000000
    4          8            8
                                      G and up 
                                                     0        0.0000010        0.00001165    0.00000000
                                                     2        0.1200000       -0.01744018    0.00000000
                                                     2        0.1400000        0.05401326    0.00000000
                                                     2        0.1800000       -0.08231208    0.00000000
                                                     2        0.2600000        0.11570222    0.00000000
                                                     2        0.4000000       -0.20630360    0.00000000
                                                     2        0.7000000        0.38074319    0.00000000
                                                     2        1.2000000       -0.17045091    0.00000000
                                                     2        2.0000000       -1.45433187    0.00000000
                                      S - G
                                                     0        0.0000010       -0.00117944    0.00000000
                                                     2        0.1400000        0.04368312    0.00000000
                                                     2        0.3000000       -0.33477926    0.00000000
                                                     2        0.6000000        1.52630657    0.00000000
                                                     2        1.5000000       -2.50804716    0.00000000
                                                     2        3.0000000        2.89751681    0.00000000
                                      P - G
                                                     0        0.0000010        0.06576007    0.00000000
                                                     2        0.1200000       -0.10329304    0.00000000
                                                     2        0.2000000        0.24891756    0.00000000
                                                     2        0.4000000       -0.50800022    0.00000000
                                                     2        0.9000000        0.81480796    0.00000000
                                      D - G
                                                     0        0.0000010       -0.14101855    0.00000000
                                                     2        0.1200000        0.22105937    0.00000000
                                                     2        0.1800000       -0.45814988    0.00000000
                                                     2        0.3000000        0.46029282    0.00000000
                                      F - G
                                                     0        0.0000010        0.07483044    0.00000000
                                                     2        0.1200000       -0.09134252    0.00000000
                                                     2        0.1400000        0.04125459    0.00000000
                                                     2        0.3000000        0.37914837    0.00000000
                                                     2        0.5000000       -0.86881279    0.00000000
    5          8            8
                                      G and up 
                                                     0        0.0000010        0.00001165    0.00000000
                                                     2        0.1200000       -0.01744018    0.00000000
                                                     2        0.1400000        0.05401326    0.00000000
                                                     2        0.1800000       -0.08231208    0.00000000
                                                     2        0.2600000        0.11570222    0.00000000
                                                     2        0.4000000       -0.20630360    0.00000000
                                                     2        0.7000000        0.38074319    0.00000000
                                                     2        1.2000000       -0.17045091    0.00000000
                                                     2        2.0000000       -1.45433187    0.00000000
                                      S - G
                                                     0        0.0000010       -0.00117944    0.00000000
                                                     2        0.1400000        0.04368312    0.00000000
                                                     2        0.3000000       -0.33477926    0.00000000
                                                     2        0.6000000        1.52630657    0.00000000
                                                     2        1.5000000       -2.50804716    0.00000000
                                                     2        3.0000000        2.89751681    0.00000000
                                      P - G
                                                     0        0.0000010        0.06576007    0.00000000
                                                     2        0.1200000       -0.10329304    0.00000000
                                                     2        0.2000000        0.24891756    0.00000000
                                                     2        0.4000000       -0.50800022    0.00000000
                                                     2        0.9000000        0.81480796    0.00000000
                                      D - G
                                                     0        0.0000010       -0.14101855    0.00000000
                                                     2        0.1200000        0.22105937    0.00000000
                                                     2        0.1800000       -0.45814988    0.00000000
                                                     2        0.3000000        0.46029282    0.00000000
                                      F - G
                                                     0        0.0000010        0.07483044    0.00000000
                                                     2        0.1200000       -0.09134252    0.00000000
                                                     2        0.1400000        0.04125459    0.00000000
                                                     2        0.3000000        0.37914837    0.00000000
                                                     2        0.5000000       -0.86881279    0.00000000
    6          6            6
                                      G and up 
                                                     0        0.0000010       -0.00011185    0.00000000
                                                     2        0.1200000       -0.02301220    0.00000000
                                                     2        0.1400000        0.13317600    0.00000000
                                                     2        0.1600000       -0.19690668    0.00000000
                                                     2        0.2200000        0.23163694    0.00000000
                                                     2        0.3000000       -0.36920489    0.00000000
                                                     2        0.4000000        0.36389709    0.00000000
                                                     2        0.7000000       -0.38862160    0.00000000
                                                     2        1.3000000        0.80803421    0.00000000
                                      S - G
                                                     0        0.0000010        0.00312304    0.00000000
                                                     2        0.1200000       -0.00632892    0.00000000
                                                     2        0.2200000       -0.03780897    0.00000000
                                                     2        0.4000000        0.26269560    0.00000000
                                                     2        0.9000000       -0.28209514    0.00000000
                                                     2        1.5000000       -0.72686737    0.00000000
                                      P - G
                                                     0        0.0000010       -0.01465594    0.00000000
                                                     2        0.1200000        0.07908409    0.00000000
                                                     2        0.1800000       -0.30615861    0.00000000
                                                     2        0.2600000        0.41506950    0.00000000
                                                     2        0.5000000       -0.36252345    0.00000000
                                                     2        0.9000000        0.15124193    0.00000000
                                                     2        3.0000000       -0.80425677    0.00000000
                                      D - G
                                                     0        0.0000010        0.01149631    0.00000000
                                                     2        0.1200000       -0.04713561    0.00000000
                                                     2        0.1600000        0.10865096    0.00000000
                                                     2        0.2800000       -0.15816701    0.00000000
                                                     2        0.7000000        0.65478804    0.00000000
                                                     2        1.3000000       -1.73816624    0.00000000
                                      F - G
                                                     0        0.0000010        0.00481868    0.00000000
                                                     2        0.1200000       -0.04746842    0.00000000
                                                     2        0.1600000        0.09327889    0.00000000
                                                     2        0.4000000       -0.19693326    0.00000000
                                                     2        0.9000000        0.34938253    0.00000000
    7          6            6
                                      G and up 
                                                     0        0.0000010       -0.00011185    0.00000000
                                                     2        0.1200000       -0.02301220    0.00000000
                                                     2        0.1400000        0.13317600    0.00000000
                                                     2        0.1600000       -0.19690668    0.00000000
                                                     2        0.2200000        0.23163694    0.00000000
                                                     2        0.3000000       -0.36920489    0.00000000
                                                     2        0.4000000        0.36389709    0.00000000
                                                     2        0.7000000       -0.38862160    0.00000000
                                                     2        1.3000000        0.80803421    0.00000000
                                      S - G
                                                     0        0.0000010        0.00312304    0.00000000
                                                     2        0.1200000       -0.00632892    0.00000000
                                                     2        0.2200000       -0.03780897    0.00000000
                                                     2        0.4000000        0.26269560    0.00000000
                                                     2        0.9000000       -0.28209514    0.00000000
                                                     2        1.5000000       -0.72686737    0.00000000
                                      P - G
                                                     0        0.0000010       -0.01465594    0.00000000
                                                     2        0.1200000        0.07908409    0.00000000
                                                     2        0.1800000       -0.30615861    0.00000000
                                                     2        0.2600000        0.41506950    0.00000000
                                                     2        0.5000000       -0.36252345    0.00000000
                                                     2        0.9000000        0.15124193    0.00000000
                                                     2        3.0000000       -0.80425677    0.00000000
                                      D - G
                                                     0        0.0000010        0.01149631    0.00000000
                                                     2        0.1200000       -0.04713561    0.00000000
                                                     2        0.1600000        0.10865096    0.00000000
                                                     2        0.2800000       -0.15816701    0.00000000
                                                     2        0.7000000        0.65478804    0.00000000
                                                     2        1.3000000       -1.73816624    0.00000000
                                      F - G
                                                     0        0.0000010        0.00481868    0.00000000
                                                     2        0.1200000       -0.04746842    0.00000000
                                                     2        0.1600000        0.09327889    0.00000000
                                                     2        0.4000000       -0.19693326    0.00000000
                                                     2        0.9000000        0.34938253    0.00000000
    8          1            1
                                      F and up 
                                                     0        0.0000010       -0.00000699    0.00000000
                                                     2        0.1200000        0.00123686    0.00000000
                                                     2        0.1800000       -0.00752022    0.00000000
                                                     2        0.2600000        0.02503380    0.00000000
                                                     2        0.4000000       -0.08702670    0.00000000
                                                     2        0.6000000        0.30134159    0.00000000
                                                     2        0.8000000       -0.50204959    0.00000000
                                                     2        1.2000000        0.52208372    0.00000000
                                      S - F
                                                     0        0.0000010       -0.01618346    0.00000000
                                                     2        0.1200000       -0.07880581    0.00000000
                                                     2        0.1600000        0.32040539    0.00000000
                                                     2        0.2400000       -0.47500956    0.00000000
                                                     2        0.5000000        0.54013668    0.00000000
                                                     2        1.5000000       -1.40434292    0.00000000
                                                     2        3.0000000        1.46283806    0.00000000
                                      P - F
                                                     0        0.0000010        0.00612970    0.00000000
                                                     2        0.1200000        0.02254406    0.00000000
                                                     2        0.1800000       -0.13874529    0.00000000
                                                     2        0.3000000        0.38299049    0.00000000
                                                     2        0.5000000       -0.57923512    0.00000000
                                                     2        1.0000000        0.63021625    0.00000000
                                                     2        2.0000000       -0.79201034    0.00000000
                                      D - F
                                                     0        0.0000010       -0.00296226    0.00000000
                                                     2        0.1200000       -0.00547344    0.00000000
                                                     2        0.1400000        0.01837884    0.00000000
                                                     2        0.2400000       -0.05565704    0.00000000
                                                     2        0.4000000        0.15376597    0.00000000
                                                     2        0.8000000       -0.32464795    0.00000000
    9          1            1
                                      F and up 
                                                     0        0.0000010       -0.00000699    0.00000000
                                                     2        0.1200000        0.00123686    0.00000000
                                                     2        0.1800000       -0.00752022    0.00000000
                                                     2        0.2600000        0.02503380    0.00000000
                                                     2        0.4000000       -0.08702670    0.00000000
                                                     2        0.6000000        0.30134159    0.00000000
                                                     2        0.8000000       -0.50204959    0.00000000
                                                     2        1.2000000        0.52208372    0.00000000
                                      S - F
                                                     0        0.0000010       -0.01618346    0.00000000
                                                     2        0.1200000       -0.07880581    0.00000000
                                                     2        0.1600000        0.32040539    0.00000000
                                                     2        0.2400000       -0.47500956    0.00000000
                                                     2        0.5000000        0.54013668    0.00000000
                                                     2        1.5000000       -1.40434292    0.00000000
                                                     2        3.0000000        1.46283806    0.00000000
                                      P - F
                                                     0        0.0000010        0.00612970    0.00000000
                                                     2        0.1200000        0.02254406    0.00000000
                                                     2        0.1800000       -0.13874529    0.00000000
                                                     2        0.3000000        0.38299049    0.00000000
                                                     2        0.5000000       -0.57923512    0.00000000
                                                     2        1.0000000        0.63021625    0.00000000
                                                     2        2.0000000       -0.79201034    0.00000000
                                      D - F
                                                     0        0.0000010       -0.00296226    0.00000000
                                                     2        0.1200000       -0.00547344    0.00000000
                                                     2        0.1400000        0.01837884    0.00000000
                                                     2        0.2400000       -0.05565704    0.00000000
                                                     2        0.4000000        0.15376597    0.00000000
                                                     2        0.8000000       -0.32464795    0.00000000
   10          1            1
                                      F and up 
                                                     0        0.0000010       -0.00000699    0.00000000
                                                     2        0.1200000        0.00123686    0.00000000
                                                     2        0.1800000       -0.00752022    0.00000000
                                                     2        0.2600000        0.02503380    0.00000000
                                                     2        0.4000000       -0.08702670    0.00000000
                                                     2        0.6000000        0.30134159    0.00000000
                                                     2        0.8000000       -0.50204959    0.00000000
                                                     2        1.2000000        0.52208372    0.00000000
                                      S - F
                                                     0        0.0000010       -0.01618346    0.00000000
                                                     2        0.1200000       -0.07880581    0.00000000
                                                     2        0.1600000        0.32040539    0.00000000
                                                     2        0.2400000       -0.47500956    0.00000000
                                                     2        0.5000000        0.54013668    0.00000000
                                                     2        1.5000000       -1.40434292    0.00000000
                                                     2        3.0000000        1.46283806    0.00000000
                                      P - F
                                                     0        0.0000010        0.00612970    0.00000000
                                                     2        0.1200000        0.02254406    0.00000000
                                                     2        0.1800000       -0.13874529    0.00000000
                                                     2        0.3000000        0.38299049    0.00000000
                                                     2        0.5000000       -0.57923512    0.00000000
                                                     2        1.0000000        0.63021625    0.00000000
                                                     2        2.0000000       -0.79201034    0.00000000
                                      D - F
                                                     0        0.0000010       -0.00296226    0.00000000
                                                     2        0.1200000       -0.00547344    0.00000000
                                                     2        0.1400000        0.01837884    0.00000000
                                                     2        0.2400000       -0.05565704    0.00000000
                                                     2        0.4000000        0.15376597    0.00000000
                                                     2        0.8000000       -0.32464795    0.00000000
   11          8            8
                                      G and up 
                                                     0        0.0000010        0.00001165    0.00000000
                                                     2        0.1200000       -0.01744018    0.00000000
                                                     2        0.1400000        0.05401326    0.00000000
                                                     2        0.1800000       -0.08231208    0.00000000
                                                     2        0.2600000        0.11570222    0.00000000
                                                     2        0.4000000       -0.20630360    0.00000000
                                                     2        0.7000000        0.38074319    0.00000000
                                                     2        1.2000000       -0.17045091    0.00000000
                                                     2        2.0000000       -1.45433187    0.00000000
                                      S - G
                                                     0        0.0000010       -0.00117944    0.00000000
                                                     2        0.1400000        0.04368312    0.00000000
                                                     2        0.3000000       -0.33477926    0.00000000
                                                     2        0.6000000        1.52630657    0.00000000
                                                     2        1.5000000       -2.50804716    0.00000000
                                                     2        3.0000000        2.89751681    0.00000000
                                      P - G
                                                     0        0.0000010        0.06576007    0.00000000
                                                     2        0.1200000       -0.10329304    0.00000000
                                                     2        0.2000000        0.24891756    0.00000000
                                                     2        0.4000000       -0.50800022    0.00000000
                                                     2        0.9000000        0.81480796    0.00000000
                                      D - G
                                                     0        0.0000010       -0.14101855    0.00000000
                                                     2        0.1200000        0.22105937    0.00000000
                                                     2        0.1800000       -0.45814988    0.00000000
                                                     2        0.3000000        0.46029282    0.00000000
                                      F - G
                                                     0        0.0000010        0.07483044    0.00000000
                                                     2        0.1200000       -0.09134252    0.00000000
                                                     2        0.1400000        0.04125459    0.00000000
                                                     2        0.3000000        0.37914837    0.00000000
                                                     2        0.5000000       -0.86881279    0.00000000
   12          8            8
                                      G and up 
                                                     0        0.0000010        0.00001165    0.00000000
                                                     2        0.1200000       -0.01744018    0.00000000
                                                     2        0.1400000        0.05401326    0.00000000
                                                     2        0.1800000       -0.08231208    0.00000000
                                                     2        0.2600000        0.11570222    0.00000000
                                                     2        0.4000000       -0.20630360    0.00000000
                                                     2        0.7000000        0.38074319    0.00000000
                                                     2        1.2000000       -0.17045091    0.00000000
                                                     2        2.0000000       -1.45433187    0.00000000
                                      S - G
                                                     0        0.0000010       -0.00117944    0.00000000
                                                     2        0.1400000        0.04368312    0.00000000
                                                     2        0.3000000       -0.33477926    0.00000000
                                                     2        0.6000000        1.52630657    0.00000000
                                                     2        1.5000000       -2.50804716    0.00000000
                                                     2        3.0000000        2.89751681    0.00000000
                                      P - G
                                                     0        0.0000010        0.06576007    0.00000000
                                                     2        0.1200000       -0.10329304    0.00000000
                                                     2        0.2000000        0.24891756    0.00000000
                                                     2        0.4000000       -0.50800022    0.00000000
                                                     2        0.9000000        0.81480796    0.00000000
                                      D - G
                                                     0        0.0000010       -0.14101855    0.00000000
                                                     2        0.1200000        0.22105937    0.00000000
                                                     2        0.1800000       -0.45814988    0.00000000
                                                     2        0.3000000        0.46029282    0.00000000
                                      F - G
                                                     0        0.0000010        0.07483044    0.00000000
                                                     2        0.1200000       -0.09134252    0.00000000
                                                     2        0.1400000        0.04125459    0.00000000
                                                     2        0.3000000        0.37914837    0.00000000
                                                     2        0.5000000       -0.86881279    0.00000000
   13          1            1
                                      F and up 
                                                     0        0.0000010       -0.00000699    0.00000000
                                                     2        0.1200000        0.00123686    0.00000000
                                                     2        0.1800000       -0.00752022    0.00000000
                                                     2        0.2600000        0.02503380    0.00000000
                                                     2        0.4000000       -0.08702670    0.00000000
                                                     2        0.6000000        0.30134159    0.00000000
                                                     2        0.8000000       -0.50204959    0.00000000
                                                     2        1.2000000        0.52208372    0.00000000
                                      S - F
                                                     0        0.0000010       -0.01618346    0.00000000
                                                     2        0.1200000       -0.07880581    0.00000000
                                                     2        0.1600000        0.32040539    0.00000000
                                                     2        0.2400000       -0.47500956    0.00000000
                                                     2        0.5000000        0.54013668    0.00000000
                                                     2        1.5000000       -1.40434292    0.00000000
                                                     2        3.0000000        1.46283806    0.00000000
                                      P - F
                                                     0        0.0000010        0.00612970    0.00000000
                                                     2        0.1200000        0.02254406    0.00000000
                                                     2        0.1800000       -0.13874529    0.00000000
                                                     2        0.3000000        0.38299049    0.00000000
                                                     2        0.5000000       -0.57923512    0.00000000
                                                     2        1.0000000        0.63021625    0.00000000
                                                     2        2.0000000       -0.79201034    0.00000000
                                      D - F
                                                     0        0.0000010       -0.00296226    0.00000000
                                                     2        0.1200000       -0.00547344    0.00000000
                                                     2        0.1400000        0.01837884    0.00000000
                                                     2        0.2400000       -0.05565704    0.00000000
                                                     2        0.4000000        0.15376597    0.00000000
                                                     2        0.8000000       -0.32464795    0.00000000
   14          1            1
                                      F and up 
                                                     0        0.0000010       -0.00000699    0.00000000
                                                     2        0.1200000        0.00123686    0.00000000
                                                     2        0.1800000       -0.00752022    0.00000000
                                                     2        0.2600000        0.02503380    0.00000000
                                                     2        0.4000000       -0.08702670    0.00000000
                                                     2        0.6000000        0.30134159    0.00000000
                                                     2        0.8000000       -0.50204959    0.00000000
                                                     2        1.2000000        0.52208372    0.00000000
                                      S - F
                                                     0        0.0000010       -0.01618346    0.00000000
                                                     2        0.1200000       -0.07880581    0.00000000
                                                     2        0.1600000        0.32040539    0.00000000
                                                     2        0.2400000       -0.47500956    0.00000000
                                                     2        0.5000000        0.54013668    0.00000000
                                                     2        1.5000000       -1.40434292    0.00000000
                                                     2        3.0000000        1.46283806    0.00000000
                                      P - F
                                                     0        0.0000010        0.00612970    0.00000000
                                                     2        0.1200000        0.02254406    0.00000000
                                                     2        0.1800000       -0.13874529    0.00000000
                                                     2        0.3000000        0.38299049    0.00000000
                                                     2        0.5000000       -0.57923512    0.00000000
                                                     2        1.0000000        0.63021625    0.00000000
                                                     2        2.0000000       -0.79201034    0.00000000
                                      D - F
                                                     0        0.0000010       -0.00296226    0.00000000
                                                     2        0.1200000       -0.00547344    0.00000000
                                                     2        0.1400000        0.01837884    0.00000000
                                                     2        0.2400000       -0.05565704    0.00000000
                                                     2        0.4000000        0.15376597    0.00000000
                                                     2        0.8000000       -0.32464795    0.00000000
 ======================================================================================================
   260 basis functions,   518 primitive gaussians,   278 cartesian basis functions
    44 alpha electrons       44 beta electrons
       nuclear repulsion energy       703.1119856498 Hartrees.
 NAtoms=   14 NActive=   14 NUniq=   14 SFac= 1.00D+00 NAtFMM=   60 NAOKFM=F Big=F
   1 Symmetry operations used in ECPInt.
 ECPInt:  NShTT=    6105 NPrTT=   40477 LenC2=    6031 LenP2D=   26736.
 LDataN:  DoStor=T MaxTD1= 6 Len=  172
 Initial guess from the checkpoint file:  "BDE49_nonexpt_1723_mol1.chk"
 B after Tr=     0.000000   -0.000000   -0.000000
         Rot=    1.000000   -0.000000   -0.000000    0.000000 Ang=   0.00 deg.
 >>>>>>>>>> Convergence criterion not met.
 SCF Done:  E(RHF) =  -1191.60478687     A.U. after    2 cycles
            NFock=  1  Conv=0.40D-02     -V/T= 2.0034

 **********************************************************************

            Population analysis using the SCF Density.

 **********************************************************************

 Orbital symmetries:
       Occupied  (A) (A) (A) (A) (A) (A) (A) (A) (A) (A) (A) (A)
                 (A) (A) (A) (A) (A) (A) (A) (A) (A) (A) (A) (A)
                 (A) (A) (A) (A) (A) (A) (A) (A) (A) (A) (A) (A)
                 (A) (A) (A) (A) (A) (A) (A) (A)
       Virtual   (A) (A) (A) (A) (A) (A) (A) (A) (A) (A) (A) (A)
                 (A) (A) (A) (A) (A) (A) (A) (A) (A) (A) (A) (A)
                 (A) (A) (A) (A) (A) (A) (A) (A) (A) (A) (A) (A)
                 (A) (A) (A) (A) (A) (A) (A) (A) (A) (A) (A) (A)
                 (A) (A) (A) (A) (A) (A) (A) (A) (A) (A) (A) (A)
                 (A) (A) (A) (A) (A) (A) (A) (A) (A) (A) (A) (A)
                 (A) (A) (A) (A) (A) (A) (A) (A) (A) (A) (A) (A)
                 (A) (A) (A) (A) (A) (A) (A) (A) (A) (A) (A) (A)
                 (A) (A) (A) (A) (A) (A) (A) (A) (A) (A) (A) (A)
                 (A) (A) (A) (A) (A) (A) (A) (A) (A) (A) (A) (A)
                 (A) (A) (A) (A) (A) (A) (A) (A) (A) (A) (A) (A)
                 (A) (A) (A) (A) (A) (A) (A) (A) (A) (A) (A) (A)
                 (A) (A) (A) (A) (A) (A) (A) (A) (A) (A) (A) (A)
                 (A) (A) (A) (A) (A) (A) (A) (A) (A) (A) (A) (A)
                 (A) (A) (A) (A) (A) (A) (A) (A) (A) (A) (A) (A)
                 (A) (A) (A) (A) (A) (A) (A) (A) (A) (A) (A) (A)
                 (A) (A) (A) (A) (A) (A) (A) (A) (A) (A) (A) (A)
                 (A) (A) (A) (A) (A) (A) (A) (A) (A) (A) (A) (A)
 The electronic state is 1-A.
 Alpha  occ. eigenvalues --  -93.62544 -81.45104 -20.67231 -20.63749 -20.61652
 Alpha  occ. eigenvalues --  -20.60921 -20.54518 -11.44456 -11.28189  -8.91736
 Alpha  occ. eigenvalues --   -7.93280  -6.25922  -6.25503  -6.25173  -5.07928
 Alpha  occ. eigenvalues --   -5.07800  -5.07503  -1.45637  -1.39645  -1.36833
 Alpha  occ. eigenvalues --   -1.35816  -1.28014  -1.06224  -0.98145  -0.86358
 Alpha  occ. eigenvalues --   -0.81689  -0.79124  -0.74368  -0.72342  -0.70984
 Alpha  occ. eigenvalues --   -0.68501  -0.65726  -0.62663  -0.61914  -0.61279
 Alpha  occ. eigenvalues --   -0.59912  -0.58436  -0.57529  -0.55542  -0.53130
 Alpha  occ. eigenvalues --   -0.50909  -0.50743  -0.46052  -0.41348
 Alpha virt. eigenvalues --    0.02454   0.03888   0.04904   0.05170   0.06384
 Alpha virt. eigenvalues --    0.06877   0.07770   0.09731   0.10327   0.11189
 Alpha virt. eigenvalues --    0.11368   0.12212   0.12365   0.13480   0.14118
 Alpha virt. eigenvalues --    0.14632   0.15523   0.15623   0.16510   0.16692
 Alpha virt. eigenvalues --    0.19074   0.19694   0.20612   0.21364   0.22237
 Alpha virt. eigenvalues --    0.23089   0.23629   0.24349   0.24853   0.25735
 Alpha virt. eigenvalues --    0.26647   0.27350   0.28407   0.29329   0.30332
 Alpha virt. eigenvalues --    0.30831   0.31252   0.31353   0.31674   0.33174
 Alpha virt. eigenvalues --    0.33780   0.34797   0.35354   0.36117   0.37864
 Alpha virt. eigenvalues --    0.38465   0.38925   0.39681   0.40371   0.41828
 Alpha virt. eigenvalues --    0.42303   0.43198   0.43359   0.44818   0.45065
 Alpha virt. eigenvalues --    0.45754   0.47128   0.48694   0.49392   0.51230
 Alpha virt. eigenvalues --    0.51485   0.52354   0.54146   0.55041   0.55675
 Alpha virt. eigenvalues --    0.56602   0.57544   0.58147   0.58733   0.59943
 Alpha virt. eigenvalues --    0.61608   0.62110   0.63058   0.64073   0.65456
 Alpha virt. eigenvalues --    0.65621   0.66692   0.68107   0.69197   0.69966
 Alpha virt. eigenvalues --    0.71343   0.72339   0.73747   0.76895   0.77963
 Alpha virt. eigenvalues --    0.80189   0.81378   0.84909   0.86552   0.87747
 Alpha virt. eigenvalues --    0.88756   0.89648   0.91431   0.92149   0.93059
 Alpha virt. eigenvalues --    0.95428   0.96812   0.98593   0.99841   1.01899
 Alpha virt. eigenvalues --    1.02423   1.03742   1.04412   1.06046   1.06837
 Alpha virt. eigenvalues --    1.10996   1.11349   1.11916   1.12626   1.13227
 Alpha virt. eigenvalues --    1.16011   1.16998   1.19177   1.19733   1.20506
 Alpha virt. eigenvalues --    1.21867   1.22511   1.23839   1.25023   1.26901
 Alpha virt. eigenvalues --    1.29470   1.30306   1.31509   1.33521   1.33965
 Alpha virt. eigenvalues --    1.36545   1.37570   1.38248   1.39888   1.43196
 Alpha virt. eigenvalues --    1.45306   1.46678   1.48714   1.48894   1.51376
 Alpha virt. eigenvalues --    1.52902   1.55158   1.56832   1.57905   1.61706
 Alpha virt. eigenvalues --    1.63408   1.65258   1.65768   1.70156   1.71031
 Alpha virt. eigenvalues --    1.72136   1.73796   1.77669   1.78399   1.82185
 Alpha virt. eigenvalues --    1.83877   1.87018   1.87989   1.89814   1.94309
 Alpha virt. eigenvalues --    1.96752   1.99373   2.00096   2.01433   2.04972
 Alpha virt. eigenvalues --    2.08196   2.11756   2.15338   2.17016   2.17577
 Alpha virt. eigenvalues --    2.20242   2.22491   2.25289   2.27583   2.30318
 Alpha virt. eigenvalues --    2.34765   2.40383   2.42446   2.46042   2.49384
 Alpha virt. eigenvalues --    2.54122   2.55748   2.62179   2.70294   2.71102
 Alpha virt. eigenvalues --    2.82712   2.83934   2.88789   2.92089   2.95661
 Alpha virt. eigenvalues --    3.01472   3.04041   3.08815   3.18236   3.21076
 Alpha virt. eigenvalues --    3.34008   3.46920   3.50214   3.51229   3.52595
 Alpha virt. eigenvalues --    3.52812   3.54801   3.55293   3.56779   3.58234
 Alpha virt. eigenvalues --    3.58786   3.59632   3.61047   3.63734   3.64902
 Alpha virt. eigenvalues --    3.65815   3.67556   3.70227   3.74416   3.79878
 Alpha virt. eigenvalues --    3.81146   3.89274   3.94310   4.06750   4.07634
 Alpha virt. eigenvalues --    4.24013
          Condensed to atoms (all electrons):
 Mulliken charges:
               1
     1  S    0.194424
     2  P    2.118404
     3  O   -0.845060
     4  O   -0.706849
     5  O   -0.747648
     6  C    0.282524
     7  C    0.315854
     8  H    0.000552
     9  H    0.078045
    10  H    0.021257
    11  O   -0.493970
    12  O   -0.700206
    13  H    0.170635
    14  H    0.312037
 Sum of Mulliken charges =   0.00000
 Mulliken charges with hydrogens summed into heavy atoms:
               1
     1  S    0.194424
     2  P    2.118404
     3  O   -0.845060
     4  O   -0.394811
     5  O   -0.747648
     6  C    0.282524
     7  C    0.415709
    11  O   -0.493970
    12  O   -0.529570
 Electronic spatial extent (au):  <R**2>=           1618.6039
 Charge=              0.0000 electrons
 Dipole moment (field-independent basis, Debye):
    X=             -5.6575    Y=              1.1691    Z=              2.6634  Tot=              6.3614

 Test job not archived.
 1\1\GINC-SE229\SP\RHF\Aug-CC-pVDZ\C2H5O5P1S1\OHZDE\08-Apr-2025\0\\#t h
 f aug-cc-pvdz iop(5/13=1,5/36=2,99/5=2) pseudo=read geom=check guess=(
 read,tcheck) scf=(maxcycle=1)\\title\\0,1\S,0,0.137565,1.357114,-0.458
 171\P,0,1.52166,-0.187404,0.057617\O,0,2.838176,0.36918,-0.250173\O,0,
 1.088712,-1.499799,-0.683493\O,0,-1.376637,0.919689,0.285765\C,0,-2.04
 2287,-0.194509,-0.096347\C,0,-3.445067,-0.178978,0.446329\H,0,-3.88386
 4,-1.16824,0.336909\H,0,-4.034834,0.549011,-0.1168\H,0,-3.445591,0.131
 834,1.491431\O,0,-1.571336,-1.079238,-0.772139\O,0,1.216633,-0.554612,
 1.585811\H,0,1.576748,0.104242,2.193712\H,0,0.121331,-1.520445,-0.8648
 3\\Version=ES64L-G16RevC.01\State=1-A\HF=-1191.6047869\RMSD=4.044e-03\
 Dipole=-2.2258141,0.4599623,1.0478513\Quadrupole=-0.2669156,-2.5685831
 ,2.8354987,-0.3389255,2.4111589,-0.2680841\PG=C01 [X(C2H5O5P1S1)]\\@


 ERROR IS A HARDY PLANT... IT FLOURISHETH IN EVERY SOIL.
            MARTIN FARQUHAR TUPPER
 Job cpu time:       0 days  0 hours  1 minutes 56.2 seconds.
 Elapsed time:       0 days  0 hours  0 minutes  8.6 seconds.
 File lengths (MBytes):  RWF=     14 Int=      0 D2E=      0 Chk=     10 Scr=      1
 Normal termination of Gaussian 16 at Tue Apr  8 23:44:11 2025.
