 Entering Gaussian System, Link 0=g16
 Input=BDE49_nonexpt_580_mol1.gjf
 Output=BDE49_nonexpt_580_mol1.log
 Initial command:
 /arc/software/Gaussian/g16.c01/l1.exe "/tmp/slurm/4854304/Gau-4099681.inp" -scrdir="/tmp/slurm/4854304/"
 Entering Link 1 = /arc/software/Gaussian/g16.c01/l1.exe PID=   4099682.
  
 Copyright (c) 1988-2019, Gaussian, Inc.  All Rights Reserved.
  
 This is part of the Gaussian(R) 16 program.  It is based on
 the Gaussian(R) 09 system (copyright 2009, Gaussian, Inc.),
 the Gaussian(R) 03 system (copyright 2003, Gaussian, Inc.),
 the Gaussian(R) 98 system (copyright 1998, Gaussian, Inc.),
 the Gaussian(R) 94 system (copyright 1995, Gaussian, Inc.),
 the Gaussian 92(TM) system (copyright 1992, Gaussian, Inc.),
 the Gaussian 90(TM) system (copyright 1990, Gaussian, Inc.),
 the Gaussian 88(TM) system (copyright 1988, Gaussian, Inc.),
 the Gaussian 86(TM) system (copyright 1986, Carnegie Mellon
 University), and the Gaussian 82(TM) system (copyright 1983,
 Carnegie Mellon University). Gaussian is a federally registered
 trademark of Gaussian, Inc.
  
 This software contains proprietary and confidential information,
 including trade secrets, belonging to Gaussian, Inc.
  
 This software is provided under written license and may be
 used, copied, transmitted, or stored only in accord with that
 written license.
  
 The following legend is applicable only to US Government
 contracts under FAR:
  
                    RESTRICTED RIGHTS LEGEND
  
 Use, reproduction and disclosure by the US Government is
 subject to restrictions as set forth in subparagraphs (a)
 and (c) of the Commercial Computer Software - Restricted
 Rights clause in FAR 52.227-19.
  
 Gaussian, Inc.
 340 Quinnipiac St., Bldg. 40, Wallingford CT 06492
  
  
 ---------------------------------------------------------------
 Warning -- This program may not be used in any manner that
 competes with the business of Gaussian, Inc. or will provide
 assistance to any competitor of Gaussian, Inc.  The licensee
 of this program is prohibited from giving any competitor of
 Gaussian, Inc. access to this program.  By using this program,
 the user acknowledges that Gaussian, Inc. is engaged in the
 business of creating and licensing software in the field of
 computational chemistry and represents and warrants to the
 licensee that it is not a competitor of Gaussian, Inc. and that
 it will not use this program in any manner prohibited above.
 ---------------------------------------------------------------
  

 Cite this work as:
 Gaussian 16, Revision C.01,
 M. J. Frisch, G. W. Trucks, H. B. Schlegel, G. E. Scuseria, 
 M. A. Robb, J. R. Cheeseman, G. Scalmani, V. Barone, 
 G. A. Petersson, H. Nakatsuji, X. Li, M. Caricato, A. V. Marenich, 
 J. Bloino, B. G. Janesko, R. Gomperts, B. Mennucci, H. P. Hratchian, 
 J. V. Ortiz, A. F. Izmaylov, J. L. Sonnenberg, D. Williams-Young, 
 F. Ding, F. Lipparini, F. Egidi, J. Goings, B. Peng, A. Petrone, 
 T. Henderson, D. Ranasinghe, V. G. Zakrzewski, J. Gao, N. Rega, 
 G. Zheng, W. Liang, M. Hada, M. Ehara, K. Toyota, R. Fukuda, 
 J. Hasegawa, M. Ishida, T. Nakajima, Y. Honda, O. Kitao, H. Nakai, 
 T. Vreven, K. Throssell, J. A. Montgomery, Jr., J. E. Peralta, 
 F. Ogliaro, M. J. Bearpark, J. J. Heyd, E. N. Brothers, K. N. Kudin, 
 V. N. Staroverov, T. A. Keith, R. Kobayashi, J. Normand, 
 K. Raghavachari, A. P. Rendell, J. C. Burant, S. S. Iyengar, 
 J. Tomasi, M. Cossi, J. M. Millam, M. Klene, C. Adamo, R. Cammi, 
 J. W. Ochterski, R. L. Martin, K. Morokuma, O. Farkas, 
 J. B. Foresman, and D. J. Fox, Gaussian, Inc., Wallingford CT, 2019.
 
 ******************************************
 Gaussian 16:  ES64L-G16RevC.01  3-Jul-2019
                 9-Apr-2025 
 ******************************************
 %nprocs=16
 Will use up to   16 processors via shared memory.
 %mem=30GB
 %chk=BDE49_nonexpt_580_mol1.chk
 ----------------------------------------------------------------------
 #t hf aug-cc-pvdz symm=none int=(grid=ultrafine) guess=(read,tcheck) s
 table=(opt,rrhf)
 ----------------------------------------------------------------------
 -----
 title
 -----
 Symbolic Z-matrix:
 Charge =  0 Multiplicity = 1
 B                    -2.20884  -0.00007   0.15848 
 C                     0.33303   0.00023  -0.56316 
 C                     1.01899   1.19958  -0.32872 
 C                     1.01894  -1.19931  -0.32954 
 C                     2.3394   -1.20224   0.11482 
 C                     3.00698  -0.00013   0.33978 
 C                     2.33944   1.20216   0.11563 
 H                     4.03579  -0.00026   0.68171 
 H                     2.8488    2.14531   0.28228 
 H                     0.51128   2.14315  -0.50391 
 H                     0.51121  -2.14274  -0.50537 
 H                     2.84872  -2.14551   0.28082 
 N                    -1.80107  -0.00072   1.49342 
 C                    -3.74772   0.00018  -0.21476 
 H                    -4.00276  -0.87351  -0.82644 
 H                    -4.00269   0.87454  -0.82551 
 H                    -4.41464  -0.00025   0.65335 
 C                    -1.10938   0.00041  -1.00476 
 H                    -1.30329   0.87043  -1.64565 
 H                    -1.30329  -0.8691   -1.64634 
 H                    -2.44679  -0.00105   2.26756 
 H                    -0.82877  -0.00089   1.76549 
 
                    Distance matrix (angstroms):
                    1          2          3          4          5
     1  B    0.000000
     2  C    2.642320   0.000000
     3  C    3.477844   1.401412   0.000000
     4  C    3.477773   1.401412   2.398895   0.000000
     5  C    4.704632   2.435386   2.776502   1.393221   0.000000
     6  C    5.218963   2.822286   2.416258   2.416258   1.393319
     7  C    4.704683   2.435386   1.393220   2.776503   2.404399
     8  H    6.266510   3.906427   3.400253   3.400254   2.154963
     9  H    5.495238   3.412510   2.148469   3.861237   3.390218
    10  H    3.525790   2.151135   1.085710   3.385284   3.862180
    11  H    3.525667   2.151136   3.385284   1.085709   2.147431
    12  H    5.495159   3.412511   3.861237   2.148471   1.084774
    13  N    1.395824   2.963770   3.565626   3.565433   4.526337
    14  C    1.583499   4.095592   4.916608   4.916606   6.213487
    15  H    2.225114   4.430779   5.455584   5.056735   6.420048
    16  H    2.225109   4.430767   5.056647   5.455607   6.739386
    17  H    2.260637   4.901051   5.650524   5.650460   6.881272
    18  C    1.600607   1.508491   2.534757   2.534757   3.820192
    19  H    2.198333   2.146284   2.689904   3.377675   4.545802
    20  H    2.198322   2.146283   3.377652   2.689934   4.059778
    21  H    2.122457   3.967416   4.493755   4.493559   5.383751
    22  H    2.118264   2.602384   3.039915   3.039639   3.768986
                    6          7          8          9         10
     6  C    0.000000
     7  C    1.393319   0.000000
     8  H    1.084150   2.154963   0.000000
     9  H    2.152023   1.084774   2.484342   0.000000
    10  H    3.396162   2.147430   4.292093   2.466187   0.000000
    11  H    3.396163   3.862180   4.292094   4.946921   4.285883
    12  H    2.152024   3.390218   2.484343   4.290819   4.946921
    13  N    4.944517   4.526488   5.893036   5.262471   3.732621
    14  C    6.777419   6.213488   7.834965   6.954325   4.776503
    15  H    7.159558   6.739396   8.225291   7.568776   5.438827
    16  H    7.159494   6.419947   8.225216   7.055842   4.699863
    17  H    7.428242   6.881324   8.450484   7.582790   5.495283
    18  C    4.330376   3.820192   5.414514   4.682331   2.732899
    19  H    4.824741   4.059757   5.889011   4.752054   2.493200
    20  H    4.824743   4.545785   5.889012   5.481426   3.697494
    21  H    5.784455   5.383914   6.673738   6.049087   4.585717
    22  H    4.092141   3.769209   4.983828   4.508946   3.397469
                   11         12         13         14         15
    11  H    0.000000
    12  H    2.466188   0.000000
    13  N    3.732295   5.262238   0.000000
    14  C    4.776501   6.954323   2.589847   0.000000
    15  H    4.699989   7.055977   3.315259   1.096602   0.000000
    16  H    5.438906   7.568787   3.315213   1.096602   1.748056
    17  H    5.495166   7.582705   2.745263   1.094718   1.766920
    18  C    2.732898   4.682332   2.592170   2.754075   3.027736
    19  H    3.697533   5.481452   3.295514   2.963105   3.316560
    20  H    2.493257   4.752086   3.295446   2.963158   2.821243
    21  H    4.585377   6.048827   1.008088   2.802560   3.571424
    22  H    3.397030   4.508614   1.009651   3.527271   4.189721
                   16         17         18         19         20
    16  H    0.000000
    17  H    1.766918   0.000000
    18  C    3.027787   3.697851   0.000000
    19  H    2.821242   3.965349   1.097848   0.000000
    20  H    3.316751   3.965351   1.097848   1.739529   0.000000
    21  H    3.571355   2.545217   3.535073   4.168962   4.168899
    22  H    4.189680   3.754376   2.784423   3.552490   3.552395
                   21         22
    21  H    0.000000
    22  H    1.694126   0.000000
 Symmetry turned off by external request.
 Rotational constants (GHZ):           3.1629061           0.7090573           0.6879727
   338 basis functions,   562 primitive gaussians,   358 cartesian basis functions
    36 alpha electrons       36 beta electrons
       nuclear repulsion energy       471.5876347856 Hartrees.
 NAtoms=   22 NActive=   22 NUniq=   22 SFac= 1.00D+00 NAtFMM=   60 NAOKFM=F Big=F
 ExpMin= 2.38D-02 ExpMax= 9.05D+03 ExpMxC= 3.09D+02 IAcc=3 IRadAn=         5 AccDes= 0.00D+00
 Harris functional with IExCor=  205 and IRadAn=       5 diagonalized for initial guess.
 HarFok:  IExCor=  205 AccDes= 0.00D+00 IRadAn=         5 IDoV= 1 UseB2=F ITyADJ=14
 ICtDFT=  3500011 ScaDFX=  1.000000  1.000000  1.000000  1.000000
 FoFCou: FMM=F IPFlag=           0 FMFlag=      100000 FMFlg1=           0
         NFxFlg=           0 DoJE=T BraDBF=F KetDBF=T FulRan=T
         wScrn=  0.000000 ICntrl=       500 IOpCl=  0 I1Cent=   200000004 NGrid=           0
         NMat0=    1 NMatS0=      1 NMatT0=    0 NMatD0=    1 NMtDS0=    0 NMtDT0=    0
 Symmetry not used in FoFCou.
 SCF Done:  E(RHF) =  -389.183200187     A.U. after   15 cycles
            NFock= 15  Conv=0.30D-08     -V/T= 2.0008

 **********************************************************************

            Population analysis using the SCF Density.

 **********************************************************************

 Alpha  occ. eigenvalues --  -15.54973 -11.24366 -11.23811 -11.23800 -11.23264
 Alpha  occ. eigenvalues --  -11.23147 -11.23141 -11.20494 -11.19345  -7.58362
 Alpha  occ. eigenvalues --   -1.15882  -1.14716  -1.03970  -1.01089  -0.94496
 Alpha  occ. eigenvalues --   -0.91511  -0.82294  -0.79521  -0.69304  -0.68337
 Alpha  occ. eigenvalues --   -0.67319  -0.62990  -0.62971  -0.58040  -0.57402
 Alpha  occ. eigenvalues --   -0.54936  -0.54182  -0.51874  -0.51499  -0.49659
 Alpha  occ. eigenvalues --   -0.48072  -0.47633  -0.44090  -0.42183  -0.33261
 Alpha  occ. eigenvalues --   -0.31616
 Alpha virt. eigenvalues --    0.02949   0.03934   0.04240   0.04733   0.05441
 Alpha virt. eigenvalues --    0.05520   0.06363   0.07060   0.07306   0.07392
 Alpha virt. eigenvalues --    0.08236   0.09020   0.09932   0.10567   0.10902
 Alpha virt. eigenvalues --    0.11366   0.11383   0.12212   0.12368   0.14040
 Alpha virt. eigenvalues --    0.14926   0.15134   0.15424   0.15579   0.15779
 Alpha virt. eigenvalues --    0.16330   0.16354   0.17377   0.17563   0.18286
 Alpha virt. eigenvalues --    0.18634   0.18782   0.19053   0.19132   0.19660
 Alpha virt. eigenvalues --    0.20471   0.20557   0.20973   0.21546   0.22133
 Alpha virt. eigenvalues --    0.23702   0.23943   0.24367   0.24526   0.25228
 Alpha virt. eigenvalues --    0.25612   0.26206   0.26717   0.29458   0.30130
 Alpha virt. eigenvalues --    0.30798   0.31359   0.31807   0.32641   0.33648
 Alpha virt. eigenvalues --    0.33705   0.34275   0.35206   0.35892   0.36698
 Alpha virt. eigenvalues --    0.37609   0.38761   0.39190   0.39649   0.40658
 Alpha virt. eigenvalues --    0.40811   0.41618   0.41881   0.42758   0.43003
 Alpha virt. eigenvalues --    0.43076   0.43506   0.44532   0.44766   0.45086
 Alpha virt. eigenvalues --    0.45591   0.46623   0.47032   0.47884   0.47929
 Alpha virt. eigenvalues --    0.49020   0.49114   0.50051   0.50434   0.50974
 Alpha virt. eigenvalues --    0.52307   0.53231   0.53861   0.53999   0.55126
 Alpha virt. eigenvalues --    0.55326   0.56936   0.57011   0.58282   0.59684
 Alpha virt. eigenvalues --    0.60240   0.60298   0.61030   0.61693   0.62486
 Alpha virt. eigenvalues --    0.62699   0.63167   0.63553   0.64442   0.65520
 Alpha virt. eigenvalues --    0.66203   0.66546   0.67001   0.67272   0.67556
 Alpha virt. eigenvalues --    0.67786   0.68781   0.68782   0.70337   0.70538
 Alpha virt. eigenvalues --    0.71423   0.71700   0.71734   0.72429   0.73575
 Alpha virt. eigenvalues --    0.73629   0.74956   0.76989   0.77101   0.77665
 Alpha virt. eigenvalues --    0.77860   0.78949   0.79015   0.79675   0.80957
 Alpha virt. eigenvalues --    0.82041   0.82622   0.83364   0.84711   0.84725
 Alpha virt. eigenvalues --    0.85613   0.86206   0.86875   0.87159   0.88716
 Alpha virt. eigenvalues --    0.89405   0.90064   0.90794   0.91887   0.93530
 Alpha virt. eigenvalues --    0.94333   0.94367   0.95286   0.95588   0.96640
 Alpha virt. eigenvalues --    0.97634   0.99147   0.99674   1.00300   1.01471
 Alpha virt. eigenvalues --    1.02197   1.04094   1.04583   1.06486   1.06648
 Alpha virt. eigenvalues --    1.07918   1.09954   1.10998   1.12052   1.13372
 Alpha virt. eigenvalues --    1.15089   1.16383   1.16737   1.18759   1.19311
 Alpha virt. eigenvalues --    1.19819   1.21998   1.24627   1.24884   1.25079
 Alpha virt. eigenvalues --    1.30398   1.30566   1.35456   1.36973   1.37415
 Alpha virt. eigenvalues --    1.39348   1.40478   1.45638   1.46739   1.49264
 Alpha virt. eigenvalues --    1.49391   1.52197   1.54121   1.55145   1.55817
 Alpha virt. eigenvalues --    1.57305   1.58853   1.59977   1.60527   1.62231
 Alpha virt. eigenvalues --    1.63508   1.63821   1.64343   1.65053   1.66135
 Alpha virt. eigenvalues --    1.68385   1.68465   1.69746   1.70360   1.72844
 Alpha virt. eigenvalues --    1.74671   1.76296   1.76899   1.80236   1.80850
 Alpha virt. eigenvalues --    1.81885   1.81910   1.85875   1.86475   1.91310
 Alpha virt. eigenvalues --    1.91341   1.91988   1.92950   1.93642   1.94850
 Alpha virt. eigenvalues --    1.95213   1.96998   1.97702   1.97785   1.98989
 Alpha virt. eigenvalues --    2.00571   2.01831   2.05802   2.06108   2.08342
 Alpha virt. eigenvalues --    2.09068   2.10711   2.10931   2.13148   2.13454
 Alpha virt. eigenvalues --    2.13991   2.15188   2.17233   2.18187   2.20753
 Alpha virt. eigenvalues --    2.22750   2.23200   2.26496   2.27504   2.27780
 Alpha virt. eigenvalues --    2.29089   2.30559   2.31080   2.31431   2.32652
 Alpha virt. eigenvalues --    2.34191   2.35961   2.37672   2.37797   2.39024
 Alpha virt. eigenvalues --    2.40392   2.41884   2.43023   2.44588   2.46119
 Alpha virt. eigenvalues --    2.47416   2.47540   2.50485   2.54205   2.57751
 Alpha virt. eigenvalues --    2.59733   2.63746   2.63780   2.66134   2.66535
 Alpha virt. eigenvalues --    2.69048   2.74655   2.78766   2.80369   2.81057
 Alpha virt. eigenvalues --    2.82466   2.82537   2.84083   2.84719   2.85656
 Alpha virt. eigenvalues --    2.89260   2.91111   2.94836   2.95587   3.01646
 Alpha virt. eigenvalues --    3.02611   3.05335   3.08708   3.12667   3.14491
 Alpha virt. eigenvalues --    3.16783   3.17294   3.30295   3.32333   3.37481
 Alpha virt. eigenvalues --    3.38603   3.55532   3.64297   3.73502   3.79144
 Alpha virt. eigenvalues --    3.88532   4.83765
          Condensed to atoms (all electrons):
 Mulliken charges:
               1
     1  B    0.826161
     2  C    0.633358
     3  C    0.549991
     4  C    0.550021
     5  C    0.110113
     6  C    0.662467
     7  C    0.110142
     8  H   -0.444232
     9  H   -0.461909
    10  H   -0.683620
    11  H   -0.683621
    12  H   -0.461917
    13  N   -0.311012
    14  C    0.437145
    15  H   -0.159290
    16  H   -0.159254
    17  H   -0.340928
    18  C    0.228052
    19  H   -0.204128
    20  H   -0.204058
    21  H   -0.079285
    22  H    0.085805
 Sum of Mulliken charges =  -0.00000
 Mulliken charges with hydrogens summed into heavy atoms:
               1
     1  B    0.826161
     2  C    0.633358
     3  C   -0.133629
     4  C   -0.133600
     5  C   -0.351804
     6  C    0.218235
     7  C   -0.351768
    13  N   -0.304492
    14  C   -0.222328
    18  C   -0.180134
 Electronic spatial extent (au):  <R**2>=           1796.4752
 Charge=             -0.0000 electrons
 Dipole moment (field-independent basis, Debye):
    X=             -0.3200    Y=             -0.0004    Z=              0.9222  Tot=              0.9762
 NROrb=    338 NOA=    36 NOB=    36 NVA=   302 NVB=   302

 **** Warning!!: The largest alpha MO coefficient is  0.14289899D+03

    12 initial guesses have been made.
 Iteration     1 Dimension    12 NMult     0 NNew     12
 Iteration     2 Dimension    24 NMult    12 NNew     12
 Iteration     3 Dimension    27 NMult    24 NNew      3
 Iteration     4 Dimension    30 NMult    27 NNew      3
 Iteration     5 Dimension    33 NMult    30 NNew      3
 Iteration     6 Dimension    36 NMult    33 NNew      3
 ***********************************************************************
 Stability analysis using <AA,BB:AA,BB> singles matrix:
 ***********************************************************************
 Ground to excited state transition densities written to RWF  633

 Eigenvectors of the stability matrix:
 
 Excited state symmetry could not be determined.
 Eigenvector   1:      Singlet-?Sym  Eigenvalue= 0.1667313  <S**2>=0.000
      35 -> 51         0.10621
      35 -> 53         0.19150
      35 -> 54         0.33800
      36 -> 50         0.21658
      36 -> 52         0.40984
      36 -> 68         0.10282
      36 -> 76         0.11978
 The wavefunction is stable under the perturbations considered.
 The wavefunction is already stable.

 **********************************************************************

            Population analysis using the SCF Density.

 **********************************************************************

 Alpha  occ. eigenvalues --  -15.54973 -11.24366 -11.23811 -11.23800 -11.23264
 Alpha  occ. eigenvalues --  -11.23147 -11.23141 -11.20494 -11.19345  -7.58362
 Alpha  occ. eigenvalues --   -1.15882  -1.14716  -1.03970  -1.01089  -0.94496
 Alpha  occ. eigenvalues --   -0.91511  -0.82294  -0.79521  -0.69304  -0.68337
 Alpha  occ. eigenvalues --   -0.67319  -0.62990  -0.62971  -0.58040  -0.57402
 Alpha  occ. eigenvalues --   -0.54936  -0.54182  -0.51874  -0.51499  -0.49659
 Alpha  occ. eigenvalues --   -0.48072  -0.47633  -0.44090  -0.42183  -0.33261
 Alpha  occ. eigenvalues --   -0.31616
 Alpha virt. eigenvalues --    0.02949   0.03934   0.04240   0.04733   0.05441
 Alpha virt. eigenvalues --    0.05520   0.06363   0.07060   0.07306   0.07392
 Alpha virt. eigenvalues --    0.08236   0.09020   0.09932   0.10567   0.10902
 Alpha virt. eigenvalues --    0.11366   0.11383   0.12212   0.12368   0.14040
 Alpha virt. eigenvalues --    0.14926   0.15134   0.15424   0.15579   0.15779
 Alpha virt. eigenvalues --    0.16330   0.16354   0.17377   0.17563   0.18286
 Alpha virt. eigenvalues --    0.18634   0.18782   0.19053   0.19132   0.19660
 Alpha virt. eigenvalues --    0.20471   0.20557   0.20973   0.21546   0.22133
 Alpha virt. eigenvalues --    0.23702   0.23943   0.24367   0.24526   0.25228
 Alpha virt. eigenvalues --    0.25612   0.26206   0.26717   0.29458   0.30130
 Alpha virt. eigenvalues --    0.30798   0.31359   0.31807   0.32641   0.33648
 Alpha virt. eigenvalues --    0.33705   0.34275   0.35206   0.35892   0.36698
 Alpha virt. eigenvalues --    0.37609   0.38761   0.39190   0.39649   0.40658
 Alpha virt. eigenvalues --    0.40811   0.41618   0.41881   0.42758   0.43003
 Alpha virt. eigenvalues --    0.43076   0.43506   0.44532   0.44766   0.45086
 Alpha virt. eigenvalues --    0.45591   0.46623   0.47032   0.47884   0.47929
 Alpha virt. eigenvalues --    0.49020   0.49114   0.50051   0.50434   0.50974
 Alpha virt. eigenvalues --    0.52307   0.53231   0.53861   0.53999   0.55126
 Alpha virt. eigenvalues --    0.55326   0.56936   0.57011   0.58282   0.59684
 Alpha virt. eigenvalues --    0.60240   0.60298   0.61030   0.61693   0.62486
 Alpha virt. eigenvalues --    0.62699   0.63167   0.63553   0.64442   0.65520
 Alpha virt. eigenvalues --    0.66203   0.66546   0.67001   0.67272   0.67556
 Alpha virt. eigenvalues --    0.67786   0.68781   0.68782   0.70337   0.70538
 Alpha virt. eigenvalues --    0.71423   0.71700   0.71734   0.72429   0.73575
 Alpha virt. eigenvalues --    0.73629   0.74956   0.76989   0.77101   0.77665
 Alpha virt. eigenvalues --    0.77860   0.78949   0.79015   0.79675   0.80957
 Alpha virt. eigenvalues --    0.82041   0.82622   0.83364   0.84711   0.84725
 Alpha virt. eigenvalues --    0.85613   0.86206   0.86875   0.87159   0.88716
 Alpha virt. eigenvalues --    0.89405   0.90064   0.90794   0.91887   0.93530
 Alpha virt. eigenvalues --    0.94333   0.94367   0.95286   0.95588   0.96640
 Alpha virt. eigenvalues --    0.97634   0.99147   0.99674   1.00300   1.01471
 Alpha virt. eigenvalues --    1.02197   1.04094   1.04583   1.06486   1.06648
 Alpha virt. eigenvalues --    1.07918   1.09954   1.10998   1.12052   1.13372
 Alpha virt. eigenvalues --    1.15089   1.16383   1.16737   1.18759   1.19311
 Alpha virt. eigenvalues --    1.19819   1.21998   1.24627   1.24884   1.25079
 Alpha virt. eigenvalues --    1.30398   1.30566   1.35456   1.36973   1.37415
 Alpha virt. eigenvalues --    1.39348   1.40478   1.45638   1.46739   1.49264
 Alpha virt. eigenvalues --    1.49391   1.52197   1.54121   1.55145   1.55817
 Alpha virt. eigenvalues --    1.57305   1.58853   1.59977   1.60527   1.62231
 Alpha virt. eigenvalues --    1.63508   1.63821   1.64343   1.65053   1.66135
 Alpha virt. eigenvalues --    1.68385   1.68465   1.69746   1.70360   1.72844
 Alpha virt. eigenvalues --    1.74671   1.76296   1.76899   1.80236   1.80850
 Alpha virt. eigenvalues --    1.81885   1.81910   1.85875   1.86475   1.91310
 Alpha virt. eigenvalues --    1.91341   1.91988   1.92950   1.93642   1.94850
 Alpha virt. eigenvalues --    1.95213   1.96998   1.97702   1.97785   1.98989
 Alpha virt. eigenvalues --    2.00571   2.01831   2.05802   2.06108   2.08342
 Alpha virt. eigenvalues --    2.09068   2.10711   2.10931   2.13148   2.13454
 Alpha virt. eigenvalues --    2.13991   2.15188   2.17233   2.18187   2.20753
 Alpha virt. eigenvalues --    2.22750   2.23200   2.26496   2.27504   2.27780
 Alpha virt. eigenvalues --    2.29089   2.30559   2.31080   2.31431   2.32652
 Alpha virt. eigenvalues --    2.34191   2.35961   2.37672   2.37797   2.39024
 Alpha virt. eigenvalues --    2.40392   2.41884   2.43023   2.44588   2.46119
 Alpha virt. eigenvalues --    2.47416   2.47540   2.50485   2.54205   2.57751
 Alpha virt. eigenvalues --    2.59733   2.63746   2.63780   2.66134   2.66535
 Alpha virt. eigenvalues --    2.69048   2.74655   2.78766   2.80369   2.81057
 Alpha virt. eigenvalues --    2.82466   2.82537   2.84083   2.84719   2.85656
 Alpha virt. eigenvalues --    2.89260   2.91111   2.94836   2.95587   3.01646
 Alpha virt. eigenvalues --    3.02611   3.05335   3.08708   3.12667   3.14491
 Alpha virt. eigenvalues --    3.16783   3.17294   3.30295   3.32333   3.37481
 Alpha virt. eigenvalues --    3.38603   3.55532   3.64297   3.73502   3.79144
 Alpha virt. eigenvalues --    3.88532   4.83765
          Condensed to atoms (all electrons):
 Mulliken charges:
               1
     1  B    0.826161
     2  C    0.633358
     3  C    0.549991
     4  C    0.550021
     5  C    0.110113
     6  C    0.662467
     7  C    0.110142
     8  H   -0.444232
     9  H   -0.461909
    10  H   -0.683620
    11  H   -0.683621
    12  H   -0.461917
    13  N   -0.311012
    14  C    0.437145
    15  H   -0.159290
    16  H   -0.159254
    17  H   -0.340928
    18  C    0.228052
    19  H   -0.204128
    20  H   -0.204058
    21  H   -0.079285
    22  H    0.085805
 Sum of Mulliken charges =  -0.00000
 Mulliken charges with hydrogens summed into heavy atoms:
               1
     1  B    0.826161
     2  C    0.633358
     3  C   -0.133629
     4  C   -0.133600
     5  C   -0.351804
     6  C    0.218235
     7  C   -0.351768
    13  N   -0.304492
    14  C   -0.222328
    18  C   -0.180134
 Electronic spatial extent (au):  <R**2>=           1796.4752
 Charge=             -0.0000 electrons
 Dipole moment (field-independent basis, Debye):
    X=             -0.3200    Y=             -0.0004    Z=              0.9222  Tot=              0.9762
 Unable to Open any file for archive entry.
 1\1\GINC-SE227\Stability\RHF\Aug-CC-pVDZ\C8H12B1N1\OHZDE\09-Apr-2025\0
 \\#t hf aug-cc-pvdz symm=none int=(grid=ultrafine) guess=(read,tcheck)
  stable=(opt,rrhf)\\title\\0,1\B,0,-2.208836,-0.000073,0.158484\C,0,0.
 333029,0.000229,-0.563164\C,0,1.018988,1.199584,-0.328724\C,0,1.018944
 ,-1.199311,-0.329541\C,0,2.3394,-1.202238,0.114815\C,0,3.006977,-0.000
 127,0.339777\C,0,2.339443,1.202161,0.115634\H,0,4.035792,-0.000262,0.6
 81713\H,0,2.848799,2.145305,0.282279\H,0,0.511282,2.143147,-0.503906\H
 ,0,0.511205,-2.142736,-0.505368\H,0,2.848722,-2.145514,0.280818\N,0,-1
 .801074,-0.000719,1.49342\C,0,-3.747717,0.000181,-0.214763\H,0,-4.0027
 6,-0.873512,-0.82644\H,0,-4.002688,0.874544,-0.825512\H,0,-4.414644,-0
 .000251,0.653348\C,0,-1.109378,0.000405,-1.004759\H,0,-1.303286,0.8704
 25,-1.645645\H,0,-1.303286,-0.869104,-1.646338\H,0,-2.44679,-0.001051,
 2.26756\H,0,-0.828771,-0.000893,1.765488\\Version=ES64L-G16RevC.01\HF=
 -389.1832002\RMSD=3.027e-09\Dipole=-0.1258804,-0.0001748,0.3628339\Qua
 drupole=-0.2121021,1.3928032,-1.1807011,0.0000037,0.4829675,0.0004629\
 PG=Unknown\\@
 The archive entry for this job was punched.


 WE STILL HAVE JUDGEMENT HERE,
 THAT WE TEACH BUT BLOODY INSTRUCTIONS,
 WHICH, BEING TAUGHT,
 RETURN TO PLAGUE THE INVENTOR.
           MACBETH ACT I, SCENE VII
 Job cpu time:       0 days  0 hours 30 minutes  9.9 seconds.
 Elapsed time:       0 days  0 hours  2 minutes  8.5 seconds.
 File lengths (MBytes):  RWF=    451 Int=      0 D2E=      0 Chk=     15 Scr=      1
 Normal termination of Gaussian 16 at Wed Apr  9 00:38:53 2025.
 Initial command:
 /arc/software/Gaussian/g16.c01/l1.exe "/tmp/slurm/4854304/Gau-4099681.inp" -scrdir="/tmp/slurm/4854304/"
 Entering Link 1 = /arc/software/Gaussian/g16.c01/l1.exe PID=   4099946.
  
 Copyright (c) 1988-2019, Gaussian, Inc.  All Rights Reserved.
  
 This is part of the Gaussian(R) 16 program.  It is based on
 the Gaussian(R) 09 system (copyright 2009, Gaussian, Inc.),
 the Gaussian(R) 03 system (copyright 2003, Gaussian, Inc.),
 the Gaussian(R) 98 system (copyright 1998, Gaussian, Inc.),
 the Gaussian(R) 94 system (copyright 1995, Gaussian, Inc.),
 the Gaussian 92(TM) system (copyright 1992, Gaussian, Inc.),
 the Gaussian 90(TM) system (copyright 1990, Gaussian, Inc.),
 the Gaussian 88(TM) system (copyright 1988, Gaussian, Inc.),
 the Gaussian 86(TM) system (copyright 1986, Carnegie Mellon
 University), and the Gaussian 82(TM) system (copyright 1983,
 Carnegie Mellon University). Gaussian is a federally registered
 trademark of Gaussian, Inc.
  
 This software contains proprietary and confidential information,
 including trade secrets, belonging to Gaussian, Inc.
  
 This software is provided under written license and may be
 used, copied, transmitted, or stored only in accord with that
 written license.
  
 The following legend is applicable only to US Government
 contracts under FAR:
  
                    RESTRICTED RIGHTS LEGEND
  
 Use, reproduction and disclosure by the US Government is
 subject to restrictions as set forth in subparagraphs (a)
 and (c) of the Commercial Computer Software - Restricted
 Rights clause in FAR 52.227-19.
  
 Gaussian, Inc.
 340 Quinnipiac St., Bldg. 40, Wallingford CT 06492
  
  
 ---------------------------------------------------------------
 Warning -- This program may not be used in any manner that
 competes with the business of Gaussian, Inc. or will provide
 assistance to any competitor of Gaussian, Inc.  The licensee
 of this program is prohibited from giving any competitor of
 Gaussian, Inc. access to this program.  By using this program,
 the user acknowledges that Gaussian, Inc. is engaged in the
 business of creating and licensing software in the field of
 computational chemistry and represents and warrants to the
 licensee that it is not a competitor of Gaussian, Inc. and that
 it will not use this program in any manner prohibited above.
 ---------------------------------------------------------------
  

 Cite this work as:
 Gaussian 16, Revision C.01,
 M. J. Frisch, G. W. Trucks, H. B. Schlegel, G. E. Scuseria, 
 M. A. Robb, J. R. Cheeseman, G. Scalmani, V. Barone, 
 G. A. Petersson, H. Nakatsuji, X. Li, M. Caricato, A. V. Marenich, 
 J. Bloino, B. G. Janesko, R. Gomperts, B. Mennucci, H. P. Hratchian, 
 J. V. Ortiz, A. F. Izmaylov, J. L. Sonnenberg, D. Williams-Young, 
 F. Ding, F. Lipparini, F. Egidi, J. Goings, B. Peng, A. Petrone, 
 T. Henderson, D. Ranasinghe, V. G. Zakrzewski, J. Gao, N. Rega, 
 G. Zheng, W. Liang, M. Hada, M. Ehara, K. Toyota, R. Fukuda, 
 J. Hasegawa, M. Ishida, T. Nakajima, Y. Honda, O. Kitao, H. Nakai, 
 T. Vreven, K. Throssell, J. A. Montgomery, Jr., J. E. Peralta, 
 F. Ogliaro, M. J. Bearpark, J. J. Heyd, E. N. Brothers, K. N. Kudin, 
 V. N. Staroverov, T. A. Keith, R. Kobayashi, J. Normand, 
 K. Raghavachari, A. P. Rendell, J. C. Burant, S. S. Iyengar, 
 J. Tomasi, M. Cossi, J. M. Millam, M. Klene, C. Adamo, R. Cammi, 
 J. W. Ochterski, R. L. Martin, K. Morokuma, O. Farkas, 
 J. B. Foresman, and D. J. Fox, Gaussian, Inc., Wallingford CT, 2019.
 
 ******************************************
 Gaussian 16:  ES64L-G16RevC.01  3-Jul-2019
                 9-Apr-2025 
 ******************************************
 %nprocs=16
 Will use up to   16 processors via shared memory.
 %mem=30GB
 %chk=BDE49_nonexpt_580_mol1.chk
 ----------------------------------------------------------------------
 #t hf aug-cc-pvdz iop(5/13=1,5/36=2,99/5=2) pseudo=read geom=check gue
 ss=(read,tcheck) scf=(maxcycle=1)
 ----------------------------------------------------------------------
 -----
 title
 -----
 Structure from the checkpoint file:  "BDE49_nonexpt_580_mol1.chk"
 Charge =  0 Multiplicity = 1
 Z-Matrix found in chk file.
 B,0,-2.208836,-0.000073,0.158484
 C,0,0.333029,0.000229,-0.563164
 C,0,1.018988,1.199584,-0.328724
 C,0,1.018944,-1.199311,-0.329541
 C,0,2.3394,-1.202238,0.114815
 C,0,3.006977,-0.000127,0.339777
 C,0,2.339443,1.202161,0.115634
 H,0,4.035792,-0.000262,0.681713
 H,0,2.848799,2.145305,0.282279
 H,0,0.511282,2.143147,-0.503906
 H,0,0.511205,-2.142736,-0.505368
 H,0,2.848722,-2.145514,0.280818
 N,0,-1.801074,-0.000719,1.49342
 C,0,-3.747717,0.000181,-0.214763
 H,0,-4.00276,-0.873512,-0.82644
 H,0,-4.002688,0.874544,-0.825512
 H,0,-4.414644,-0.000251,0.653348
 C,0,-1.109378,0.000405,-1.004759
 H,0,-1.303286,0.870425,-1.645645
 H,0,-1.303286,-0.869104,-1.646338
 H,0,-2.44679,-0.001051,2.26756
 H,0,-0.828771,-0.000893,1.765488
 Recover connectivity data from disk.
                    Distance matrix (angstroms):
                    1          2          3          4          5
     1  B    0.000000
     2  C    2.642320   0.000000
     3  C    3.477844   1.401412   0.000000
     4  C    3.477773   1.401412   2.398895   0.000000
     5  C    4.704632   2.435386   2.776502   1.393221   0.000000
     6  C    5.218963   2.822286   2.416258   2.416258   1.393319
     7  C    4.704683   2.435386   1.393220   2.776503   2.404399
     8  H    6.266510   3.906427   3.400253   3.400254   2.154963
     9  H    5.495238   3.412510   2.148469   3.861237   3.390218
    10  H    3.525790   2.151135   1.085710   3.385284   3.862180
    11  H    3.525667   2.151136   3.385284   1.085709   2.147431
    12  H    5.495159   3.412511   3.861237   2.148471   1.084774
    13  N    1.395824   2.963770   3.565626   3.565433   4.526337
    14  C    1.583499   4.095592   4.916608   4.916606   6.213487
    15  H    2.225114   4.430779   5.455584   5.056735   6.420048
    16  H    2.225109   4.430767   5.056647   5.455607   6.739386
    17  H    2.260637   4.901051   5.650524   5.650460   6.881272
    18  C    1.600607   1.508491   2.534757   2.534757   3.820192
    19  H    2.198333   2.146284   2.689904   3.377675   4.545802
    20  H    2.198322   2.146283   3.377652   2.689934   4.059778
    21  H    2.122457   3.967416   4.493755   4.493559   5.383751
    22  H    2.118264   2.602384   3.039915   3.039639   3.768986
                    6          7          8          9         10
     6  C    0.000000
     7  C    1.393319   0.000000
     8  H    1.084150   2.154963   0.000000
     9  H    2.152023   1.084774   2.484342   0.000000
    10  H    3.396162   2.147430   4.292093   2.466187   0.000000
    11  H    3.396163   3.862180   4.292094   4.946921   4.285883
    12  H    2.152024   3.390218   2.484343   4.290819   4.946921
    13  N    4.944517   4.526488   5.893036   5.262471   3.732621
    14  C    6.777419   6.213488   7.834965   6.954325   4.776503
    15  H    7.159558   6.739396   8.225291   7.568776   5.438827
    16  H    7.159494   6.419947   8.225216   7.055842   4.699863
    17  H    7.428242   6.881324   8.450484   7.582790   5.495283
    18  C    4.330376   3.820192   5.414514   4.682331   2.732899
    19  H    4.824741   4.059757   5.889011   4.752054   2.493200
    20  H    4.824743   4.545785   5.889012   5.481426   3.697494
    21  H    5.784455   5.383914   6.673738   6.049087   4.585717
    22  H    4.092141   3.769209   4.983828   4.508946   3.397469
                   11         12         13         14         15
    11  H    0.000000
    12  H    2.466188   0.000000
    13  N    3.732295   5.262238   0.000000
    14  C    4.776501   6.954323   2.589847   0.000000
    15  H    4.699989   7.055977   3.315259   1.096602   0.000000
    16  H    5.438906   7.568787   3.315213   1.096602   1.748056
    17  H    5.495166   7.582705   2.745263   1.094718   1.766920
    18  C    2.732898   4.682332   2.592170   2.754075   3.027736
    19  H    3.697533   5.481452   3.295514   2.963105   3.316560
    20  H    2.493257   4.752086   3.295446   2.963158   2.821243
    21  H    4.585377   6.048827   1.008088   2.802560   3.571424
    22  H    3.397030   4.508614   1.009651   3.527271   4.189721
                   16         17         18         19         20
    16  H    0.000000
    17  H    1.766918   0.000000
    18  C    3.027787   3.697851   0.000000
    19  H    2.821242   3.965349   1.097848   0.000000
    20  H    3.316751   3.965351   1.097848   1.739529   0.000000
    21  H    3.571355   2.545217   3.535073   4.168962   4.168899
    22  H    4.189680   3.754376   2.784423   3.552490   3.552395
                   21         22
    21  H    0.000000
    22  H    1.694126   0.000000
 Framework group  C1[X(C8H12BN)]
 Deg. of freedom    60
                         Standard orientation:                         
 ---------------------------------------------------------------------
 Center     Atomic      Atomic             Coordinates (Angstroms)
 Number     Number       Type             X           Y           Z
 ---------------------------------------------------------------------
      1          5           0       -2.208836   -0.000073    0.158484
      2          6           0        0.333029    0.000229   -0.563164
      3          6           0        1.018988    1.199584   -0.328724
      4          6           0        1.018944   -1.199311   -0.329541
      5          6           0        2.339400   -1.202238    0.114815
      6          6           0        3.006977   -0.000127    0.339777
      7          6           0        2.339443    1.202161    0.115634
      8          1           0        4.035792   -0.000262    0.681713
      9          1           0        2.848799    2.145305    0.282279
     10          1           0        0.511282    2.143147   -0.503906
     11          1           0        0.511205   -2.142736   -0.505368
     12          1           0        2.848722   -2.145514    0.280818
     13          7           0       -1.801074   -0.000719    1.493420
     14          6           0       -3.747717    0.000181   -0.214763
     15          1           0       -4.002760   -0.873512   -0.826440
     16          1           0       -4.002688    0.874544   -0.825512
     17          1           0       -4.414644   -0.000251    0.653348
     18          6           0       -1.109378    0.000405   -1.004759
     19          1           0       -1.303286    0.870425   -1.645645
     20          1           0       -1.303286   -0.869104   -1.646338
     21          1           0       -2.446790   -0.001051    2.267560
     22          1           0       -0.828771   -0.000893    1.765488
 ---------------------------------------------------------------------
 Rotational constants (GHZ):           3.1629061           0.7090573           0.6879727
 ======================================================================================================
                                       Pseudopotential Parameters
 ======================================================================================================
  Center     Atomic      Valence      Angular      Power
  Number     Number     Electrons     Momentum     of R      Exponent        Coefficient   SO-Coeffient
 ======================================================================================================
    1          5            5
                                      G and up 
                                                     0        0.0000010       -0.00003285    0.00000000
                                                     2        0.1200000        0.02009075    0.00000000
                                                     2        0.1400000       -0.05866979    0.00000000
                                                     2        0.1800000        0.09995788    0.00000000
                                                     2        0.2400000       -0.11795078    0.00000000
                                                     2        0.4000000        0.15024519    0.00000000
                                                     2        0.7000000       -0.33885613    0.00000000
                                                     2        1.7000000        0.21467576    0.00000000
                                      S - G
                                                     0        0.0000010       -0.00100850    0.00000000
                                                     2        0.1200000       -0.13105755    0.00000000
                                                     2        0.1800000        0.21911891    0.00000000
                                      P - G
                                                     0        0.0000010        0.06216691    0.00000000
                                                     2        0.1200000       -0.01035601    0.00000000
                                                     2        0.1600000        0.01974098    0.00000000
                                                     2        0.2600000       -0.03556758    0.00000000
                                      D - G
                                                     0        0.0000010        0.03724396    0.00000000
                                                     2        0.1200000       -0.16834167    0.00000000
                                                     2        0.1800000        0.42333345    0.00000000
                                                     2        0.4000000       -1.11304036    0.00000000
                                                     2        0.7000000        1.72162222    0.00000000
                                      F - G
                                                     0        0.0000010       -0.04974272    0.00000000
                                                     2        0.1200000        0.10484788    0.00000000
                                                     2        0.1600000       -0.14333884    0.00000000
                                                     2        0.2800000       -0.09166252    0.00000000
                                                     2        0.5000000        0.53351878    0.00000000
    2          6            6
                                      G and up 
                                                     0        0.0000010       -0.00011185    0.00000000
                                                     2        0.1200000       -0.02301220    0.00000000
                                                     2        0.1400000        0.13317600    0.00000000
                                                     2        0.1600000       -0.19690668    0.00000000
                                                     2        0.2200000        0.23163694    0.00000000
                                                     2        0.3000000       -0.36920489    0.00000000
                                                     2        0.4000000        0.36389709    0.00000000
                                                     2        0.7000000       -0.38862160    0.00000000
                                                     2        1.3000000        0.80803421    0.00000000
                                      S - G
                                                     0        0.0000010        0.00312304    0.00000000
                                                     2        0.1200000       -0.00632892    0.00000000
                                                     2        0.2200000       -0.03780897    0.00000000
                                                     2        0.4000000        0.26269560    0.00000000
                                                     2        0.9000000       -0.28209514    0.00000000
                                                     2        1.5000000       -0.72686737    0.00000000
                                      P - G
                                                     0        0.0000010       -0.01465594    0.00000000
                                                     2        0.1200000        0.07908409    0.00000000
                                                     2        0.1800000       -0.30615861    0.00000000
                                                     2        0.2600000        0.41506950    0.00000000
                                                     2        0.5000000       -0.36252345    0.00000000
                                                     2        0.9000000        0.15124193    0.00000000
                                                     2        3.0000000       -0.80425677    0.00000000
                                      D - G
                                                     0        0.0000010        0.01149631    0.00000000
                                                     2        0.1200000       -0.04713561    0.00000000
                                                     2        0.1600000        0.10865096    0.00000000
                                                     2        0.2800000       -0.15816701    0.00000000
                                                     2        0.7000000        0.65478804    0.00000000
                                                     2        1.3000000       -1.73816624    0.00000000
                                      F - G
                                                     0        0.0000010        0.00481868    0.00000000
                                                     2        0.1200000       -0.04746842    0.00000000
                                                     2        0.1600000        0.09327889    0.00000000
                                                     2        0.4000000       -0.19693326    0.00000000
                                                     2        0.9000000        0.34938253    0.00000000
    3          6            6
                                      G and up 
                                                     0        0.0000010       -0.00011185    0.00000000
                                                     2        0.1200000       -0.02301220    0.00000000
                                                     2        0.1400000        0.13317600    0.00000000
                                                     2        0.1600000       -0.19690668    0.00000000
                                                     2        0.2200000        0.23163694    0.00000000
                                                     2        0.3000000       -0.36920489    0.00000000
                                                     2        0.4000000        0.36389709    0.00000000
                                                     2        0.7000000       -0.38862160    0.00000000
                                                     2        1.3000000        0.80803421    0.00000000
                                      S - G
                                                     0        0.0000010        0.00312304    0.00000000
                                                     2        0.1200000       -0.00632892    0.00000000
                                                     2        0.2200000       -0.03780897    0.00000000
                                                     2        0.4000000        0.26269560    0.00000000
                                                     2        0.9000000       -0.28209514    0.00000000
                                                     2        1.5000000       -0.72686737    0.00000000
                                      P - G
                                                     0        0.0000010       -0.01465594    0.00000000
                                                     2        0.1200000        0.07908409    0.00000000
                                                     2        0.1800000       -0.30615861    0.00000000
                                                     2        0.2600000        0.41506950    0.00000000
                                                     2        0.5000000       -0.36252345    0.00000000
                                                     2        0.9000000        0.15124193    0.00000000
                                                     2        3.0000000       -0.80425677    0.00000000
                                      D - G
                                                     0        0.0000010        0.01149631    0.00000000
                                                     2        0.1200000       -0.04713561    0.00000000
                                                     2        0.1600000        0.10865096    0.00000000
                                                     2        0.2800000       -0.15816701    0.00000000
                                                     2        0.7000000        0.65478804    0.00000000
                                                     2        1.3000000       -1.73816624    0.00000000
                                      F - G
                                                     0        0.0000010        0.00481868    0.00000000
                                                     2        0.1200000       -0.04746842    0.00000000
                                                     2        0.1600000        0.09327889    0.00000000
                                                     2        0.4000000       -0.19693326    0.00000000
                                                     2        0.9000000        0.34938253    0.00000000
    4          6            6
                                      G and up 
                                                     0        0.0000010       -0.00011185    0.00000000
                                                     2        0.1200000       -0.02301220    0.00000000
                                                     2        0.1400000        0.13317600    0.00000000
                                                     2        0.1600000       -0.19690668    0.00000000
                                                     2        0.2200000        0.23163694    0.00000000
                                                     2        0.3000000       -0.36920489    0.00000000
                                                     2        0.4000000        0.36389709    0.00000000
                                                     2        0.7000000       -0.38862160    0.00000000
                                                     2        1.3000000        0.80803421    0.00000000
                                      S - G
                                                     0        0.0000010        0.00312304    0.00000000
                                                     2        0.1200000       -0.00632892    0.00000000
                                                     2        0.2200000       -0.03780897    0.00000000
                                                     2        0.4000000        0.26269560    0.00000000
                                                     2        0.9000000       -0.28209514    0.00000000
                                                     2        1.5000000       -0.72686737    0.00000000
                                      P - G
                                                     0        0.0000010       -0.01465594    0.00000000
                                                     2        0.1200000        0.07908409    0.00000000
                                                     2        0.1800000       -0.30615861    0.00000000
                                                     2        0.2600000        0.41506950    0.00000000
                                                     2        0.5000000       -0.36252345    0.00000000
                                                     2        0.9000000        0.15124193    0.00000000
                                                     2        3.0000000       -0.80425677    0.00000000
                                      D - G
                                                     0        0.0000010        0.01149631    0.00000000
                                                     2        0.1200000       -0.04713561    0.00000000
                                                     2        0.1600000        0.10865096    0.00000000
                                                     2        0.2800000       -0.15816701    0.00000000
                                                     2        0.7000000        0.65478804    0.00000000
                                                     2        1.3000000       -1.73816624    0.00000000
                                      F - G
                                                     0        0.0000010        0.00481868    0.00000000
                                                     2        0.1200000       -0.04746842    0.00000000
                                                     2        0.1600000        0.09327889    0.00000000
                                                     2        0.4000000       -0.19693326    0.00000000
                                                     2        0.9000000        0.34938253    0.00000000
    5          6            6
                                      G and up 
                                                     0        0.0000010       -0.00011185    0.00000000
                                                     2        0.1200000       -0.02301220    0.00000000
                                                     2        0.1400000        0.13317600    0.00000000
                                                     2        0.1600000       -0.19690668    0.00000000
                                                     2        0.2200000        0.23163694    0.00000000
                                                     2        0.3000000       -0.36920489    0.00000000
                                                     2        0.4000000        0.36389709    0.00000000
                                                     2        0.7000000       -0.38862160    0.00000000
                                                     2        1.3000000        0.80803421    0.00000000
                                      S - G
                                                     0        0.0000010        0.00312304    0.00000000
                                                     2        0.1200000       -0.00632892    0.00000000
                                                     2        0.2200000       -0.03780897    0.00000000
                                                     2        0.4000000        0.26269560    0.00000000
                                                     2        0.9000000       -0.28209514    0.00000000
                                                     2        1.5000000       -0.72686737    0.00000000
                                      P - G
                                                     0        0.0000010       -0.01465594    0.00000000
                                                     2        0.1200000        0.07908409    0.00000000
                                                     2        0.1800000       -0.30615861    0.00000000
                                                     2        0.2600000        0.41506950    0.00000000
                                                     2        0.5000000       -0.36252345    0.00000000
                                                     2        0.9000000        0.15124193    0.00000000
                                                     2        3.0000000       -0.80425677    0.00000000
                                      D - G
                                                     0        0.0000010        0.01149631    0.00000000
                                                     2        0.1200000       -0.04713561    0.00000000
                                                     2        0.1600000        0.10865096    0.00000000
                                                     2        0.2800000       -0.15816701    0.00000000
                                                     2        0.7000000        0.65478804    0.00000000
                                                     2        1.3000000       -1.73816624    0.00000000
                                      F - G
                                                     0        0.0000010        0.00481868    0.00000000
                                                     2        0.1200000       -0.04746842    0.00000000
                                                     2        0.1600000        0.09327889    0.00000000
                                                     2        0.4000000       -0.19693326    0.00000000
                                                     2        0.9000000        0.34938253    0.00000000
    6          6            6
                                      G and up 
                                                     0        0.0000010       -0.00011185    0.00000000
                                                     2        0.1200000       -0.02301220    0.00000000
                                                     2        0.1400000        0.13317600    0.00000000
                                                     2        0.1600000       -0.19690668    0.00000000
                                                     2        0.2200000        0.23163694    0.00000000
                                                     2        0.3000000       -0.36920489    0.00000000
                                                     2        0.4000000        0.36389709    0.00000000
                                                     2        0.7000000       -0.38862160    0.00000000
                                                     2        1.3000000        0.80803421    0.00000000
                                      S - G
                                                     0        0.0000010        0.00312304    0.00000000
                                                     2        0.1200000       -0.00632892    0.00000000
                                                     2        0.2200000       -0.03780897    0.00000000
                                                     2        0.4000000        0.26269560    0.00000000
                                                     2        0.9000000       -0.28209514    0.00000000
                                                     2        1.5000000       -0.72686737    0.00000000
                                      P - G
                                                     0        0.0000010       -0.01465594    0.00000000
                                                     2        0.1200000        0.07908409    0.00000000
                                                     2        0.1800000       -0.30615861    0.00000000
                                                     2        0.2600000        0.41506950    0.00000000
                                                     2        0.5000000       -0.36252345    0.00000000
                                                     2        0.9000000        0.15124193    0.00000000
                                                     2        3.0000000       -0.80425677    0.00000000
                                      D - G
                                                     0        0.0000010        0.01149631    0.00000000
                                                     2        0.1200000       -0.04713561    0.00000000
                                                     2        0.1600000        0.10865096    0.00000000
                                                     2        0.2800000       -0.15816701    0.00000000
                                                     2        0.7000000        0.65478804    0.00000000
                                                     2        1.3000000       -1.73816624    0.00000000
                                      F - G
                                                     0        0.0000010        0.00481868    0.00000000
                                                     2        0.1200000       -0.04746842    0.00000000
                                                     2        0.1600000        0.09327889    0.00000000
                                                     2        0.4000000       -0.19693326    0.00000000
                                                     2        0.9000000        0.34938253    0.00000000
    7          6            6
                                      G and up 
                                                     0        0.0000010       -0.00011185    0.00000000
                                                     2        0.1200000       -0.02301220    0.00000000
                                                     2        0.1400000        0.13317600    0.00000000
                                                     2        0.1600000       -0.19690668    0.00000000
                                                     2        0.2200000        0.23163694    0.00000000
                                                     2        0.3000000       -0.36920489    0.00000000
                                                     2        0.4000000        0.36389709    0.00000000
                                                     2        0.7000000       -0.38862160    0.00000000
                                                     2        1.3000000        0.80803421    0.00000000
                                      S - G
                                                     0        0.0000010        0.00312304    0.00000000
                                                     2        0.1200000       -0.00632892    0.00000000
                                                     2        0.2200000       -0.03780897    0.00000000
                                                     2        0.4000000        0.26269560    0.00000000
                                                     2        0.9000000       -0.28209514    0.00000000
                                                     2        1.5000000       -0.72686737    0.00000000
                                      P - G
                                                     0        0.0000010       -0.01465594    0.00000000
                                                     2        0.1200000        0.07908409    0.00000000
                                                     2        0.1800000       -0.30615861    0.00000000
                                                     2        0.2600000        0.41506950    0.00000000
                                                     2        0.5000000       -0.36252345    0.00000000
                                                     2        0.9000000        0.15124193    0.00000000
                                                     2        3.0000000       -0.80425677    0.00000000
                                      D - G
                                                     0        0.0000010        0.01149631    0.00000000
                                                     2        0.1200000       -0.04713561    0.00000000
                                                     2        0.1600000        0.10865096    0.00000000
                                                     2        0.2800000       -0.15816701    0.00000000
                                                     2        0.7000000        0.65478804    0.00000000
                                                     2        1.3000000       -1.73816624    0.00000000
                                      F - G
                                                     0        0.0000010        0.00481868    0.00000000
                                                     2        0.1200000       -0.04746842    0.00000000
                                                     2        0.1600000        0.09327889    0.00000000
                                                     2        0.4000000       -0.19693326    0.00000000
                                                     2        0.9000000        0.34938253    0.00000000
    8          1            1
                                      F and up 
                                                     0        0.0000010       -0.00000699    0.00000000
                                                     2        0.1200000        0.00123686    0.00000000
                                                     2        0.1800000       -0.00752022    0.00000000
                                                     2        0.2600000        0.02503380    0.00000000
                                                     2        0.4000000       -0.08702670    0.00000000
                                                     2        0.6000000        0.30134159    0.00000000
                                                     2        0.8000000       -0.50204959    0.00000000
                                                     2        1.2000000        0.52208372    0.00000000
                                      S - F
                                                     0        0.0000010       -0.01618346    0.00000000
                                                     2        0.1200000       -0.07880581    0.00000000
                                                     2        0.1600000        0.32040539    0.00000000
                                                     2        0.2400000       -0.47500956    0.00000000
                                                     2        0.5000000        0.54013668    0.00000000
                                                     2        1.5000000       -1.40434292    0.00000000
                                                     2        3.0000000        1.46283806    0.00000000
                                      P - F
                                                     0        0.0000010        0.00612970    0.00000000
                                                     2        0.1200000        0.02254406    0.00000000
                                                     2        0.1800000       -0.13874529    0.00000000
                                                     2        0.3000000        0.38299049    0.00000000
                                                     2        0.5000000       -0.57923512    0.00000000
                                                     2        1.0000000        0.63021625    0.00000000
                                                     2        2.0000000       -0.79201034    0.00000000
                                      D - F
                                                     0        0.0000010       -0.00296226    0.00000000
                                                     2        0.1200000       -0.00547344    0.00000000
                                                     2        0.1400000        0.01837884    0.00000000
                                                     2        0.2400000       -0.05565704    0.00000000
                                                     2        0.4000000        0.15376597    0.00000000
                                                     2        0.8000000       -0.32464795    0.00000000
    9          1            1
                                      F and up 
                                                     0        0.0000010       -0.00000699    0.00000000
                                                     2        0.1200000        0.00123686    0.00000000
                                                     2        0.1800000       -0.00752022    0.00000000
                                                     2        0.2600000        0.02503380    0.00000000
                                                     2        0.4000000       -0.08702670    0.00000000
                                                     2        0.6000000        0.30134159    0.00000000
                                                     2        0.8000000       -0.50204959    0.00000000
                                                     2        1.2000000        0.52208372    0.00000000
                                      S - F
                                                     0        0.0000010       -0.01618346    0.00000000
                                                     2        0.1200000       -0.07880581    0.00000000
                                                     2        0.1600000        0.32040539    0.00000000
                                                     2        0.2400000       -0.47500956    0.00000000
                                                     2        0.5000000        0.54013668    0.00000000
                                                     2        1.5000000       -1.40434292    0.00000000
                                                     2        3.0000000        1.46283806    0.00000000
                                      P - F
                                                     0        0.0000010        0.00612970    0.00000000
                                                     2        0.1200000        0.02254406    0.00000000
                                                     2        0.1800000       -0.13874529    0.00000000
                                                     2        0.3000000        0.38299049    0.00000000
                                                     2        0.5000000       -0.57923512    0.00000000
                                                     2        1.0000000        0.63021625    0.00000000
                                                     2        2.0000000       -0.79201034    0.00000000
                                      D - F
                                                     0        0.0000010       -0.00296226    0.00000000
                                                     2        0.1200000       -0.00547344    0.00000000
                                                     2        0.1400000        0.01837884    0.00000000
                                                     2        0.2400000       -0.05565704    0.00000000
                                                     2        0.4000000        0.15376597    0.00000000
                                                     2        0.8000000       -0.32464795    0.00000000
   10          1            1
                                      F and up 
                                                     0        0.0000010       -0.00000699    0.00000000
                                                     2        0.1200000        0.00123686    0.00000000
                                                     2        0.1800000       -0.00752022    0.00000000
                                                     2        0.2600000        0.02503380    0.00000000
                                                     2        0.4000000       -0.08702670    0.00000000
                                                     2        0.6000000        0.30134159    0.00000000
                                                     2        0.8000000       -0.50204959    0.00000000
                                                     2        1.2000000        0.52208372    0.00000000
                                      S - F
                                                     0        0.0000010       -0.01618346    0.00000000
                                                     2        0.1200000       -0.07880581    0.00000000
                                                     2        0.1600000        0.32040539    0.00000000
                                                     2        0.2400000       -0.47500956    0.00000000
                                                     2        0.5000000        0.54013668    0.00000000
                                                     2        1.5000000       -1.40434292    0.00000000
                                                     2        3.0000000        1.46283806    0.00000000
                                      P - F
                                                     0        0.0000010        0.00612970    0.00000000
                                                     2        0.1200000        0.02254406    0.00000000
                                                     2        0.1800000       -0.13874529    0.00000000
                                                     2        0.3000000        0.38299049    0.00000000
                                                     2        0.5000000       -0.57923512    0.00000000
                                                     2        1.0000000        0.63021625    0.00000000
                                                     2        2.0000000       -0.79201034    0.00000000
                                      D - F
                                                     0        0.0000010       -0.00296226    0.00000000
                                                     2        0.1200000       -0.00547344    0.00000000
                                                     2        0.1400000        0.01837884    0.00000000
                                                     2        0.2400000       -0.05565704    0.00000000
                                                     2        0.4000000        0.15376597    0.00000000
                                                     2        0.8000000       -0.32464795    0.00000000
   11          1            1
                                      F and up 
                                                     0        0.0000010       -0.00000699    0.00000000
                                                     2        0.1200000        0.00123686    0.00000000
                                                     2        0.1800000       -0.00752022    0.00000000
                                                     2        0.2600000        0.02503380    0.00000000
                                                     2        0.4000000       -0.08702670    0.00000000
                                                     2        0.6000000        0.30134159    0.00000000
                                                     2        0.8000000       -0.50204959    0.00000000
                                                     2        1.2000000        0.52208372    0.00000000
                                      S - F
                                                     0        0.0000010       -0.01618346    0.00000000
                                                     2        0.1200000       -0.07880581    0.00000000
                                                     2        0.1600000        0.32040539    0.00000000
                                                     2        0.2400000       -0.47500956    0.00000000
                                                     2        0.5000000        0.54013668    0.00000000
                                                     2        1.5000000       -1.40434292    0.00000000
                                                     2        3.0000000        1.46283806    0.00000000
                                      P - F
                                                     0        0.0000010        0.00612970    0.00000000
                                                     2        0.1200000        0.02254406    0.00000000
                                                     2        0.1800000       -0.13874529    0.00000000
                                                     2        0.3000000        0.38299049    0.00000000
                                                     2        0.5000000       -0.57923512    0.00000000
                                                     2        1.0000000        0.63021625    0.00000000
                                                     2        2.0000000       -0.79201034    0.00000000
                                      D - F
                                                     0        0.0000010       -0.00296226    0.00000000
                                                     2        0.1200000       -0.00547344    0.00000000
                                                     2        0.1400000        0.01837884    0.00000000
                                                     2        0.2400000       -0.05565704    0.00000000
                                                     2        0.4000000        0.15376597    0.00000000
                                                     2        0.8000000       -0.32464795    0.00000000
   12          1            1
                                      F and up 
                                                     0        0.0000010       -0.00000699    0.00000000
                                                     2        0.1200000        0.00123686    0.00000000
                                                     2        0.1800000       -0.00752022    0.00000000
                                                     2        0.2600000        0.02503380    0.00000000
                                                     2        0.4000000       -0.08702670    0.00000000
                                                     2        0.6000000        0.30134159    0.00000000
                                                     2        0.8000000       -0.50204959    0.00000000
                                                     2        1.2000000        0.52208372    0.00000000
                                      S - F
                                                     0        0.0000010       -0.01618346    0.00000000
                                                     2        0.1200000       -0.07880581    0.00000000
                                                     2        0.1600000        0.32040539    0.00000000
                                                     2        0.2400000       -0.47500956    0.00000000
                                                     2        0.5000000        0.54013668    0.00000000
                                                     2        1.5000000       -1.40434292    0.00000000
                                                     2        3.0000000        1.46283806    0.00000000
                                      P - F
                                                     0        0.0000010        0.00612970    0.00000000
                                                     2        0.1200000        0.02254406    0.00000000
                                                     2        0.1800000       -0.13874529    0.00000000
                                                     2        0.3000000        0.38299049    0.00000000
                                                     2        0.5000000       -0.57923512    0.00000000
                                                     2        1.0000000        0.63021625    0.00000000
                                                     2        2.0000000       -0.79201034    0.00000000
                                      D - F
                                                     0        0.0000010       -0.00296226    0.00000000
                                                     2        0.1200000       -0.00547344    0.00000000
                                                     2        0.1400000        0.01837884    0.00000000
                                                     2        0.2400000       -0.05565704    0.00000000
                                                     2        0.4000000        0.15376597    0.00000000
                                                     2        0.8000000       -0.32464795    0.00000000
   13          7            7
                                      G and up 
                                                     0        0.0000010       -0.00000022    0.00000000
                                                     2        0.1200000       -0.00992020    0.00000000
                                                     2        0.1400000        0.02578711    0.00000000
                                                     2        0.2200000       -0.10543517    0.00000000
                                                     2        0.3000000        0.23013665    0.00000000
                                                     2        0.5000000       -0.60834094    0.00000000
                                                     2        0.8000000        1.81436815    0.00000000
                                                     2        1.2000000       -3.87539738    0.00000000
                                                     2        2.0000000        2.94656640    0.00000000
                                      S - G
                                                     0        0.0000010       -0.00223566    0.00000000
                                                     2        0.1200000        0.45247937    0.00000000
[...]
                                                     2        0.4000000       -0.08702670    0.00000000
                                                     2        0.6000000        0.30134159    0.00000000
                                                     2        0.8000000       -0.50204959    0.00000000
                                                     2        1.2000000        0.52208372    0.00000000
                                      S - F
                                                     0        0.0000010       -0.01618346    0.00000000
                                                     2        0.1200000       -0.07880581    0.00000000
                                                     2        0.1600000        0.32040539    0.00000000
                                                     2        0.2400000       -0.47500956    0.00000000
                                                     2        0.5000000        0.54013668    0.00000000
                                                     2        1.5000000       -1.40434292    0.00000000
                                                     2        3.0000000        1.46283806    0.00000000
                                      P - F
                                                     0        0.0000010        0.00612970    0.00000000
                                                     2        0.1200000        0.02254406    0.00000000
                                                     2        0.1800000       -0.13874529    0.00000000
                                                     2        0.3000000        0.38299049    0.00000000
                                                     2        0.5000000       -0.57923512    0.00000000
                                                     2        1.0000000        0.63021625    0.00000000
                                                     2        2.0000000       -0.79201034    0.00000000
                                      D - F
                                                     0        0.0000010       -0.00296226    0.00000000
                                                     2        0.1200000       -0.00547344    0.00000000
                                                     2        0.1400000        0.01837884    0.00000000
                                                     2        0.2400000       -0.05565704    0.00000000
                                                     2        0.4000000        0.15376597    0.00000000
                                                     2        0.8000000       -0.32464795    0.00000000
   21          1            1
                                      F and up 
                                                     0        0.0000010       -0.00000699    0.00000000
                                                     2        0.1200000        0.00123686    0.00000000
                                                     2        0.1800000       -0.00752022    0.00000000
                                                     2        0.2600000        0.02503380    0.00000000
                                                     2        0.4000000       -0.08702670    0.00000000
                                                     2        0.6000000        0.30134159    0.00000000
                                                     2        0.8000000       -0.50204959    0.00000000
                                                     2        1.2000000        0.52208372    0.00000000
                                      S - F
                                                     0        0.0000010       -0.01618346    0.00000000
                                                     2        0.1200000       -0.07880581    0.00000000
                                                     2        0.1600000        0.32040539    0.00000000
                                                     2        0.2400000       -0.47500956    0.00000000
                                                     2        0.5000000        0.54013668    0.00000000
                                                     2        1.5000000       -1.40434292    0.00000000
                                                     2        3.0000000        1.46283806    0.00000000
                                      P - F
                                                     0        0.0000010        0.00612970    0.00000000
                                                     2        0.1200000        0.02254406    0.00000000
                                                     2        0.1800000       -0.13874529    0.00000000
                                                     2        0.3000000        0.38299049    0.00000000
                                                     2        0.5000000       -0.57923512    0.00000000
                                                     2        1.0000000        0.63021625    0.00000000
                                                     2        2.0000000       -0.79201034    0.00000000
                                      D - F
                                                     0        0.0000010       -0.00296226    0.00000000
                                                     2        0.1200000       -0.00547344    0.00000000
                                                     2        0.1400000        0.01837884    0.00000000
                                                     2        0.2400000       -0.05565704    0.00000000
                                                     2        0.4000000        0.15376597    0.00000000
                                                     2        0.8000000       -0.32464795    0.00000000
   22          1            1
                                      F and up 
                                                     0        0.0000010       -0.00000699    0.00000000
                                                     2        0.1200000        0.00123686    0.00000000
                                                     2        0.1800000       -0.00752022    0.00000000
                                                     2        0.2600000        0.02503380    0.00000000
                                                     2        0.4000000       -0.08702670    0.00000000
                                                     2        0.6000000        0.30134159    0.00000000
                                                     2        0.8000000       -0.50204959    0.00000000
                                                     2        1.2000000        0.52208372    0.00000000
                                      S - F
                                                     0        0.0000010       -0.01618346    0.00000000
                                                     2        0.1200000       -0.07880581    0.00000000
                                                     2        0.1600000        0.32040539    0.00000000
                                                     2        0.2400000       -0.47500956    0.00000000
                                                     2        0.5000000        0.54013668    0.00000000
                                                     2        1.5000000       -1.40434292    0.00000000
                                                     2        3.0000000        1.46283806    0.00000000
                                      P - F
                                                     0        0.0000010        0.00612970    0.00000000
                                                     2        0.1200000        0.02254406    0.00000000
                                                     2        0.1800000       -0.13874529    0.00000000
                                                     2        0.3000000        0.38299049    0.00000000
                                                     2        0.5000000       -0.57923512    0.00000000
                                                     2        1.0000000        0.63021625    0.00000000
                                                     2        2.0000000       -0.79201034    0.00000000
                                      D - F
                                                     0        0.0000010       -0.00296226    0.00000000
                                                     2        0.1200000       -0.00547344    0.00000000
                                                     2        0.1400000        0.01837884    0.00000000
                                                     2        0.2400000       -0.05565704    0.00000000
                                                     2        0.4000000        0.15376597    0.00000000
                                                     2        0.8000000       -0.32464795    0.00000000
 ======================================================================================================
   338 basis functions,   562 primitive gaussians,   358 cartesian basis functions
    36 alpha electrons       36 beta electrons
       nuclear repulsion energy       471.5876347856 Hartrees.
 NAtoms=   22 NActive=   22 NUniq=   22 SFac= 1.00D+00 NAtFMM=   60 NAOKFM=F Big=F
   1 Symmetry operations used in ECPInt.
 ECPInt:  NShTT=   11325 NPrTT=   49941 LenC2=   11218 LenP2D=   37142.
 LDataN:  DoStor=T MaxTD1= 6 Len=  172
 Initial guess from the checkpoint file:  "BDE49_nonexpt_580_mol1.chk"
 B after Tr=     0.000000   -0.000000   -0.000000
         Rot=    1.000000   -0.000000   -0.000000    0.000000 Ang=   0.00 deg.
 >>>>>>>>>> Convergence criterion not met.
 SCF Done:  E(RHF) =  -389.300773231     A.U. after    2 cycles
            NFock=  1  Conv=0.88D-02     -V/T= 2.0016

 **********************************************************************

            Population analysis using the SCF Density.

 **********************************************************************

 Orbital symmetries:
       Occupied  (A) (A) (A) (A) (A) (A) (A) (A) (A) (A) (A) (A)
                 (A) (A) (A) (A) (A) (A) (A) (A) (A) (A) (A) (A)
                 (A) (A) (A) (A) (A) (A) (A) (A) (A) (A) (A) (A)
       Virtual   (A) (A) (A) (A) (A) (A) (A) (A) (A) (A) (A) (A)
                 (A) (A) (A) (A) (A) (A) (A) (A) (A) (A) (A) (A)
                 (A) (A) (A) (A) (A) (A) (A) (A) (A) (A) (A) (A)
                 (A) (A) (A) (A) (A) (A) (A) (A) (A) (A) (A) (A)
                 (A) (A) (A) (A) (A) (A) (A) (A) (A) (A) (A) (A)
                 (A) (A) (A) (A) (A) (A) (A) (A) (A) (A) (A) (A)
                 (A) (A) (A) (A) (A) (A) (A) (A) (A) (A) (A) (A)
                 (A) (A) (A) (A) (A) (A) (A) (A) (A) (A) (A) (A)
                 (A) (A) (A) (A) (A) (A) (A) (A) (A) (A) (A) (A)
                 (A) (A) (A) (A) (A) (A) (A) (A) (A) (A) (A) (A)
                 (A) (A) (A) (A) (A) (A) (A) (A) (A) (A) (A) (A)
                 (A) (A) (A) (A) (A) (A) (A) (A) (A) (A) (A) (A)
                 (A) (A) (A) (A) (A) (A) (A) (A) (A) (A) (A) (A)
                 (A) (A) (A) (A) (A) (A) (A) (A) (A) (A) (A) (A)
                 (A) (A) (A) (A) (A) (A) (A) (A) (A) (A) (A) (A)
                 (A) (A) (A) (A) (A) (A) (A) (A) (A) (A) (A) (A)
                 (A) (A) (A) (A) (A) (A) (A) (A) (A) (A) (A) (A)
                 (A) (A) (A) (A) (A) (A) (A) (A) (A) (A) (A) (A)
                 (A) (A) (A) (A) (A) (A) (A) (A) (A) (A) (A) (A)
                 (A) (A) (A) (A) (A) (A) (A) (A) (A) (A) (A) (A)
                 (A) (A) (A) (A) (A) (A) (A) (A) (A) (A) (A) (A)
                 (A) (A) (A) (A) (A) (A) (A) (A) (A) (A) (A) (A)
                 (A) (A) (A) (A) (A) (A) (A) (A) (A) (A) (A) (A)
                 (A) (A) (A) (A) (A) (A) (A) (A) (A) (A) (A) (A)
                 (A) (A) (A) (A) (A) (A) (A) (A) (A) (A) (A) (A)
                 (A) (A)
 The electronic state is 1-A.
 Alpha  occ. eigenvalues --  -15.60657 -11.24743 -11.24189 -11.24177 -11.23643
 Alpha  occ. eigenvalues --  -11.23521 -11.23516 -11.20843 -11.19689  -7.59285
 Alpha  occ. eigenvalues --   -1.14093  -1.11575  -1.03054  -1.00343  -0.93865
 Alpha  occ. eigenvalues --   -0.91025  -0.82348  -0.79603  -0.69550  -0.68091
 Alpha  occ. eigenvalues --   -0.67135  -0.63504  -0.63209  -0.58466  -0.57782
 Alpha  occ. eigenvalues --   -0.55198  -0.54522  -0.52243  -0.51704  -0.49939
 Alpha  occ. eigenvalues --   -0.48446  -0.47936  -0.44419  -0.41839  -0.33621
 Alpha  occ. eigenvalues --   -0.31969
 Alpha virt. eigenvalues --    0.02854   0.03801   0.04107   0.04623   0.05509
 Alpha virt. eigenvalues --    0.05586   0.06471   0.07159   0.07389   0.07501
 Alpha virt. eigenvalues --    0.08240   0.09009   0.09938   0.10512   0.10913
 Alpha virt. eigenvalues --    0.11213   0.11330   0.12078   0.12389   0.14046
 Alpha virt. eigenvalues --    0.14920   0.15223   0.15407   0.15618   0.15806
 Alpha virt. eigenvalues --    0.16327   0.16388   0.17338   0.17585   0.18272
 Alpha virt. eigenvalues --    0.18654   0.18775   0.19023   0.19219   0.19643
 Alpha virt. eigenvalues --    0.20399   0.20523   0.20939   0.21476   0.22004
 Alpha virt. eigenvalues --    0.23650   0.23888   0.24281   0.24598   0.25214
 Alpha virt. eigenvalues --    0.25565   0.26172   0.26708   0.29513   0.30145
 Alpha virt. eigenvalues --    0.30779   0.31332   0.31746   0.32624   0.33600
 Alpha virt. eigenvalues --    0.33618   0.34202   0.35019   0.35790   0.36639
 Alpha virt. eigenvalues --    0.37491   0.38642   0.39110   0.39707   0.40633
 Alpha virt. eigenvalues --    0.40784   0.41585   0.41800   0.42715   0.42946
 Alpha virt. eigenvalues --    0.43076   0.43481   0.44543   0.44746   0.45039
 Alpha virt. eigenvalues --    0.45550   0.46579   0.46983   0.47849   0.47865
 Alpha virt. eigenvalues --    0.48978   0.49127   0.50037   0.50384   0.51012
 Alpha virt. eigenvalues --    0.52294   0.53134   0.53859   0.53999   0.55048
 Alpha virt. eigenvalues --    0.55277   0.56845   0.56846   0.58250   0.59543
 Alpha virt. eigenvalues --    0.60136   0.60306   0.60950   0.61720   0.62428
 Alpha virt. eigenvalues --    0.62658   0.63099   0.63486   0.64464   0.65500
 Alpha virt. eigenvalues --    0.66187   0.66528   0.66984   0.67211   0.67485
 Alpha virt. eigenvalues --    0.67753   0.68772   0.68776   0.70122   0.70508
 Alpha virt. eigenvalues --    0.71403   0.71660   0.71716   0.72400   0.73550
 Alpha virt. eigenvalues --    0.73588   0.75002   0.76950   0.77220   0.77613
 Alpha virt. eigenvalues --    0.77769   0.78896   0.78954   0.79765   0.81030
 Alpha virt. eigenvalues --    0.81990   0.82520   0.83258   0.84511   0.84649
 Alpha virt. eigenvalues --    0.85550   0.86397   0.86884   0.86978   0.88527
 Alpha virt. eigenvalues --    0.89273   0.90029   0.90751   0.91643   0.93454
 Alpha virt. eigenvalues --    0.94253   0.94330   0.95285   0.95535   0.96367
 Alpha virt. eigenvalues --    0.97513   0.99301   0.99375   1.00092   1.01030
 Alpha virt. eigenvalues --    1.01956   1.03983   1.04062   1.06309   1.06341
 Alpha virt. eigenvalues --    1.08209   1.09955   1.10784   1.11847   1.13333
 Alpha virt. eigenvalues --    1.15067   1.16607   1.16763   1.18681   1.19096
 Alpha virt. eigenvalues --    1.19449   1.21658   1.24520   1.24596   1.24728
 Alpha virt. eigenvalues --    1.29943   1.30345   1.34977   1.37221   1.37313
 Alpha virt. eigenvalues --    1.39385   1.40828   1.45988   1.46588   1.49448
 Alpha virt. eigenvalues --    1.49688   1.51627   1.53593   1.54504   1.55178
 Alpha virt. eigenvalues --    1.57286   1.58258   1.59787   1.60005   1.62408
 Alpha virt. eigenvalues --    1.63113   1.63975   1.64092   1.64500   1.66413
 Alpha virt. eigenvalues --    1.67682   1.68478   1.69418   1.69985   1.71857
 Alpha virt. eigenvalues --    1.73609   1.75823   1.75872   1.79717   1.80348
 Alpha virt. eigenvalues --    1.81167   1.82563   1.84492   1.85768   1.90269
 Alpha virt. eigenvalues --    1.90571   1.91031   1.92831   1.93244   1.94199
 Alpha virt. eigenvalues --    1.94211   1.96167   1.96371   1.96790   1.98059
 Alpha virt. eigenvalues --    1.99983   2.01147   2.05196   2.06003   2.07584
 Alpha virt. eigenvalues --    2.09089   2.10190   2.10362   2.11991   2.13107
 Alpha virt. eigenvalues --    2.13452   2.14520   2.16881   2.17262   2.20308
 Alpha virt. eigenvalues --    2.21824   2.22295   2.25499   2.26561   2.26815
 Alpha virt. eigenvalues --    2.28351   2.29845   2.30326   2.31013   2.31996
 Alpha virt. eigenvalues --    2.33557   2.35633   2.37294   2.37798   2.38479
 Alpha virt. eigenvalues --    2.39351   2.40587   2.42801   2.44360   2.46300
 Alpha virt. eigenvalues --    2.46347   2.47951   2.50540   2.55961   2.57743
 Alpha virt. eigenvalues --    2.58786   2.62335   2.63215   2.65912   2.67191
 Alpha virt. eigenvalues --    2.70334   2.73547   2.78397   2.79511   2.80265
 Alpha virt. eigenvalues --    2.82303   2.82840   2.83144   2.88723   2.90587
 Alpha virt. eigenvalues --    2.93546   2.94489   2.95947   2.97744   3.01438
 Alpha virt. eigenvalues --    3.02041   3.04131   3.08951   3.11194   3.12941
 Alpha virt. eigenvalues --    3.14177   3.14802   3.28372   3.31043   3.35427
 Alpha virt. eigenvalues --    3.45722   3.61608   3.63545   3.78403   3.83229
 Alpha virt. eigenvalues --    3.85900   4.84179
          Condensed to atoms (all electrons):
 Mulliken charges:
               1
     1  B    0.545931
     2  C    0.381393
     3  C    0.617755
     4  C    0.617796
     5  C    0.153057
     6  C    0.718058
     7  C    0.153071
     8  H   -0.441959
     9  H   -0.457912
    10  H   -0.647670
    11  H   -0.647673
    12  H   -0.457918
    13  N   -0.310074
    14  C    0.530317
    15  H   -0.131744
    16  H   -0.131708
    17  H   -0.341626
    18  C    0.221231
    19  H   -0.184872
    20  H   -0.184807
    21  H   -0.087352
    22  H    0.086706
 Sum of Mulliken charges =  -0.00000
 Mulliken charges with hydrogens summed into heavy atoms:
               1
     1  B    0.545931
     2  C    0.381393
     3  C   -0.029915
     4  C   -0.029878
     5  C   -0.304861
     6  C    0.276098
     7  C   -0.304841
    13  N   -0.310720
    14  C   -0.074761
    18  C   -0.148448
 Electronic spatial extent (au):  <R**2>=           1795.8986
 Charge=             -0.0000 electrons
 Dipole moment (field-independent basis, Debye):
    X=             -0.3184    Y=             -0.0005    Z=              0.9477  Tot=              0.9998

 Test job not archived.
 1\1\GINC-SE227\SP\RHF\Aug-CC-pVDZ\C8H12B1N1\OHZDE\09-Apr-2025\0\\#t hf
  aug-cc-pvdz iop(5/13=1,5/36=2,99/5=2) pseudo=read geom=check guess=(r
 ead,tcheck) scf=(maxcycle=1)\\title\\0,1\B,0,-2.208836,-0.000073,0.158
 484\C,0,0.333029,0.000229,-0.563164\C,0,1.018988,1.199584,-0.328724\C,
 0,1.018944,-1.199311,-0.329541\C,0,2.3394,-1.202238,0.114815\C,0,3.006
 977,-0.000127,0.339777\C,0,2.339443,1.202161,0.115634\H,0,4.035792,-0.
 000262,0.681713\H,0,2.848799,2.145305,0.282279\H,0,0.511282,2.143147,-
 0.503906\H,0,0.511205,-2.142736,-0.505368\H,0,2.848722,-2.145514,0.280
 818\N,0,-1.801074,-0.000719,1.49342\C,0,-3.747717,0.000181,-0.214763\H
 ,0,-4.00276,-0.873512,-0.82644\H,0,-4.002688,0.874544,-0.825512\H,0,-4
 .414644,-0.000251,0.653348\C,0,-1.109378,0.000405,-1.004759\H,0,-1.303
 286,0.870425,-1.645645\H,0,-1.303286,-0.869104,-1.646338\H,0,-2.44679,
 -0.001051,2.26756\H,0,-0.828771,-0.000893,1.765488\\Version=ES64L-G16R
 evC.01\State=1-A\HF=-389.3007732\RMSD=8.839e-03\Dipole=-0.1252645,-0.0
 001797,0.3728623\Quadrupole=-0.2321393,1.4401002,-1.2079609,0.0000175,
 0.464831,0.0004913\PG=C01 [X(C8H12B1N1)]\\@


 NO MATTER HOW THIN YOU SLICE IT, IT'S STILL BALONEY

                                   -- ALFRED E. SMITH
 Job cpu time:       0 days  0 hours  3 minutes  7.3 seconds.
 Elapsed time:       0 days  0 hours  0 minutes 13.3 seconds.
 File lengths (MBytes):  RWF=     19 Int=      0 D2E=      0 Chk=     15 Scr=      1
 Normal termination of Gaussian 16 at Wed Apr  9 00:39:07 2025.
