 Entering Gaussian System, Link 0=g16
 Input=BDE49_expt_150_mol1.gjf
 Output=BDE49_expt_150_mol1.log
 Initial command:
 /arc/software/Gaussian/g16.c01/l1.exe "/tmp/slurm/4841608/Gau-67133.inp" -scrdir="/tmp/slurm/4841608/"
 Entering Link 1 = /arc/software/Gaussian/g16.c01/l1.exe PID=     67134.
  
 Copyright (c) 1988-2019, Gaussian, Inc.  All Rights Reserved.
  
 This is part of the Gaussian(R) 16 program.  It is based on
 the Gaussian(R) 09 system (copyright 2009, Gaussian, Inc.),
 the Gaussian(R) 03 system (copyright 2003, Gaussian, Inc.),
 the Gaussian(R) 98 system (copyright 1998, Gaussian, Inc.),
 the Gaussian(R) 94 system (copyright 1995, Gaussian, Inc.),
 the Gaussian 92(TM) system (copyright 1992, Gaussian, Inc.),
 the Gaussian 90(TM) system (copyright 1990, Gaussian, Inc.),
 the Gaussian 88(TM) system (copyright 1988, Gaussian, Inc.),
 the Gaussian 86(TM) system (copyright 1986, Carnegie Mellon
 University), and the Gaussian 82(TM) system (copyright 1983,
 Carnegie Mellon University). Gaussian is a federally registered
 trademark of Gaussian, Inc.
  
 This software contains proprietary and confidential information,
 including trade secrets, belonging to Gaussian, Inc.
  
 This software is provided under written license and may be
 used, copied, transmitted, or stored only in accord with that
 written license.
  
 The following legend is applicable only to US Government
 contracts under FAR:
  
                    RESTRICTED RIGHTS LEGEND
  
 Use, reproduction and disclosure by the US Government is
 subject to restrictions as set forth in subparagraphs (a)
 and (c) of the Commercial Computer Software - Restricted
 Rights clause in FAR 52.227-19.
  
 Gaussian, Inc.
 340 Quinnipiac St., Bldg. 40, Wallingford CT 06492
  
  
 ---------------------------------------------------------------
 Warning -- This program may not be used in any manner that
 competes with the business of Gaussian, Inc. or will provide
 assistance to any competitor of Gaussian, Inc.  The licensee
 of this program is prohibited from giving any competitor of
 Gaussian, Inc. access to this program.  By using this program,
 the user acknowledges that Gaussian, Inc. is engaged in the
 business of creating and licensing software in the field of
 computational chemistry and represents and warrants to the
 licensee that it is not a competitor of Gaussian, Inc. and that
 it will not use this program in any manner prohibited above.
 ---------------------------------------------------------------
  

 Cite this work as:
 Gaussian 16, Revision C.01,
 M. J. Frisch, G. W. Trucks, H. B. Schlegel, G. E. Scuseria, 
 M. A. Robb, J. R. Cheeseman, G. Scalmani, V. Barone, 
 G. A. Petersson, H. Nakatsuji, X. Li, M. Caricato, A. V. Marenich, 
 J. Bloino, B. G. Janesko, R. Gomperts, B. Mennucci, H. P. Hratchian, 
 J. V. Ortiz, A. F. Izmaylov, J. L. Sonnenberg, D. Williams-Young, 
 F. Ding, F. Lipparini, F. Egidi, J. Goings, B. Peng, A. Petrone, 
 T. Henderson, D. Ranasinghe, V. G. Zakrzewski, J. Gao, N. Rega, 
 G. Zheng, W. Liang, M. Hada, M. Ehara, K. Toyota, R. Fukuda, 
 J. Hasegawa, M. Ishida, T. Nakajima, Y. Honda, O. Kitao, H. Nakai, 
 T. Vreven, K. Throssell, J. A. Montgomery, Jr., J. E. Peralta, 
 F. Ogliaro, M. J. Bearpark, J. J. Heyd, E. N. Brothers, K. N. Kudin, 
 V. N. Staroverov, T. A. Keith, R. Kobayashi, J. Normand, 
 K. Raghavachari, A. P. Rendell, J. C. Burant, S. S. Iyengar, 
 J. Tomasi, M. Cossi, J. M. Millam, M. Klene, C. Adamo, R. Cammi, 
 J. W. Ochterski, R. L. Martin, K. Morokuma, O. Farkas, 
 J. B. Foresman, and D. J. Fox, Gaussian, Inc., Wallingford CT, 2019.
 
 ******************************************
 Gaussian 16:  ES64L-G16RevC.01  3-Jul-2019
                 8-Apr-2025 
 ******************************************
 %nprocs=16
 Will use up to   16 processors via shared memory.
 %mem=30GB
 %chk=BDE49_expt_150_mol1.chk
 ----------------------------------------------------------------------
 #t hf aug-cc-pvdz symm=none int=(grid=ultrafine) guess=(read,tcheck) s
 table=(opt,rrhf)
 ----------------------------------------------------------------------
 -----
 title
 -----
 Symbolic Z-matrix:
 Charge =  0 Multiplicity = 1
 C                     0.        0.69692  -1.72957 
 C                     0.       -0.69692  -1.72957 
 C                     0.       -1.38185  -0.52657 
 H                     0.       -1.25992  -2.65345 
 F                     0.       -2.72367  -0.50073 
 C                     0.        1.38185  -0.52657 
 H                     0.        1.25992  -2.65345 
 C                     0.        0.69501   0.68466 
 C                     0.       -0.69501   0.68466 
 F                     0.       -1.35908   1.84321 
 F                     0.        2.72367  -0.50073 
 F                     0.        1.35908   1.84321 
 
                    Distance matrix (angstroms):
                    1          2          3          4          5
     1  C    0.000000
     2  C    1.393832   0.000000
     3  C    2.401767   1.384323   0.000000
     4  H    2.163964   1.081907   2.130374   0.000000
     5  F    3.634624   2.370190   1.342072   2.603229   0.000000
     6  C    1.384323   2.401767   2.763702   3.391542   4.105606
     7  H    1.081907   2.163964   3.391542   2.519830   4.528045
     8  C    2.414230   2.786745   2.404247   3.868421   3.618357
     9  C    2.786745   2.414230   1.392418   3.385572   2.349604
    10  F    4.122126   3.633629   2.369893   4.497759   2.712230
    11  F    2.370190   3.634624   4.105606   4.528045   5.447348
    12  F    3.633629   4.122126   3.623338   5.203762   4.707755
                    6          7          8          9         10
     6  C    0.000000
     7  H    2.130374   0.000000
     8  C    1.392418   3.385572   0.000000
     9  C    2.404247   3.868421   1.390010   0.000000
    10  F    3.623338   5.203762   2.358287   1.335384   0.000000
    11  F    1.342072   2.603229   2.349604   3.618357   4.707755
    12  F    2.369893   4.497759   1.335384   2.358287   2.718160
                   11         12
    11  F    0.000000
    12  F    2.712230   0.000000
 Symmetry turned off by external request.
 Rotational constants (GHZ):           2.0875799           1.1909860           0.7583433
   248 basis functions,   452 primitive gaussians,   268 cartesian basis functions
    37 alpha electrons       37 beta electrons
       nuclear repulsion energy       523.8394816239 Hartrees.
 NAtoms=   12 NActive=   12 NUniq=   12 SFac= 1.00D+00 NAtFMM=   60 NAOKFM=F Big=F
 ExpMin= 2.97D-02 ExpMax= 1.47D+04 ExpMxC= 5.03D+02 IAcc=3 IRadAn=         5 AccDes= 0.00D+00
 Harris functional with IExCor=  205 and IRadAn=       5 diagonalized for initial guess.
 HarFok:  IExCor=  205 AccDes= 0.00D+00 IRadAn=         5 IDoV= 1 UseB2=F ITyADJ=14
 ICtDFT=  3500011 ScaDFX=  1.000000  1.000000  1.000000  1.000000
 FoFCou: FMM=F IPFlag=           0 FMFlag=      100000 FMFlg1=           0
         NFxFlg=           0 DoJE=T BraDBF=F KetDBF=T FulRan=T
         wScrn=  0.000000 ICntrl=       500 IOpCl=  0 I1Cent=   200000004 NGrid=           0
         NMat0=    1 NMatS0=      1 NMatT0=    0 NMatD0=    1 NMtDS0=    0 NMtDT0=    0
 Symmetry not used in FoFCou.
 SCF Done:  E(RHF) =  -626.159719111     A.U. after   14 cycles
            NFock= 14  Conv=0.53D-08     -V/T= 2.0011

 **********************************************************************

            Population analysis using the SCF Density.

 **********************************************************************

 Alpha  occ. eigenvalues --  -26.35907 -26.35906 -26.35288 -26.35288 -11.37869
 Alpha  occ. eigenvalues --  -11.37749 -11.37158 -11.37158 -11.28998 -11.28880
 Alpha  occ. eigenvalues --   -1.67904  -1.66906  -1.65946  -1.65567  -1.21069
 Alpha  occ. eigenvalues --   -1.07427  -1.06564  -0.91645  -0.90850  -0.81248
 Alpha  occ. eigenvalues --   -0.80401  -0.79601  -0.75501  -0.75169  -0.72856
 Alpha  occ. eigenvalues --   -0.72846  -0.71439  -0.70656  -0.68999  -0.68573
 Alpha  occ. eigenvalues --   -0.68279  -0.61864  -0.59448  -0.57376  -0.53356
 Alpha  occ. eigenvalues --   -0.37974  -0.36961
 Alpha virt. eigenvalues --    0.02907   0.04474   0.06499   0.08479   0.08726
 Alpha virt. eigenvalues --    0.08960   0.09557   0.11030   0.11068   0.13290
 Alpha virt. eigenvalues --    0.13369   0.13568   0.14124   0.14513   0.14779
 Alpha virt. eigenvalues --    0.15397   0.16555   0.16771   0.17080   0.17903
 Alpha virt. eigenvalues --    0.17957   0.18843   0.19732   0.23283   0.24575
 Alpha virt. eigenvalues --    0.25333   0.27110   0.28356   0.29201   0.29954
 Alpha virt. eigenvalues --    0.32735   0.33165   0.33443   0.34299   0.34895
 Alpha virt. eigenvalues --    0.35069   0.35914   0.36304   0.37024   0.37223
 Alpha virt. eigenvalues --    0.38342   0.39101   0.39796   0.41340   0.41460
 Alpha virt. eigenvalues --    0.42577   0.42852   0.45477   0.45667   0.46579
 Alpha virt. eigenvalues --    0.47747   0.50217   0.50430   0.51505   0.52320
 Alpha virt. eigenvalues --    0.52770   0.53790   0.57194   0.57840   0.58500
 Alpha virt. eigenvalues --    0.61095   0.63044   0.63169   0.63320   0.63367
 Alpha virt. eigenvalues --    0.67583   0.68035   0.68686   0.69386   0.71363
 Alpha virt. eigenvalues --    0.72159   0.72767   0.74393   0.76556   0.76874
 Alpha virt. eigenvalues --    0.78361   0.85808   0.86159   0.87087   0.87772
 Alpha virt. eigenvalues --    0.88323   0.88386   0.88710   0.90300   0.90694
 Alpha virt. eigenvalues --    0.91071   0.92605   0.93733   0.95091   0.99716
 Alpha virt. eigenvalues --    1.00172   1.02593   1.03653   1.06486   1.10166
 Alpha virt. eigenvalues --    1.11750   1.12693   1.12960   1.17024   1.19638
 Alpha virt. eigenvalues --    1.22020   1.31488   1.33690   1.36435   1.36826
 Alpha virt. eigenvalues --    1.41320   1.42880   1.43995   1.45160   1.46473
 Alpha virt. eigenvalues --    1.46951   1.47685   1.53787   1.55106   1.56920
 Alpha virt. eigenvalues --    1.57444   1.57569   1.58795   1.59231   1.60765
 Alpha virt. eigenvalues --    1.61190   1.62714   1.63374   1.64676   1.65434
 Alpha virt. eigenvalues --    1.66753   1.68087   1.68276   1.69027   1.70160
 Alpha virt. eigenvalues --    1.73600   1.74438   1.75441   1.76100   1.77762
 Alpha virt. eigenvalues --    1.82334   1.83481   1.86839   1.88210   1.90007
 Alpha virt. eigenvalues --    1.91684   1.92566   1.94524   1.94576   1.94921
 Alpha virt. eigenvalues --    1.95931   1.97928   1.98426   2.01894   2.05879
 Alpha virt. eigenvalues --    2.08755   2.09105   2.09125   2.09355   2.13332
 Alpha virt. eigenvalues --    2.14026   2.14314   2.16436   2.19119   2.21352
 Alpha virt. eigenvalues --    2.23558   2.29264   2.30032   2.36528   2.38525
 Alpha virt. eigenvalues --    2.41451   2.50129   2.50950   2.55887   2.59903
 Alpha virt. eigenvalues --    2.62816   2.67837   2.71756   2.79227   2.82223
 Alpha virt. eigenvalues --    2.84848   2.89328   2.92710   3.00605   3.10064
 Alpha virt. eigenvalues --    3.18491   3.20159   3.25001   3.25258   3.32457
 Alpha virt. eigenvalues --    3.53491   3.56707   3.62652   3.82824   3.83340
 Alpha virt. eigenvalues --    4.62211   4.92996   4.94711   4.97214   4.98267
 Alpha virt. eigenvalues --    4.99875   5.00178   5.01794   5.01943   5.03113
 Alpha virt. eigenvalues --    5.04021   5.04907   5.06440   5.08949   5.09724
 Alpha virt. eigenvalues --    5.11296   5.12977   5.18624   5.24461   5.24774
 Alpha virt. eigenvalues --    5.38122
          Condensed to atoms (all electrons):
 Mulliken charges:
               1
     1  C    0.395494
     2  C    0.395494
     3  C    0.805256
     4  H   -0.382887
     5  F   -0.788897
     6  C    0.805256
     7  H   -0.382887
     8  C    0.730468
     9  C    0.730468
    10  F   -0.759434
    11  F   -0.788897
    12  F   -0.759434
 Sum of Mulliken charges =  -0.00000
 Mulliken charges with hydrogens summed into heavy atoms:
               1
     1  C    0.012607
     2  C    0.012607
     3  C    0.805256
     5  F   -0.788897
     6  C    0.805256
     8  C    0.730468
     9  C    0.730468
    10  F   -0.759434
    11  F   -0.788897
    12  F   -0.759434
 Electronic spatial extent (au):  <R**2>=           1299.3425
 Charge=             -0.0000 electrons
 Dipole moment (field-independent basis, Debye):
    X=             -0.0000    Y=              0.0000    Z=             -3.0057  Tot=              3.0057
 NROrb=    248 NOA=    37 NOB=    37 NVA=   211 NVB=   211

 **** Warning!!: The largest alpha MO coefficient is  0.15989621D+03

    12 initial guesses have been made.
 Iteration     1 Dimension    12 NMult     0 NNew     12
 Iteration     2 Dimension    24 NMult    12 NNew     12
 Iteration     3 Dimension    27 NMult    24 NNew      3
 Iteration     4 Dimension    30 NMult    27 NNew      3
 Iteration     5 Dimension    33 NMult    30 NNew      3
 Iteration     6 Dimension    36 NMult    33 NNew      3
 ***********************************************************************
 Stability analysis using <AA,BB:AA,BB> singles matrix:
 ***********************************************************************
 Ground to excited state transition densities written to RWF  633

 Eigenvectors of the stability matrix:
 
 Excited state symmetry could not be determined.
 Eigenvector   1:      Singlet-?Sym  Eigenvalue= 0.1760643  <S**2>=0.000
      36 -> 44        -0.33131
      36 -> 45         0.25480
      36 -> 47        -0.14360
      36 -> 55        -0.14556
      37 -> 41         0.49447
      37 -> 56         0.13846
 The wavefunction is stable under the perturbations considered.
 The wavefunction is already stable.

 **********************************************************************

            Population analysis using the SCF Density.

 **********************************************************************

 Alpha  occ. eigenvalues --  -26.35907 -26.35906 -26.35288 -26.35288 -11.37869
 Alpha  occ. eigenvalues --  -11.37749 -11.37158 -11.37158 -11.28998 -11.28880
 Alpha  occ. eigenvalues --   -1.67904  -1.66906  -1.65946  -1.65567  -1.21069
 Alpha  occ. eigenvalues --   -1.07427  -1.06564  -0.91645  -0.90850  -0.81248
 Alpha  occ. eigenvalues --   -0.80401  -0.79601  -0.75501  -0.75169  -0.72856
 Alpha  occ. eigenvalues --   -0.72846  -0.71439  -0.70656  -0.68999  -0.68573
 Alpha  occ. eigenvalues --   -0.68279  -0.61864  -0.59448  -0.57376  -0.53356
 Alpha  occ. eigenvalues --   -0.37974  -0.36961
 Alpha virt. eigenvalues --    0.02907   0.04474   0.06499   0.08479   0.08726
 Alpha virt. eigenvalues --    0.08960   0.09557   0.11030   0.11068   0.13290
 Alpha virt. eigenvalues --    0.13369   0.13568   0.14124   0.14513   0.14779
 Alpha virt. eigenvalues --    0.15397   0.16555   0.16771   0.17080   0.17903
 Alpha virt. eigenvalues --    0.17957   0.18843   0.19732   0.23283   0.24575
 Alpha virt. eigenvalues --    0.25333   0.27110   0.28356   0.29201   0.29954
 Alpha virt. eigenvalues --    0.32735   0.33165   0.33443   0.34299   0.34895
 Alpha virt. eigenvalues --    0.35069   0.35914   0.36304   0.37024   0.37223
 Alpha virt. eigenvalues --    0.38342   0.39101   0.39796   0.41340   0.41460
 Alpha virt. eigenvalues --    0.42577   0.42852   0.45477   0.45667   0.46579
 Alpha virt. eigenvalues --    0.47747   0.50217   0.50430   0.51505   0.52320
 Alpha virt. eigenvalues --    0.52770   0.53790   0.57194   0.57840   0.58500
 Alpha virt. eigenvalues --    0.61095   0.63044   0.63169   0.63320   0.63367
 Alpha virt. eigenvalues --    0.67583   0.68035   0.68686   0.69386   0.71363
 Alpha virt. eigenvalues --    0.72159   0.72767   0.74393   0.76556   0.76874
 Alpha virt. eigenvalues --    0.78361   0.85808   0.86159   0.87087   0.87772
 Alpha virt. eigenvalues --    0.88323   0.88386   0.88710   0.90300   0.90694
 Alpha virt. eigenvalues --    0.91071   0.92605   0.93733   0.95091   0.99716
 Alpha virt. eigenvalues --    1.00172   1.02593   1.03653   1.06486   1.10166
 Alpha virt. eigenvalues --    1.11750   1.12693   1.12960   1.17024   1.19638
 Alpha virt. eigenvalues --    1.22020   1.31488   1.33690   1.36435   1.36826
 Alpha virt. eigenvalues --    1.41320   1.42880   1.43995   1.45160   1.46473
 Alpha virt. eigenvalues --    1.46951   1.47685   1.53787   1.55106   1.56920
 Alpha virt. eigenvalues --    1.57444   1.57569   1.58795   1.59231   1.60765
 Alpha virt. eigenvalues --    1.61190   1.62714   1.63374   1.64676   1.65434
 Alpha virt. eigenvalues --    1.66753   1.68087   1.68276   1.69027   1.70160
 Alpha virt. eigenvalues --    1.73600   1.74438   1.75441   1.76100   1.77762
 Alpha virt. eigenvalues --    1.82334   1.83481   1.86839   1.88210   1.90007
 Alpha virt. eigenvalues --    1.91684   1.92566   1.94524   1.94576   1.94921
 Alpha virt. eigenvalues --    1.95931   1.97928   1.98426   2.01894   2.05879
 Alpha virt. eigenvalues --    2.08755   2.09105   2.09125   2.09355   2.13332
 Alpha virt. eigenvalues --    2.14026   2.14314   2.16436   2.19119   2.21352
 Alpha virt. eigenvalues --    2.23558   2.29264   2.30032   2.36528   2.38525
 Alpha virt. eigenvalues --    2.41451   2.50129   2.50950   2.55887   2.59903
 Alpha virt. eigenvalues --    2.62816   2.67837   2.71756   2.79227   2.82223
 Alpha virt. eigenvalues --    2.84848   2.89328   2.92710   3.00605   3.10064
 Alpha virt. eigenvalues --    3.18491   3.20159   3.25001   3.25258   3.32457
 Alpha virt. eigenvalues --    3.53491   3.56707   3.62652   3.82824   3.83340
 Alpha virt. eigenvalues --    4.62211   4.92996   4.94711   4.97214   4.98267
 Alpha virt. eigenvalues --    4.99875   5.00178   5.01794   5.01943   5.03113
 Alpha virt. eigenvalues --    5.04021   5.04907   5.06440   5.08949   5.09724
 Alpha virt. eigenvalues --    5.11296   5.12977   5.18624   5.24461   5.24774
 Alpha virt. eigenvalues --    5.38122
          Condensed to atoms (all electrons):
 Mulliken charges:
               1
     1  C    0.395494
     2  C    0.395494
     3  C    0.805256
     4  H   -0.382887
     5  F   -0.788897
     6  C    0.805256
     7  H   -0.382887
     8  C    0.730468
     9  C    0.730468
    10  F   -0.759434
    11  F   -0.788897
    12  F   -0.759434
 Sum of Mulliken charges =  -0.00000
 Mulliken charges with hydrogens summed into heavy atoms:
               1
     1  C    0.012607
     2  C    0.012607
     3  C    0.805256
     5  F   -0.788897
     6  C    0.805256
     8  C    0.730468
     9  C    0.730468
    10  F   -0.759434
    11  F   -0.788897
    12  F   -0.759434
 Electronic spatial extent (au):  <R**2>=           1299.3425
 Charge=             -0.0000 electrons
 Dipole moment (field-independent basis, Debye):
    X=             -0.0000    Y=              0.0000    Z=             -3.0057  Tot=              3.0057
 Unable to Open any file for archive entry.
 1\1\GINC-SE044\Stability\RHF\Aug-CC-pVDZ\C6H2F4\OHZDE\08-Apr-2025\0\\#
 t hf aug-cc-pvdz symm=none int=(grid=ultrafine) guess=(read,tcheck) st
 able=(opt,rrhf)\\title\\0,1\C,0,0.,0.696916,-1.729572\C,0,0.,-0.696916
 ,-1.729572\C,0,0.,-1.381851,-0.52657\H,0,0.,-1.259915,-2.653452\F,0,0.
 ,-2.723674,-0.50073\C,0,0.,1.381851,-0.52657\H,0,0.,1.259915,-2.653452
 \C,0,0.,0.695005,0.684657\C,0,0.,-0.695005,0.684657\F,0,0.,-1.35908,1.
 843214\F,0,0.,2.723674,-0.50073\F,0,0.,1.35908,1.843214\\Version=ES64L
 -G16RevC.01\HF=-626.1597191\RMSD=5.329e-09\Dipole=0.,0.,-1.1825268\Qua
 drupole=1.1273779,-4.8577372,3.7303593,0.,0.,0.\PG=Unknown\\@
 The archive entry for this job was punched.


 A MUSTACHE HAIR ACROSS A CHIP IS LIKE A REDWOOD
 TREE FALLING THROUGH A HOUSING PROJECT.
 - AN IBM MANAGER IN EAST FISHKILL, NEW YORK
   AS QUOTED IN "FROM SANDS TO CIRCUITS", IBM INNOVATION JANUARY 1985.
 Job cpu time:       0 days  0 hours  3 minutes 36.9 seconds.
 Elapsed time:       0 days  0 hours  0 minutes 28.6 seconds.
 File lengths (MBytes):  RWF=    329 Int=      0 D2E=      0 Chk=      9 Scr=      1
 Normal termination of Gaussian 16 at Tue Apr  8 22:43:52 2025.
 Initial command:
 /arc/software/Gaussian/g16.c01/l1.exe "/tmp/slurm/4841608/Gau-67133.inp" -scrdir="/tmp/slurm/4841608/"
 Entering Link 1 = /arc/software/Gaussian/g16.c01/l1.exe PID=     67556.
  
 Copyright (c) 1988-2019, Gaussian, Inc.  All Rights Reserved.
  
 This is part of the Gaussian(R) 16 program.  It is based on
 the Gaussian(R) 09 system (copyright 2009, Gaussian, Inc.),
 the Gaussian(R) 03 system (copyright 2003, Gaussian, Inc.),
 the Gaussian(R) 98 system (copyright 1998, Gaussian, Inc.),
 the Gaussian(R) 94 system (copyright 1995, Gaussian, Inc.),
 the Gaussian 92(TM) system (copyright 1992, Gaussian, Inc.),
 the Gaussian 90(TM) system (copyright 1990, Gaussian, Inc.),
 the Gaussian 88(TM) system (copyright 1988, Gaussian, Inc.),
 the Gaussian 86(TM) system (copyright 1986, Carnegie Mellon
 University), and the Gaussian 82(TM) system (copyright 1983,
 Carnegie Mellon University). Gaussian is a federally registered
 trademark of Gaussian, Inc.
  
 This software contains proprietary and confidential information,
 including trade secrets, belonging to Gaussian, Inc.
  
 This software is provided under written license and may be
 used, copied, transmitted, or stored only in accord with that
 written license.
  
 The following legend is applicable only to US Government
 contracts under FAR:
  
                    RESTRICTED RIGHTS LEGEND
  
 Use, reproduction and disclosure by the US Government is
 subject to restrictions as set forth in subparagraphs (a)
 and (c) of the Commercial Computer Software - Restricted
 Rights clause in FAR 52.227-19.
  
 Gaussian, Inc.
 340 Quinnipiac St., Bldg. 40, Wallingford CT 06492
  
  
 ---------------------------------------------------------------
 Warning -- This program may not be used in any manner that
 competes with the business of Gaussian, Inc. or will provide
 assistance to any competitor of Gaussian, Inc.  The licensee
 of this program is prohibited from giving any competitor of
 Gaussian, Inc. access to this program.  By using this program,
 the user acknowledges that Gaussian, Inc. is engaged in the
 business of creating and licensing software in the field of
 computational chemistry and represents and warrants to the
 licensee that it is not a competitor of Gaussian, Inc. and that
 it will not use this program in any manner prohibited above.
 ---------------------------------------------------------------
  

 Cite this work as:
 Gaussian 16, Revision C.01,
 M. J. Frisch, G. W. Trucks, H. B. Schlegel, G. E. Scuseria, 
 M. A. Robb, J. R. Cheeseman, G. Scalmani, V. Barone, 
 G. A. Petersson, H. Nakatsuji, X. Li, M. Caricato, A. V. Marenich, 
 J. Bloino, B. G. Janesko, R. Gomperts, B. Mennucci, H. P. Hratchian, 
 J. V. Ortiz, A. F. Izmaylov, J. L. Sonnenberg, D. Williams-Young, 
 F. Ding, F. Lipparini, F. Egidi, J. Goings, B. Peng, A. Petrone, 
 T. Henderson, D. Ranasinghe, V. G. Zakrzewski, J. Gao, N. Rega, 
 G. Zheng, W. Liang, M. Hada, M. Ehara, K. Toyota, R. Fukuda, 
 J. Hasegawa, M. Ishida, T. Nakajima, Y. Honda, O. Kitao, H. Nakai, 
 T. Vreven, K. Throssell, J. A. Montgomery, Jr., J. E. Peralta, 
 F. Ogliaro, M. J. Bearpark, J. J. Heyd, E. N. Brothers, K. N. Kudin, 
 V. N. Staroverov, T. A. Keith, R. Kobayashi, J. Normand, 
 K. Raghavachari, A. P. Rendell, J. C. Burant, S. S. Iyengar, 
 J. Tomasi, M. Cossi, J. M. Millam, M. Klene, C. Adamo, R. Cammi, 
 J. W. Ochterski, R. L. Martin, K. Morokuma, O. Farkas, 
 J. B. Foresman, and D. J. Fox, Gaussian, Inc., Wallingford CT, 2019.
 
 ******************************************
 Gaussian 16:  ES64L-G16RevC.01  3-Jul-2019
                 8-Apr-2025 
 ******************************************
 %nprocs=16
 Will use up to   16 processors via shared memory.
 %mem=30GB
 %chk=BDE49_expt_150_mol1.chk
 ----------------------------------------------------------------------
 #t hf aug-cc-pvdz iop(5/13=1,5/36=2,99/5=2) pseudo=read geom=check gue
 ss=(read,tcheck) scf=(maxcycle=1)
 ----------------------------------------------------------------------
 -----
 title
 -----
 Structure from the checkpoint file:  "BDE49_expt_150_mol1.chk"
 Charge =  0 Multiplicity = 1
 Z-Matrix found in chk file.
 C,0,0.,0.696916,-1.729572
 C,0,0.,-0.696916,-1.729572
 C,0,0.,-1.381851,-0.52657
 H,0,0.,-1.259915,-2.653452
 F,0,0.,-2.723674,-0.50073
 C,0,0.,1.381851,-0.52657
 H,0,0.,1.259915,-2.653452
 C,0,0.,0.695005,0.684657
 C,0,0.,-0.695005,0.684657
 F,0,0.,-1.35908,1.843214
 F,0,0.,2.723674,-0.50073
 F,0,0.,1.35908,1.843214
 Recover connectivity data from disk.
                    Distance matrix (angstroms):
                    1          2          3          4          5
     1  C    0.000000
     2  C    1.393832   0.000000
     3  C    2.401767   1.384323   0.000000
     4  H    2.163964   1.081907   2.130374   0.000000
     5  F    3.634624   2.370190   1.342072   2.603229   0.000000
     6  C    1.384323   2.401767   2.763702   3.391542   4.105606
     7  H    1.081907   2.163964   3.391542   2.519830   4.528045
     8  C    2.414230   2.786745   2.404247   3.868421   3.618357
     9  C    2.786745   2.414230   1.392418   3.385572   2.349604
    10  F    4.122126   3.633629   2.369893   4.497759   2.712230
    11  F    2.370190   3.634624   4.105606   4.528045   5.447348
    12  F    3.633629   4.122126   3.623338   5.203762   4.707755
                    6          7          8          9         10
     6  C    0.000000
     7  H    2.130374   0.000000
     8  C    1.392418   3.385572   0.000000
     9  C    2.404247   3.868421   1.390010   0.000000
    10  F    3.623338   5.203762   2.358287   1.335384   0.000000
    11  F    1.342072   2.603229   2.349604   3.618357   4.707755
    12  F    2.369893   4.497759   1.335384   2.358287   2.718160
                   11         12
    11  F    0.000000
    12  F    2.712230   0.000000
 Framework group  C2V[SGV(C6H2F4)]
 Deg. of freedom    11
                         Standard orientation:                         
 ---------------------------------------------------------------------
 Center     Atomic      Atomic             Coordinates (Angstroms)
 Number     Number       Type             X           Y           Z
 ---------------------------------------------------------------------
      1          6           0        0.000000    0.696916   -1.729572
      2          6           0       -0.000000   -0.696916   -1.729572
      3          6           0        0.000000   -1.381851   -0.526570
      4          1           0        0.000000   -1.259915   -2.653452
      5          9           0        0.000000   -2.723674   -0.500730
      6          6           0        0.000000    1.381851   -0.526570
      7          1           0        0.000000    1.259915   -2.653452
      8          6           0        0.000000    0.695005    0.684657
      9          6           0       -0.000000   -0.695005    0.684657
     10          9           0        0.000000   -1.359080    1.843214
     11          9           0        0.000000    2.723674   -0.500730
     12          9           0        0.000000    1.359080    1.843214
 ---------------------------------------------------------------------
 Rotational constants (GHZ):           2.0875799           1.1909860           0.7583433
 ======================================================================================================
                                       Pseudopotential Parameters
 ======================================================================================================
  Center     Atomic      Valence      Angular      Power
  Number     Number     Electrons     Momentum     of R      Exponent        Coefficient   SO-Coeffient
 ======================================================================================================
    1          6            6
                                      G and up 
                                                     0        0.0000010       -0.00011185    0.00000000
                                                     2        0.1200000       -0.02301220    0.00000000
                                                     2        0.1400000        0.13317600    0.00000000
                                                     2        0.1600000       -0.19690668    0.00000000
                                                     2        0.2200000        0.23163694    0.00000000
                                                     2        0.3000000       -0.36920489    0.00000000
                                                     2        0.4000000        0.36389709    0.00000000
                                                     2        0.7000000       -0.38862160    0.00000000
                                                     2        1.3000000        0.80803421    0.00000000
                                      S - G
                                                     0        0.0000010        0.00312304    0.00000000
                                                     2        0.1200000       -0.00632892    0.00000000
                                                     2        0.2200000       -0.03780897    0.00000000
                                                     2        0.4000000        0.26269560    0.00000000
                                                     2        0.9000000       -0.28209514    0.00000000
                                                     2        1.5000000       -0.72686737    0.00000000
                                      P - G
                                                     0        0.0000010       -0.01465594    0.00000000
                                                     2        0.1200000        0.07908409    0.00000000
                                                     2        0.1800000       -0.30615861    0.00000000
                                                     2        0.2600000        0.41506950    0.00000000
                                                     2        0.5000000       -0.36252345    0.00000000
                                                     2        0.9000000        0.15124193    0.00000000
                                                     2        3.0000000       -0.80425677    0.00000000
                                      D - G
                                                     0        0.0000010        0.01149631    0.00000000
                                                     2        0.1200000       -0.04713561    0.00000000
                                                     2        0.1600000        0.10865096    0.00000000
                                                     2        0.2800000       -0.15816701    0.00000000
                                                     2        0.7000000        0.65478804    0.00000000
                                                     2        1.3000000       -1.73816624    0.00000000
                                      F - G
                                                     0        0.0000010        0.00481868    0.00000000
                                                     2        0.1200000       -0.04746842    0.00000000
                                                     2        0.1600000        0.09327889    0.00000000
                                                     2        0.4000000       -0.19693326    0.00000000
                                                     2        0.9000000        0.34938253    0.00000000
    2          6            6
                                      G and up 
                                                     0        0.0000010       -0.00011185    0.00000000
                                                     2        0.1200000       -0.02301220    0.00000000
                                                     2        0.1400000        0.13317600    0.00000000
                                                     2        0.1600000       -0.19690668    0.00000000
                                                     2        0.2200000        0.23163694    0.00000000
                                                     2        0.3000000       -0.36920489    0.00000000
                                                     2        0.4000000        0.36389709    0.00000000
                                                     2        0.7000000       -0.38862160    0.00000000
                                                     2        1.3000000        0.80803421    0.00000000
                                      S - G
                                                     0        0.0000010        0.00312304    0.00000000
                                                     2        0.1200000       -0.00632892    0.00000000
                                                     2        0.2200000       -0.03780897    0.00000000
                                                     2        0.4000000        0.26269560    0.00000000
                                                     2        0.9000000       -0.28209514    0.00000000
                                                     2        1.5000000       -0.72686737    0.00000000
                                      P - G
                                                     0        0.0000010       -0.01465594    0.00000000
                                                     2        0.1200000        0.07908409    0.00000000
                                                     2        0.1800000       -0.30615861    0.00000000
                                                     2        0.2600000        0.41506950    0.00000000
                                                     2        0.5000000       -0.36252345    0.00000000
                                                     2        0.9000000        0.15124193    0.00000000
                                                     2        3.0000000       -0.80425677    0.00000000
                                      D - G
                                                     0        0.0000010        0.01149631    0.00000000
                                                     2        0.1200000       -0.04713561    0.00000000
                                                     2        0.1600000        0.10865096    0.00000000
                                                     2        0.2800000       -0.15816701    0.00000000
                                                     2        0.7000000        0.65478804    0.00000000
                                                     2        1.3000000       -1.73816624    0.00000000
                                      F - G
                                                     0        0.0000010        0.00481868    0.00000000
                                                     2        0.1200000       -0.04746842    0.00000000
                                                     2        0.1600000        0.09327889    0.00000000
                                                     2        0.4000000       -0.19693326    0.00000000
                                                     2        0.9000000        0.34938253    0.00000000
    3          6            6
                                      G and up 
                                                     0        0.0000010       -0.00011185    0.00000000
                                                     2        0.1200000       -0.02301220    0.00000000
                                                     2        0.1400000        0.13317600    0.00000000
                                                     2        0.1600000       -0.19690668    0.00000000
                                                     2        0.2200000        0.23163694    0.00000000
                                                     2        0.3000000       -0.36920489    0.00000000
                                                     2        0.4000000        0.36389709    0.00000000
                                                     2        0.7000000       -0.38862160    0.00000000
                                                     2        1.3000000        0.80803421    0.00000000
                                      S - G
                                                     0        0.0000010        0.00312304    0.00000000
                                                     2        0.1200000       -0.00632892    0.00000000
                                                     2        0.2200000       -0.03780897    0.00000000
                                                     2        0.4000000        0.26269560    0.00000000
                                                     2        0.9000000       -0.28209514    0.00000000
                                                     2        1.5000000       -0.72686737    0.00000000
                                      P - G
                                                     0        0.0000010       -0.01465594    0.00000000
                                                     2        0.1200000        0.07908409    0.00000000
                                                     2        0.1800000       -0.30615861    0.00000000
                                                     2        0.2600000        0.41506950    0.00000000
                                                     2        0.5000000       -0.36252345    0.00000000
                                                     2        0.9000000        0.15124193    0.00000000
                                                     2        3.0000000       -0.80425677    0.00000000
                                      D - G
                                                     0        0.0000010        0.01149631    0.00000000
                                                     2        0.1200000       -0.04713561    0.00000000
                                                     2        0.1600000        0.10865096    0.00000000
                                                     2        0.2800000       -0.15816701    0.00000000
                                                     2        0.7000000        0.65478804    0.00000000
                                                     2        1.3000000       -1.73816624    0.00000000
                                      F - G
                                                     0        0.0000010        0.00481868    0.00000000
                                                     2        0.1200000       -0.04746842    0.00000000
                                                     2        0.1600000        0.09327889    0.00000000
                                                     2        0.4000000       -0.19693326    0.00000000
                                                     2        0.9000000        0.34938253    0.00000000
    4          1            1
                                      F and up 
                                                     0        0.0000010       -0.00000699    0.00000000
                                                     2        0.1200000        0.00123686    0.00000000
                                                     2        0.1800000       -0.00752022    0.00000000
                                                     2        0.2600000        0.02503380    0.00000000
                                                     2        0.4000000       -0.08702670    0.00000000
                                                     2        0.6000000        0.30134159    0.00000000
                                                     2        0.8000000       -0.50204959    0.00000000
                                                     2        1.2000000        0.52208372    0.00000000
                                      S - F
                                                     0        0.0000010       -0.01618346    0.00000000
                                                     2        0.1200000       -0.07880581    0.00000000
                                                     2        0.1600000        0.32040539    0.00000000
                                                     2        0.2400000       -0.47500956    0.00000000
                                                     2        0.5000000        0.54013668    0.00000000
                                                     2        1.5000000       -1.40434292    0.00000000
                                                     2        3.0000000        1.46283806    0.00000000
                                      P - F
                                                     0        0.0000010        0.00612970    0.00000000
                                                     2        0.1200000        0.02254406    0.00000000
                                                     2        0.1800000       -0.13874529    0.00000000
                                                     2        0.3000000        0.38299049    0.00000000
                                                     2        0.5000000       -0.57923512    0.00000000
                                                     2        1.0000000        0.63021625    0.00000000
                                                     2        2.0000000       -0.79201034    0.00000000
                                      D - F
                                                     0        0.0000010       -0.00296226    0.00000000
                                                     2        0.1200000       -0.00547344    0.00000000
                                                     2        0.1400000        0.01837884    0.00000000
                                                     2        0.2400000       -0.05565704    0.00000000
                                                     2        0.4000000        0.15376597    0.00000000
                                                     2        0.8000000       -0.32464795    0.00000000
    5          9            9
                                      G and up 
                                                     0        0.0000010        0.00013061    0.00000000
                                                     2        0.1200000        0.06713281    0.00000000
                                                     2        0.1400000       -0.24167382    0.00000000
                                                     2        0.1800000        0.63223557    0.00000000
                                                     2        0.2200000       -0.82578269    0.00000000
                                                     2        0.3000000        0.62544157    0.00000000
                                                     2        0.5000000       -0.74972011    0.00000000
                                                     2        0.8000000        1.07821461    0.00000000
                                                     2        2.5000000       -1.10703579    0.00000000
                                      S - G
                                                     0        0.0000010        0.01584301    0.00000000
                                                     2        0.1200000        0.08016155    0.00000000
                                                     2        0.1800000       -0.34633115    0.00000000
                                                     2        0.3000000        0.65132194    0.00000000
                                                     2        2.5000000       -2.36634383    0.00000000
                                      P - G
                                                     0        0.0000010        0.01590244    0.00000000
                                                     2        0.1200000       -0.11156199    0.00000000
                                                     2        0.1600000        0.22434929    0.00000000
                                                     2        0.3000000       -0.27751209    0.00000000
                                      D - G
                                                     0        0.0000010       -0.03628923    0.00000000
                                                     2        0.1200000        0.04690238    0.00000000
                                                     2        0.2600000       -0.08720270    0.00000000
                                      F - G
                                                     0        0.0000010        0.01127523    0.00000000
                                                     2        0.1400000       -0.04328550    0.00000000
                                                     2        0.2400000        0.03116441    0.00000000
                                                     2        0.4000000        0.20516616    0.00000000
    6          6            6
                                      G and up 
                                                     0        0.0000010       -0.00011185    0.00000000
                                                     2        0.1200000       -0.02301220    0.00000000
                                                     2        0.1400000        0.13317600    0.00000000
                                                     2        0.1600000       -0.19690668    0.00000000
                                                     2        0.2200000        0.23163694    0.00000000
                                                     2        0.3000000       -0.36920489    0.00000000
                                                     2        0.4000000        0.36389709    0.00000000
                                                     2        0.7000000       -0.38862160    0.00000000
                                                     2        1.3000000        0.80803421    0.00000000
                                      S - G
                                                     0        0.0000010        0.00312304    0.00000000
                                                     2        0.1200000       -0.00632892    0.00000000
                                                     2        0.2200000       -0.03780897    0.00000000
                                                     2        0.4000000        0.26269560    0.00000000
                                                     2        0.9000000       -0.28209514    0.00000000
                                                     2        1.5000000       -0.72686737    0.00000000
                                      P - G
                                                     0        0.0000010       -0.01465594    0.00000000
                                                     2        0.1200000        0.07908409    0.00000000
                                                     2        0.1800000       -0.30615861    0.00000000
                                                     2        0.2600000        0.41506950    0.00000000
                                                     2        0.5000000       -0.36252345    0.00000000
                                                     2        0.9000000        0.15124193    0.00000000
                                                     2        3.0000000       -0.80425677    0.00000000
                                      D - G
                                                     0        0.0000010        0.01149631    0.00000000
                                                     2        0.1200000       -0.04713561    0.00000000
                                                     2        0.1600000        0.10865096    0.00000000
                                                     2        0.2800000       -0.15816701    0.00000000
                                                     2        0.7000000        0.65478804    0.00000000
                                                     2        1.3000000       -1.73816624    0.00000000
                                      F - G
                                                     0        0.0000010        0.00481868    0.00000000
                                                     2        0.1200000       -0.04746842    0.00000000
                                                     2        0.1600000        0.09327889    0.00000000
                                                     2        0.4000000       -0.19693326    0.00000000
                                                     2        0.9000000        0.34938253    0.00000000
    7          1            1
                                      F and up 
                                                     0        0.0000010       -0.00000699    0.00000000
                                                     2        0.1200000        0.00123686    0.00000000
                                                     2        0.1800000       -0.00752022    0.00000000
                                                     2        0.2600000        0.02503380    0.00000000
                                                     2        0.4000000       -0.08702670    0.00000000
                                                     2        0.6000000        0.30134159    0.00000000
                                                     2        0.8000000       -0.50204959    0.00000000
                                                     2        1.2000000        0.52208372    0.00000000
                                      S - F
                                                     0        0.0000010       -0.01618346    0.00000000
                                                     2        0.1200000       -0.07880581    0.00000000
                                                     2        0.1600000        0.32040539    0.00000000
                                                     2        0.2400000       -0.47500956    0.00000000
                                                     2        0.5000000        0.54013668    0.00000000
                                                     2        1.5000000       -1.40434292    0.00000000
                                                     2        3.0000000        1.46283806    0.00000000
                                      P - F
                                                     0        0.0000010        0.00612970    0.00000000
                                                     2        0.1200000        0.02254406    0.00000000
                                                     2        0.1800000       -0.13874529    0.00000000
                                                     2        0.3000000        0.38299049    0.00000000
                                                     2        0.5000000       -0.57923512    0.00000000
                                                     2        1.0000000        0.63021625    0.00000000
                                                     2        2.0000000       -0.79201034    0.00000000
                                      D - F
                                                     0        0.0000010       -0.00296226    0.00000000
                                                     2        0.1200000       -0.00547344    0.00000000
                                                     2        0.1400000        0.01837884    0.00000000
                                                     2        0.2400000       -0.05565704    0.00000000
                                                     2        0.4000000        0.15376597    0.00000000
                                                     2        0.8000000       -0.32464795    0.00000000
    8          6            6
                                      G and up 
                                                     0        0.0000010       -0.00011185    0.00000000
                                                     2        0.1200000       -0.02301220    0.00000000
                                                     2        0.1400000        0.13317600    0.00000000
                                                     2        0.1600000       -0.19690668    0.00000000
                                                     2        0.2200000        0.23163694    0.00000000
                                                     2        0.3000000       -0.36920489    0.00000000
                                                     2        0.4000000        0.36389709    0.00000000
                                                     2        0.7000000       -0.38862160    0.00000000
                                                     2        1.3000000        0.80803421    0.00000000
                                      S - G
                                                     0        0.0000010        0.00312304    0.00000000
                                                     2        0.1200000       -0.00632892    0.00000000
                                                     2        0.2200000       -0.03780897    0.00000000
                                                     2        0.4000000        0.26269560    0.00000000
                                                     2        0.9000000       -0.28209514    0.00000000
                                                     2        1.5000000       -0.72686737    0.00000000
                                      P - G
                                                     0        0.0000010       -0.01465594    0.00000000
                                                     2        0.1200000        0.07908409    0.00000000
                                                     2        0.1800000       -0.30615861    0.00000000
                                                     2        0.2600000        0.41506950    0.00000000
                                                     2        0.5000000       -0.36252345    0.00000000
                                                     2        0.9000000        0.15124193    0.00000000
                                                     2        3.0000000       -0.80425677    0.00000000
                                      D - G
                                                     0        0.0000010        0.01149631    0.00000000
                                                     2        0.1200000       -0.04713561    0.00000000
                                                     2        0.1600000        0.10865096    0.00000000
                                                     2        0.2800000       -0.15816701    0.00000000
                                                     2        0.7000000        0.65478804    0.00000000
                                                     2        1.3000000       -1.73816624    0.00000000
                                      F - G
                                                     0        0.0000010        0.00481868    0.00000000
                                                     2        0.1200000       -0.04746842    0.00000000
                                                     2        0.1600000        0.09327889    0.00000000
                                                     2        0.4000000       -0.19693326    0.00000000
                                                     2        0.9000000        0.34938253    0.00000000
    9          6            6
                                      G and up 
                                                     0        0.0000010       -0.00011185    0.00000000
                                                     2        0.1200000       -0.02301220    0.00000000
                                                     2        0.1400000        0.13317600    0.00000000
                                                     2        0.1600000       -0.19690668    0.00000000
                                                     2        0.2200000        0.23163694    0.00000000
                                                     2        0.3000000       -0.36920489    0.00000000
                                                     2        0.4000000        0.36389709    0.00000000
                                                     2        0.7000000       -0.38862160    0.00000000
                                                     2        1.3000000        0.80803421    0.00000000
                                      S - G
                                                     0        0.0000010        0.00312304    0.00000000
                                                     2        0.1200000       -0.00632892    0.00000000
                                                     2        0.2200000       -0.03780897    0.00000000
                                                     2        0.4000000        0.26269560    0.00000000
                                                     2        0.9000000       -0.28209514    0.00000000
                                                     2        1.5000000       -0.72686737    0.00000000
                                      P - G
                                                     0        0.0000010       -0.01465594    0.00000000
                                                     2        0.1200000        0.07908409    0.00000000
                                                     2        0.1800000       -0.30615861    0.00000000
                                                     2        0.2600000        0.41506950    0.00000000
                                                     2        0.5000000       -0.36252345    0.00000000
                                                     2        0.9000000        0.15124193    0.00000000
                                                     2        3.0000000       -0.80425677    0.00000000
                                      D - G
                                                     0        0.0000010        0.01149631    0.00000000
                                                     2        0.1200000       -0.04713561    0.00000000
                                                     2        0.1600000        0.10865096    0.00000000
                                                     2        0.2800000       -0.15816701    0.00000000
                                                     2        0.7000000        0.65478804    0.00000000
                                                     2        1.3000000       -1.73816624    0.00000000
                                      F - G
                                                     0        0.0000010        0.00481868    0.00000000
                                                     2        0.1200000       -0.04746842    0.00000000
                                                     2        0.1600000        0.09327889    0.00000000
                                                     2        0.4000000       -0.19693326    0.00000000
                                                     2        0.9000000        0.34938253    0.00000000
   10          9            9
                                      G and up 
                                                     0        0.0000010        0.00013061    0.00000000
                                                     2        0.1200000        0.06713281    0.00000000
                                                     2        0.1400000       -0.24167382    0.00000000
                                                     2        0.1800000        0.63223557    0.00000000
                                                     2        0.2200000       -0.82578269    0.00000000
                                                     2        0.3000000        0.62544157    0.00000000
                                                     2        0.5000000       -0.74972011    0.00000000
                                                     2        0.8000000        1.07821461    0.00000000
                                                     2        2.5000000       -1.10703579    0.00000000
                                      S - G
                                                     0        0.0000010        0.01584301    0.00000000
                                                     2        0.1200000        0.08016155    0.00000000
                                                     2        0.1800000       -0.34633115    0.00000000
                                                     2        0.3000000        0.65132194    0.00000000
                                                     2        2.5000000       -2.36634383    0.00000000
                                      P - G
                                                     0        0.0000010        0.01590244    0.00000000
                                                     2        0.1200000       -0.11156199    0.00000000
                                                     2        0.1600000        0.22434929    0.00000000
                                                     2        0.3000000       -0.27751209    0.00000000
                                      D - G
                                                     0        0.0000010       -0.03628923    0.00000000
                                                     2        0.1200000        0.04690238    0.00000000
                                                     2        0.2600000       -0.08720270    0.00000000
                                      F - G
                                                     0        0.0000010        0.01127523    0.00000000
                                                     2        0.1400000       -0.04328550    0.00000000
                                                     2        0.2400000        0.03116441    0.00000000
                                                     2        0.4000000        0.20516616    0.00000000
   11          9            9
                                      G and up 
                                                     0        0.0000010        0.00013061    0.00000000
                                                     2        0.1200000        0.06713281    0.00000000
                                                     2        0.1400000       -0.24167382    0.00000000
                                                     2        0.1800000        0.63223557    0.00000000
                                                     2        0.2200000       -0.82578269    0.00000000
                                                     2        0.3000000        0.62544157    0.00000000
                                                     2        0.5000000       -0.74972011    0.00000000
                                                     2        0.8000000        1.07821461    0.00000000
                                                     2        2.5000000       -1.10703579    0.00000000
                                      S - G
                                                     0        0.0000010        0.01584301    0.00000000
                                                     2        0.1200000        0.08016155    0.00000000
                                                     2        0.1800000       -0.34633115    0.00000000
                                                     2        0.3000000        0.65132194    0.00000000
                                                     2        2.5000000       -2.36634383    0.00000000
                                      P - G
                                                     0        0.0000010        0.01590244    0.00000000
                                                     2        0.1200000       -0.11156199    0.00000000
                                                     2        0.1600000        0.22434929    0.00000000
                                                     2        0.3000000       -0.27751209    0.00000000
                                      D - G
                                                     0        0.0000010       -0.03628923    0.00000000
                                                     2        0.1200000        0.04690238    0.00000000
                                                     2        0.2600000       -0.08720270    0.00000000
                                      F - G
                                                     0        0.0000010        0.01127523    0.00000000
                                                     2        0.1400000       -0.04328550    0.00000000
                                                     2        0.2400000        0.03116441    0.00000000
                                                     2        0.4000000        0.20516616    0.00000000
   12          9            9
                                      G and up 
                                                     0        0.0000010        0.00013061    0.00000000
                                                     2        0.1200000        0.06713281    0.00000000
                                                     2        0.1400000       -0.24167382    0.00000000
                                                     2        0.1800000        0.63223557    0.00000000
                                                     2        0.2200000       -0.82578269    0.00000000
                                                     2        0.3000000        0.62544157    0.00000000
                                                     2        0.5000000       -0.74972011    0.00000000
                                                     2        0.8000000        1.07821461    0.00000000
                                                     2        2.5000000       -1.10703579    0.00000000
                                      S - G
                                                     0        0.0000010        0.01584301    0.00000000
                                                     2        0.1200000        0.08016155    0.00000000
                                                     2        0.1800000       -0.34633115    0.00000000
                                                     2        0.3000000        0.65132194    0.00000000
                                                     2        2.5000000       -2.36634383    0.00000000
                                      P - G
                                                     0        0.0000010        0.01590244    0.00000000
                                                     2        0.1200000       -0.11156199    0.00000000
                                                     2        0.1600000        0.22434929    0.00000000
                                                     2        0.3000000       -0.27751209    0.00000000
                                      D - G
                                                     0        0.0000010       -0.03628923    0.00000000
                                                     2        0.1200000        0.04690238    0.00000000
                                                     2        0.2600000       -0.08720270    0.00000000
                                      F - G
                                                     0        0.0000010        0.01127523    0.00000000
                                                     2        0.1400000       -0.04328550    0.00000000
                                                     2        0.2400000        0.03116441    0.00000000
                                                     2        0.4000000        0.20516616    0.00000000
 ======================================================================================================
   248 basis functions,   452 primitive gaussians,   268 cartesian basis functions
    37 alpha electrons       37 beta electrons
       nuclear repulsion energy       523.8394816239 Hartrees.
 NAtoms=   12 NActive=   12 NUniq=    6 SFac= 4.00D+00 NAtFMM=   60 NAOKFM=F Big=F
   4 Symmetry operations used in ECPInt.
 ECPInt:  NShTT=    5050 NPrTT=   30346 LenC2=    4998 LenP2D=   20782.
 LDataN:  DoStor=T MaxTD1= 6 Len=  172
 Initial guess from the checkpoint file:  "BDE49_expt_150_mol1.chk"
 B after Tr=     0.000000   -0.000000    0.000000
         Rot=    1.000000   -0.000000   -0.000000   -0.000000 Ang=   0.00 deg.
 Initial guess orbital symmetries:
       Occupied  (B2) (A1) (B2) (A1) (A1) (B2) (B2) (A1) (A1) (B2)
                 (A1) (B2) (A1) (B2) (A1) (A1) (B2) (B2) (A1) (A1)
                 (A1) (B2) (B2) (B1) (A1) (A2) (B1) (A2) (B2) (A1)
                 (B2) (A1) (A1) (B2) (B1) (B1) (A2)
       Virtual   (A1) (B2) (A1) (A2) (B2) (A1) (B1) (B1) (B2) (B1)
                 (A2) (A1) (B2) (A1) (A1) (A1) (B2) (B1) (A2) (B2)
                 (A1) (A2) (A1) (B2) (A1) (B2) (B2) (A1) (B1) (B2)
                 (A1) (B2) (A2) (A1) (A1) (B2) (A2) (A1) (B1) (B2)
                 (A1) (B2) (B2) (B1) (A1) (A2) (B2) (A1) (B2) (A1)
                 (A1) (B2) (A2) (B1) (A1) (B2) (B1) (B2) (A1) (A1)
                 (B2) (B2) (A1) (B1) (A2) (A2) (B2) (B1) (A1) (B2)
                 (A1) (A1) (B2) (B1) (A1) (B2) (B2) (B2) (A2) (B1)
                 (B2) (A1) (A2) (B1) (A2) (B1) (A2) (A1) (A1) (B2)
                 (B2) (A2) (A1) (B2) (A1) (B2) (A2) (B1) (A1) (B2)
                 (B2) (A1) (B1) (B2) (A1) (A2) (B1) (A1) (A2) (B1)
                 (B2) (A1) (B2) (A1) (A2) (B2) (A1) (B1) (A1) (B2)
                 (B1) (A1) (B2) (A1) (A1) (A2) (B1) (A2) (B1) (B2)
                 (B2) (A1) (A2) (B1) (B2) (A2) (A1) (A1) (B2) (A2)
                 (A1) (B2) (A1) (B1) (B2) (B2) (B1) (A1) (A2) (A1)
                 (A2) (A1) (B2) (B1) (B1) (A2) (B2) (A1) (B2) (A1)
                 (B2) (B2) (B2) (A2) (B1) (A1) (B2) (A1) (A2) (A1)
                 (B2) (A1) (A2) (B2) (A1) (A1) (B2) (B2) (A1) (B2)
                 (B2) (A1) (A1) (B2) (B2) (A1) (B2) (B2) (A1) (B2)
                 (B2) (A1) (B1) (B2) (B1) (A1) (A2) (A2) (B1) (B1)
                 (A2) (B2) (A1) (A1) (A2) (B2) (A1) (B2) (B2) (A1)
                 (B2)
 >>>>>>>>>> Convergence criterion not met.
 SCF Done:  E(RHF) =  -626.371538664     A.U. after    2 cycles
            NFock=  1  Conv=0.24D-01     -V/T= 1.9917

 **********************************************************************

            Population analysis using the SCF Density.

 **********************************************************************

 Orbital symmetries:
       Occupied  (B2) (A1) (B2) (A1) (A1) (B2) (B2) (A1) (A1) (B2)
                 (A1) (B2) (A1) (B2) (A1) (A1) (B2) (B2) (A1) (A1)
                 (A1) (B2) (B2) (B1) (A2) (A1) (B1) (A2) (B2) (B2)
                 (A1) (A1) (A1) (B2) (B1) (B1) (A2)
       Virtual   (A1) (B2) (A1) (A2) (B2) (A1) (B1) (B1) (B2) (B1)
                 (A2) (A1) (B2) (A1) (A1) (A1) (B2) (B1) (A2) (A1)
                 (B2) (A1) (A2) (B2) (A1) (B2) (B2) (A1) (B1) (B2)
                 (A1) (B2) (A2) (A1) (B2) (A1) (A2) (A1) (B1) (B2)
                 (A1) (B2) (B2) (A1) (B1) (B2) (A2) (B2) (A1) (A1)
                 (A1) (B2) (A2) (A1) (B1) (B2) (B1) (B2) (A1) (A1)
                 (B2) (B2) (A1) (B1) (A2) (A2) (B2) (B1) (A1) (B2)
                 (A1) (A1) (B2) (B1) (A1) (B2) (B2) (B2) (A2) (B1)
                 (B2) (A1) (A2) (B1) (A2) (B1) (A2) (A1) (A1) (B2)
                 (B2) (A2) (A1) (B2) (A1) (B2) (A2) (B1) (A1) (B2)
                 (B2) (A1) (B1) (B2) (A1) (A2) (B1) (A1) (A2) (B1)
                 (B2) (A1) (B2) (A1) (A2) (A1) (B1) (B2) (A1) (B2)
                 (B1) (A1) (B2) (A1) (A1) (A2) (B1) (B1) (A2) (B2)
                 (B2) (A1) (A2) (B1) (B2) (A1) (A2) (A1) (A2) (B2)
                 (B1) (A1) (B2) (A1) (B2) (A1) (B2) (B1) (A2) (A1)
                 (A2) (B2) (B1) (A1) (B1) (A2) (B2) (A1) (B2) (A1)
                 (B2) (B2) (B2) (A2) (B1) (A1) (B2) (A1) (A2) (A1)
                 (B2) (A1) (A2) (B2) (A1) (A1) (B2) (B2) (A1) (B2)
                 (B2) (A1) (B2) (A1) (B2) (A1) (B2) (B2) (A1) (B2)
                 (B2) (A1) (B1) (B2) (B1) (A1) (A2) (A2) (B1) (B1)
                 (A2) (B2) (A1) (A1) (A2) (B2) (A1) (B2) (B2) (A1)
                 (B2)
 The electronic state is 1-A1.
 Alpha  occ. eigenvalues --  -26.17201 -26.17196 -26.16580 -26.16578 -11.38368
 Alpha  occ. eigenvalues --  -11.38255 -11.37663 -11.37658 -11.29372 -11.29260
 Alpha  occ. eigenvalues --   -1.71854  -1.71101  -1.70348  -1.70156  -1.20742
 Alpha  occ. eigenvalues --   -1.07736  -1.07550  -0.93951  -0.93833  -0.85748
 Alpha  occ. eigenvalues --   -0.84439  -0.84296  -0.80360  -0.80255  -0.78553
 Alpha  occ. eigenvalues --   -0.77697  -0.77423  -0.76854  -0.74987  -0.72630
 Alpha  occ. eigenvalues --   -0.71629  -0.63651  -0.62461  -0.58640  -0.54806
 Alpha  occ. eigenvalues --   -0.38824  -0.38068
 Alpha virt. eigenvalues --    0.02895   0.04450   0.06442   0.08038   0.08713
 Alpha virt. eigenvalues --    0.08950   0.09197   0.10764   0.11017   0.13148
 Alpha virt. eigenvalues --    0.13276   0.13445   0.14104   0.14424   0.14733
 Alpha virt. eigenvalues --    0.15353   0.16514   0.16701   0.17006   0.17858
 Alpha virt. eigenvalues --    0.17861   0.18675   0.18764   0.22984   0.24541
 Alpha virt. eigenvalues --    0.25327   0.27084   0.27839   0.28680   0.29910
 Alpha virt. eigenvalues --    0.32522   0.32810   0.32920   0.33885   0.34178
 Alpha virt. eigenvalues --    0.34837   0.35370   0.35920   0.36705   0.37157
 Alpha virt. eigenvalues --    0.38027   0.38733   0.39523   0.40846   0.41231
 Alpha virt. eigenvalues --    0.41676   0.42022   0.44111   0.44745   0.46426
 Alpha virt. eigenvalues --    0.47012   0.49603   0.50302   0.51635   0.51690
 Alpha virt. eigenvalues --    0.52081   0.53468   0.56743   0.57179   0.58021
 Alpha virt. eigenvalues --    0.60899   0.62416   0.63088   0.63297   0.63360
 Alpha virt. eigenvalues --    0.67204   0.67611   0.68370   0.68763   0.71045
 Alpha virt. eigenvalues --    0.71183   0.72288   0.73597   0.75876   0.76410
 Alpha virt. eigenvalues --    0.77941   0.85055   0.85688   0.86421   0.87255
 Alpha virt. eigenvalues --    0.87752   0.87755   0.88343   0.89810   0.90300
 Alpha virt. eigenvalues --    0.90525   0.92036   0.93022   0.94143   0.98498
 Alpha virt. eigenvalues --    0.98953   1.02543   1.03849   1.06781   1.10961
 Alpha virt. eigenvalues --    1.11325   1.11871   1.12025   1.16447   1.20252
 Alpha virt. eigenvalues --    1.21606   1.30520   1.32799   1.35537   1.36356
 Alpha virt. eigenvalues --    1.39900   1.42563   1.43189   1.44589   1.45861
 Alpha virt. eigenvalues --    1.46475   1.46964   1.53086   1.54206   1.56704
 Alpha virt. eigenvalues --    1.56809   1.57238   1.57399   1.58830   1.60458
 Alpha virt. eigenvalues --    1.61431   1.61997   1.62227   1.63632   1.64322
 Alpha virt. eigenvalues --    1.66001   1.67247   1.68127   1.68606   1.69082
 Alpha virt. eigenvalues --    1.73164   1.73753   1.73763   1.74577   1.76539
 Alpha virt. eigenvalues --    1.81864   1.82749   1.85409   1.87863   1.88112
 Alpha virt. eigenvalues --    1.90337   1.90845   1.90906   1.91366   1.91880
 Alpha virt. eigenvalues --    1.93515   1.94555   1.94994   1.96945   2.04103
 Alpha virt. eigenvalues --    2.05485   2.05798   2.07945   2.08084   2.11401
 Alpha virt. eigenvalues --    2.11967   2.12712   2.14348   2.16814   2.17358
 Alpha virt. eigenvalues --    2.21517   2.25253   2.27926   2.35238   2.37105
 Alpha virt. eigenvalues --    2.39511   2.47187   2.47256   2.53799   2.58110
 Alpha virt. eigenvalues --    2.61497   2.66165   2.70458   2.77391   2.80516
 Alpha virt. eigenvalues --    2.83048   2.88047   2.91058   2.97826   3.07533
 Alpha virt. eigenvalues --    3.15878   3.17604   3.22482   3.23199   3.31286
 Alpha virt. eigenvalues --    3.44785   3.50845   3.57822   3.76058   3.78053
 Alpha virt. eigenvalues --    4.60333   4.91266   4.93036   4.95451   4.96448
 Alpha virt. eigenvalues --    4.98098   4.98423   4.99938   5.00158   5.01258
 Alpha virt. eigenvalues --    5.02139   5.03117   5.04493   5.06981   5.07870
 Alpha virt. eigenvalues --    5.09295   5.10992   5.16438   5.22319   5.22404
 Alpha virt. eigenvalues --    5.35207
          Condensed to atoms (all electrons):
 Mulliken charges:
               1
     1  C    0.399506
     2  C    0.399506
     3  C    0.243443
     4  H   -0.400426
     5  F   -0.289777
     6  C    0.243443
     7  H   -0.400426
     8  C    0.283076
     9  C    0.283076
    10  F   -0.235821
    11  F   -0.289777
    12  F   -0.235821
 Sum of Mulliken charges =  -0.00000
 Mulliken charges with hydrogens summed into heavy atoms:
               1
     1  C   -0.000921
     2  C   -0.000921
     3  C    0.243443
     5  F   -0.289777
     6  C    0.243443
     8  C    0.283076
     9  C    0.283076
    10  F   -0.235821
    11  F   -0.289777
    12  F   -0.235821
 Electronic spatial extent (au):  <R**2>=           1297.7982
 Charge=             -0.0000 electrons
 Dipole moment (field-independent basis, Debye):
    X=             -0.0000    Y=              0.0000    Z=             -3.4937  Tot=              3.4937

 Test job not archived.
 1\1\GINC-SE044\SP\RHF\Aug-CC-pVDZ\C6H2F4\OHZDE\08-Apr-2025\0\\#t hf au
 g-cc-pvdz iop(5/13=1,5/36=2,99/5=2) pseudo=read geom=check guess=(read
 ,tcheck) scf=(maxcycle=1)\\title\\0,1\C,0,0.,0.696916,-1.729572\C,0,0.
 ,-0.696916,-1.729572\C,0,0.,-1.381851,-0.52657\H,0,0.,-1.259915,-2.653
 452\F,0,0.,-2.723674,-0.50073\C,0,0.,1.381851,-0.52657\H,0,0.,1.259915
 ,-2.653452\C,0,0.,0.695005,0.684657\C,0,0.,-0.695005,0.684657\F,0,0.,-
 1.35908,1.843214\F,0,0.,2.723674,-0.50073\F,0,0.,1.35908,1.843214\\Ver
 sion=ES64L-G16RevC.01\State=1-A1\HF=-626.3715387\RMSD=2.350e-02\Dipole
 =0.,0.,-1.3745361\Quadrupole=1.7194156,-5.6837621,3.9643465,0.,0.,0.\P
 G=C02V [SGV(C6H2F4)]\\@


 ACCORDING TO HEN3RY, LIFE IS MUCH LIKE A SEWER........
 YOU GET OUT OF IT JUST WHAT YOU PUT INTO IT...........
                         TOM LEHRER - (THE 3 IS SILENT)
 Job cpu time:       0 days  0 hours  0 minutes 58.8 seconds.
 Elapsed time:       0 days  0 hours  0 minutes  4.7 seconds.
 File lengths (MBytes):  RWF=     14 Int=      0 D2E=      0 Chk=      9 Scr=      1
 Normal termination of Gaussian 16 at Tue Apr  8 22:43:57 2025.
