 Entering Gaussian System, Link 0=g16
 Input=BH10_92_reverse_mol2.gjf
 Output=BH10_92_reverse_mol2.log
 Initial command:
 /arc/software/Gaussian/g16.c01/l1.exe "/tmp/slurm/4856444/Gau-1607079.inp" -scrdir="/tmp/slurm/4856444/"
 Entering Link 1 = /arc/software/Gaussian/g16.c01/l1.exe PID=   1607080.
  
 Copyright (c) 1988-2019, Gaussian, Inc.  All Rights Reserved.
  
 This is part of the Gaussian(R) 16 program.  It is based on
 the Gaussian(R) 09 system (copyright 2009, Gaussian, Inc.),
 the Gaussian(R) 03 system (copyright 2003, Gaussian, Inc.),
 the Gaussian(R) 98 system (copyright 1998, Gaussian, Inc.),
 the Gaussian(R) 94 system (copyright 1995, Gaussian, Inc.),
 the Gaussian 92(TM) system (copyright 1992, Gaussian, Inc.),
 the Gaussian 90(TM) system (copyright 1990, Gaussian, Inc.),
 the Gaussian 88(TM) system (copyright 1988, Gaussian, Inc.),
 the Gaussian 86(TM) system (copyright 1986, Carnegie Mellon
 University), and the Gaussian 82(TM) system (copyright 1983,
 Carnegie Mellon University). Gaussian is a federally registered
 trademark of Gaussian, Inc.
  
 This software contains proprietary and confidential information,
 including trade secrets, belonging to Gaussian, Inc.
  
 This software is provided under written license and may be
 used, copied, transmitted, or stored only in accord with that
 written license.
  
 The following legend is applicable only to US Government
 contracts under FAR:
  
                    RESTRICTED RIGHTS LEGEND
  
 Use, reproduction and disclosure by the US Government is
 subject to restrictions as set forth in subparagraphs (a)
 and (c) of the Commercial Computer Software - Restricted
 Rights clause in FAR 52.227-19.
  
 Gaussian, Inc.
 340 Quinnipiac St., Bldg. 40, Wallingford CT 06492
  
  
 ---------------------------------------------------------------
 Warning -- This program may not be used in any manner that
 competes with the business of Gaussian, Inc. or will provide
 assistance to any competitor of Gaussian, Inc.  The licensee
 of this program is prohibited from giving any competitor of
 Gaussian, Inc. access to this program.  By using this program,
 the user acknowledges that Gaussian, Inc. is engaged in the
 business of creating and licensing software in the field of
 computational chemistry and represents and warrants to the
 licensee that it is not a competitor of Gaussian, Inc. and that
 it will not use this program in any manner prohibited above.
 ---------------------------------------------------------------
  

 Cite this work as:
 Gaussian 16, Revision C.01,
 M. J. Frisch, G. W. Trucks, H. B. Schlegel, G. E. Scuseria, 
 M. A. Robb, J. R. Cheeseman, G. Scalmani, V. Barone, 
 G. A. Petersson, H. Nakatsuji, X. Li, M. Caricato, A. V. Marenich, 
 J. Bloino, B. G. Janesko, R. Gomperts, B. Mennucci, H. P. Hratchian, 
 J. V. Ortiz, A. F. Izmaylov, J. L. Sonnenberg, D. Williams-Young, 
 F. Ding, F. Lipparini, F. Egidi, J. Goings, B. Peng, A. Petrone, 
 T. Henderson, D. Ranasinghe, V. G. Zakrzewski, J. Gao, N. Rega, 
 G. Zheng, W. Liang, M. Hada, M. Ehara, K. Toyota, R. Fukuda, 
 J. Hasegawa, M. Ishida, T. Nakajima, Y. Honda, O. Kitao, H. Nakai, 
 T. Vreven, K. Throssell, J. A. Montgomery, Jr., J. E. Peralta, 
 F. Ogliaro, M. J. Bearpark, J. J. Heyd, E. N. Brothers, K. N. Kudin, 
 V. N. Staroverov, T. A. Keith, R. Kobayashi, J. Normand, 
 K. Raghavachari, A. P. Rendell, J. C. Burant, S. S. Iyengar, 
 J. Tomasi, M. Cossi, J. M. Millam, M. Klene, C. Adamo, R. Cammi, 
 J. W. Ochterski, R. L. Martin, K. Morokuma, O. Farkas, 
 J. B. Foresman, and D. J. Fox, Gaussian, Inc., Wallingford CT, 2019.
 
 ******************************************
 Gaussian 16:  ES64L-G16RevC.01  3-Jul-2019
                 9-Apr-2025 
 ******************************************
 %nprocs=16
 Will use up to   16 processors via shared memory.
 %mem=30GB
 %chk=BH10_92_reverse_mol2.chk
 ----------------------------------------------------------------------
 #t hf aug-cc-pvdz symm=none int=(grid=ultrafine) guess=(read,tcheck) s
 table=(opt,rrhf)
 ----------------------------------------------------------------------
 -----
 title
 -----
 Symbolic Z-matrix:
 Charge =  0 Multiplicity = 1
 C                     0.52252  -1.18025  -0.11544 
 C                     0.34203  -0.87541   1.34678 
 C                     0.49274   1.16943   0.24441 
 C                     0.32621   0.4375    1.54855 
 S                     1.76424   0.11943  -0.64661 
 C                    -2.62665  -0.17079   0.35993 
 C                    -0.70989  -0.65903  -0.89281 
 C                    -0.71036   0.88372  -0.68685 
 C                    -2.10419   1.18515  -0.11797 
 H                    -2.43459  -0.32179   1.42427 
 H                    -2.7441    1.58216  -0.90687 
 H                    -2.07634   1.91875   0.68897 
 H                    -3.69305  -0.30371   0.17463 
 O                     3.02667  -0.0037    0.14023 
 O                    -1.93798  -1.15984  -0.40233 
 H                     0.20502  -1.64084   2.09698 
 H                     0.18396   0.93582   2.49729 
 H                    -0.6399   -0.94263  -1.94371 
 H                     0.83762  -2.18658  -0.37543 
 H                    -0.55985   1.40075  -1.63424 
 H                     0.78944   2.21358   0.30109 
 
                    Distance matrix (angstroms):
                    1          2          3          4          5
     1  C    0.000000
     2  C    1.504522   0.000000
     3  C    2.377263   2.327939   0.000000
     4  C    2.329057   1.328413   1.504740   0.000000
     5  S    1.874344   2.643101   1.874343   2.643452   0.000000
     6  C    3.340996   3.206775   3.397076   3.240715   4.514120
     7  C    1.547517   2.483768   2.466344   2.869864   2.605366
     8  C    2.471121   2.887500   1.548001   2.504113   2.590251
     9  C    3.534788   3.517865   2.622135   3.040251   4.047220
    10  H    3.442698   2.832336   3.490712   2.866010   4.702491
    11  H    4.350640   4.543431   3.460189   4.094651   4.746837
    12  H    4.123699   3.753464   2.712790   2.950459   4.446499
    13  H    4.315490   4.240589   4.437991   4.311781   5.534929
    14  O    2.778562   3.069679   2.794269   3.077419   1.492655
    15  O    2.477254   2.887683   3.428140   3.388800   3.924619
    16  H    2.282054   1.080494   3.378231   2.152894   3.613448
    17  H    3.379159   2.151559   2.285906   1.081046   3.612184
    18  H    2.179503   3.434528   3.245232   3.877368   2.930924
    19  H    1.086086   2.220537   3.430154   3.293786   2.499964
    20  H    3.184306   3.857553   2.165816   3.441380   2.831710
    21  H    3.429696   3.291731   1.086964   2.219283   2.496769
                    6          7          8          9         10
     6  C    0.000000
     7  C    2.341303   0.000000
     8  C    2.424851   1.556433   0.000000
     9  C    1.529686   2.438330   1.535333   0.000000
    10  H    1.092015   2.908122   2.980440   2.181407   0.000000
    11  H    2.165969   3.026736   2.161560   1.090627   3.025727
    12  H    2.185701   3.318753   2.197736   1.090911   2.385167
    13  H    1.090503   3.188243   3.323931   2.196990   1.773588
    14  O    5.660057   3.931734   3.928992   5.273120   5.619195
    15  O    1.426010   1.414068   2.400856   2.368005   2.070116
    16  H    3.632736   3.277176   3.867946   4.269042   3.026552
    17  H    3.700331   3.851659   3.307753   3.483875   3.096742
    18  H    3.138414   1.090738   2.218154   3.163055   3.866470
    19  H    4.074961   2.235144   3.452523   4.482085   4.174173
    20  H    3.273853   2.194290   1.089737   2.174981   3.979479
    21  H    4.166339   3.453299   2.234715   3.099415   4.252533
                   11         12         13         14         15
    11  H    0.000000
    12  H    1.762360   0.000000
    13  H    2.372050   2.795994   0.000000
    14  O    6.075625   5.480658   6.726498   0.000000
    15  O    2.902227   3.269210   2.036193   5.126285   0.000000
    16  H    5.301717   4.456205   4.547341   3.804049   3.327219
    17  H    4.536476   3.056977   4.686402   3.810433   4.159590
    18  H    3.446338   4.145093   3.770577   4.320665   2.026830
    19  H    5.226329   5.145655   4.937073   3.134136   2.959541
    20  H    2.309313   2.822294   3.999259   4.240798   3.158075
    21  H    3.787317   2.906896   5.142508   3.153955   4.394719
                   16         17         18         19         20
    16  H    0.000000
    17  H    2.607657   0.000000
    18  H    4.186711   4.891804   0.000000
    19  H    2.609760   4.292920   2.487960   0.000000
    20  H    4.874248   4.223614   2.365080   4.050482   0.000000
    21  H    4.292243   2.612004   4.128412   4.452123   2.495349
                   21
    21  H    0.000000
 Symmetry turned off by external request.
 Rotational constants (GHZ):           2.2331537           0.8398428           0.8187742
   347 basis functions,   621 primitive gaussians,   369 cartesian basis functions
    45 alpha electrons       45 beta electrons
       nuclear repulsion energy       772.8642411057 Hartrees.
 NAtoms=   21 NActive=   21 NUniq=   21 SFac= 1.00D+00 NAtFMM=   60 NAOKFM=F Big=F
 ExpMin= 2.97D-02 ExpMax= 1.11D+05 ExpMxC= 1.07D+03 IAcc=3 IRadAn=         5 AccDes= 0.00D+00
 Harris functional with IExCor=  205 and IRadAn=       5 diagonalized for initial guess.
 HarFok:  IExCor=  205 AccDes= 0.00D+00 IRadAn=         5 IDoV= 1 UseB2=F ITyADJ=14
 ICtDFT=  3500011 ScaDFX=  1.000000  1.000000  1.000000  1.000000
 FoFCou: FMM=F IPFlag=           0 FMFlag=      100000 FMFlg1=           0
         NFxFlg=           0 DoJE=T BraDBF=F KetDBF=T FulRan=T
         wScrn=  0.000000 ICntrl=       500 IOpCl=  0 I1Cent=   200000004 NGrid=           0
         NMat0=    1 NMatS0=      1 NMatT0=    0 NMatD0=    1 NMtDS0=    0 NMtDT0=    0
 Symmetry not used in FoFCou.
 SCF Done:  E(RHF) =  -855.971973097     A.U. after   15 cycles
            NFock= 15  Conv=0.69D-08     -V/T= 2.0006

 **********************************************************************

            Population analysis using the SCF Density.

 **********************************************************************

 Alpha  occ. eigenvalues --  -92.07472 -20.57727 -20.51799 -11.30921 -11.28977
 Alpha  occ. eigenvalues --  -11.28456 -11.27919 -11.26510 -11.25502 -11.25261
 Alpha  occ. eigenvalues --  -11.24974  -9.06318  -6.74550  -6.74409  -6.74264
 Alpha  occ. eigenvalues --   -1.39884  -1.34262  -1.18959  -1.07757  -1.03599
 Alpha  occ. eigenvalues --   -0.99051  -0.95095  -0.82932  -0.81819  -0.80256
 Alpha  occ. eigenvalues --   -0.73202  -0.72861  -0.69042  -0.67561  -0.62352
 Alpha  occ. eigenvalues --   -0.61150  -0.59453  -0.58290  -0.57405  -0.55657
 Alpha  occ. eigenvalues --   -0.54326  -0.52943  -0.51541  -0.49666  -0.47875
 Alpha  occ. eigenvalues --   -0.47585  -0.43612  -0.39537  -0.39240  -0.34456
 Alpha virt. eigenvalues --    0.02763   0.03672   0.03850   0.04286   0.05309
 Alpha virt. eigenvalues --    0.05592   0.05805   0.06401   0.07585   0.08402
 Alpha virt. eigenvalues --    0.09065   0.09445   0.11577   0.12074   0.12591
 Alpha virt. eigenvalues --    0.12939   0.13335   0.13861   0.14387   0.14785
 Alpha virt. eigenvalues --    0.14957   0.15187   0.15420   0.15870   0.16284
 Alpha virt. eigenvalues --    0.17101   0.17409   0.17895   0.18112   0.18412
 Alpha virt. eigenvalues --    0.18590   0.18817   0.19324   0.19574   0.19844
 Alpha virt. eigenvalues --    0.20918   0.22012   0.22777   0.22851   0.23096
 Alpha virt. eigenvalues --    0.23831   0.25042   0.25598   0.28034   0.28402
 Alpha virt. eigenvalues --    0.28840   0.29658   0.30485   0.30739   0.31343
 Alpha virt. eigenvalues --    0.32129   0.33717   0.33874   0.34544   0.34927
 Alpha virt. eigenvalues --    0.35801   0.36393   0.36805   0.37017   0.37416
 Alpha virt. eigenvalues --    0.38514   0.39013   0.40016   0.40811   0.40952
 Alpha virt. eigenvalues --    0.41708   0.42008   0.42527   0.42794   0.43262
 Alpha virt. eigenvalues --    0.44128   0.44317   0.44741   0.45679   0.46601
 Alpha virt. eigenvalues --    0.47170   0.47617   0.47832   0.48288   0.49671
 Alpha virt. eigenvalues --    0.50557   0.51445   0.51515   0.52961   0.53783
 Alpha virt. eigenvalues --    0.54353   0.55342   0.55747   0.56032   0.56930
 Alpha virt. eigenvalues --    0.57043   0.58242   0.59327   0.59670   0.60300
 Alpha virt. eigenvalues --    0.61967   0.62945   0.63552   0.64795   0.65806
 Alpha virt. eigenvalues --    0.66021   0.66532   0.67027   0.67248   0.68362
 Alpha virt. eigenvalues --    0.68805   0.69673   0.70088   0.70517   0.71684
 Alpha virt. eigenvalues --    0.72497   0.73450   0.74789   0.75597   0.75770
 Alpha virt. eigenvalues --    0.75963   0.76934   0.77008   0.77962   0.79033
 Alpha virt. eigenvalues --    0.79707   0.79890   0.81501   0.81701   0.82352
 Alpha virt. eigenvalues --    0.82898   0.83677   0.83915   0.85106   0.85430
 Alpha virt. eigenvalues --    0.86088   0.86744   0.87361   0.87780   0.88664
 Alpha virt. eigenvalues --    0.90130   0.90382   0.91443   0.91546   0.93080
 Alpha virt. eigenvalues --    0.94922   0.96229   0.97556   0.98428   1.00145
 Alpha virt. eigenvalues --    1.00582   1.00944   1.01264   1.03044   1.03620
 Alpha virt. eigenvalues --    1.05627   1.06045   1.08853   1.10095   1.12288
 Alpha virt. eigenvalues --    1.13150   1.14011   1.15225   1.15475   1.17047
 Alpha virt. eigenvalues --    1.19497   1.19936   1.21278   1.23014   1.23849
 Alpha virt. eigenvalues --    1.24041   1.26190   1.27865   1.29076   1.30112
 Alpha virt. eigenvalues --    1.32128   1.32457   1.34791   1.35711   1.37768
 Alpha virt. eigenvalues --    1.39323   1.41632   1.42224   1.43461   1.45150
 Alpha virt. eigenvalues --    1.46077   1.46626   1.49271   1.49720   1.53571
 Alpha virt. eigenvalues --    1.55164   1.55835   1.58701   1.59554   1.61792
 Alpha virt. eigenvalues --    1.64395   1.66530   1.68085   1.68433   1.69816
 Alpha virt. eigenvalues --    1.70288   1.73063   1.73595   1.75448   1.77798
 Alpha virt. eigenvalues --    1.78150   1.78875   1.79996   1.81596   1.82486
 Alpha virt. eigenvalues --    1.84117   1.84931   1.85728   1.87545   1.89658
 Alpha virt. eigenvalues --    1.91209   1.92249   1.94436   1.95544   1.96521
 Alpha virt. eigenvalues --    1.98721   2.00221   2.02113   2.02423   2.03096
 Alpha virt. eigenvalues --    2.04675   2.05639   2.07351   2.09713   2.09923
 Alpha virt. eigenvalues --    2.12028   2.13360   2.14271   2.15286   2.16519
 Alpha virt. eigenvalues --    2.18100   2.19171   2.20519   2.23769   2.24534
 Alpha virt. eigenvalues --    2.25421   2.26704   2.28073   2.28579   2.30739
 Alpha virt. eigenvalues --    2.31542   2.33034   2.35093   2.36513   2.39057
 Alpha virt. eigenvalues --    2.41220   2.42650   2.43453   2.45881   2.47126
 Alpha virt. eigenvalues --    2.47996   2.50582   2.52031   2.52993   2.55791
 Alpha virt. eigenvalues --    2.57033   2.59494   2.59725   2.61148   2.62741
 Alpha virt. eigenvalues --    2.67088   2.69231   2.70263   2.75055   2.75322
 Alpha virt. eigenvalues --    2.80121   2.82074   2.83223   2.85050   2.87962
 Alpha virt. eigenvalues --    2.89125   2.92861   2.95359   2.96874   2.98759
 Alpha virt. eigenvalues --    3.01390   3.02942   3.05184   3.08272   3.12169
 Alpha virt. eigenvalues --    3.13880   3.17119   3.22780   3.32935   3.38359
 Alpha virt. eigenvalues --    3.41701   3.49885   3.58003   3.71776   3.77881
 Alpha virt. eigenvalues --    3.78312   3.84192   3.87468   3.90412   3.91816
 Alpha virt. eigenvalues --    3.96653   4.03696   4.10880   4.11776   4.24801
 Alpha virt. eigenvalues --    4.46955   5.39538
          Condensed to atoms (all electrons):
 Mulliken charges:
               1
     1  C   -0.166001
     2  C    0.728224
     3  C    0.009087
     4  C    0.620072
     5  S    1.562762
     6  C    1.023717
     7  C    1.169170
     8  C   -0.160015
     9  C    0.451953
    10  H   -0.160508
    11  H   -0.126670
    12  H   -0.142253
    13  H   -0.275306
    14  O   -1.184992
    15  O   -1.110433
    16  H   -0.424378
    17  H   -0.441131
    18  H   -0.319052
    19  H   -0.331751
    20  H   -0.275067
    21  H   -0.447428
 Sum of Mulliken charges =  -0.00000
 Mulliken charges with hydrogens summed into heavy atoms:
               1
     1  C   -0.497752
     2  C    0.303846
     3  C   -0.438341
     4  C    0.178941
     5  S    1.562762
     6  C    0.587904
     7  C    0.850118
     8  C   -0.435082
     9  C    0.183030
    14  O   -1.184992
    15  O   -1.110433
 Electronic spatial extent (au):  <R**2>=           1596.7688
 Charge=             -0.0000 electrons
 Dipole moment (field-independent basis, Debye):
    X=             -4.6416    Y=              1.6592    Z=             -0.0636  Tot=              4.9297
 NROrb=    347 NOA=    45 NOB=    45 NVA=   302 NVB=   302

 **** Warning!!: The largest alpha MO coefficient is  0.94700855D+02

    12 initial guesses have been made.
 Iteration     1 Dimension    12 NMult     0 NNew     12
 Iteration     2 Dimension    24 NMult    12 NNew     12
 Iteration     3 Dimension    27 NMult    24 NNew      3
 Iteration     4 Dimension    30 NMult    27 NNew      3
 Iteration     5 Dimension    33 NMult    30 NNew      3
 Iteration     6 Dimension    36 NMult    33 NNew      3
 Iteration     7 Dimension    39 NMult    36 NNew      3
 ***********************************************************************
 Stability analysis using <AA,BB:AA,BB> singles matrix:
 ***********************************************************************
 Ground to excited state transition densities written to RWF  633

 Eigenvectors of the stability matrix:
 
 Excited state symmetry could not be determined.
 Eigenvector   1:      Singlet-?Sym  Eigenvalue= 0.1974207  <S**2>=0.000
      45 -> 48        -0.11000
      45 -> 50        -0.12930
      45 -> 55         0.24101
      45 -> 56         0.10363
      45 -> 57         0.48848
      45 -> 62        -0.11776
 The wavefunction is stable under the perturbations considered.
 The wavefunction is already stable.

 **********************************************************************

            Population analysis using the SCF Density.

 **********************************************************************

 Alpha  occ. eigenvalues --  -92.07472 -20.57727 -20.51799 -11.30921 -11.28977
 Alpha  occ. eigenvalues --  -11.28456 -11.27919 -11.26510 -11.25502 -11.25261
 Alpha  occ. eigenvalues --  -11.24974  -9.06318  -6.74550  -6.74409  -6.74264
 Alpha  occ. eigenvalues --   -1.39884  -1.34262  -1.18959  -1.07757  -1.03599
 Alpha  occ. eigenvalues --   -0.99051  -0.95095  -0.82932  -0.81819  -0.80256
 Alpha  occ. eigenvalues --   -0.73202  -0.72861  -0.69042  -0.67561  -0.62352
 Alpha  occ. eigenvalues --   -0.61150  -0.59453  -0.58290  -0.57405  -0.55657
 Alpha  occ. eigenvalues --   -0.54326  -0.52943  -0.51541  -0.49666  -0.47875
 Alpha  occ. eigenvalues --   -0.47585  -0.43612  -0.39537  -0.39240  -0.34456
 Alpha virt. eigenvalues --    0.02763   0.03672   0.03850   0.04286   0.05309
 Alpha virt. eigenvalues --    0.05592   0.05805   0.06401   0.07585   0.08402
 Alpha virt. eigenvalues --    0.09065   0.09445   0.11577   0.12074   0.12591
 Alpha virt. eigenvalues --    0.12939   0.13335   0.13861   0.14387   0.14785
 Alpha virt. eigenvalues --    0.14957   0.15187   0.15420   0.15870   0.16284
 Alpha virt. eigenvalues --    0.17101   0.17409   0.17895   0.18112   0.18412
 Alpha virt. eigenvalues --    0.18590   0.18817   0.19324   0.19574   0.19844
 Alpha virt. eigenvalues --    0.20918   0.22012   0.22777   0.22851   0.23096
 Alpha virt. eigenvalues --    0.23831   0.25042   0.25598   0.28034   0.28402
 Alpha virt. eigenvalues --    0.28840   0.29658   0.30485   0.30739   0.31343
 Alpha virt. eigenvalues --    0.32129   0.33717   0.33874   0.34544   0.34927
 Alpha virt. eigenvalues --    0.35801   0.36393   0.36805   0.37017   0.37416
 Alpha virt. eigenvalues --    0.38514   0.39013   0.40016   0.40811   0.40952
 Alpha virt. eigenvalues --    0.41708   0.42008   0.42527   0.42794   0.43262
 Alpha virt. eigenvalues --    0.44128   0.44317   0.44741   0.45679   0.46601
 Alpha virt. eigenvalues --    0.47170   0.47617   0.47832   0.48288   0.49671
 Alpha virt. eigenvalues --    0.50557   0.51445   0.51515   0.52961   0.53783
 Alpha virt. eigenvalues --    0.54353   0.55342   0.55747   0.56032   0.56930
 Alpha virt. eigenvalues --    0.57043   0.58242   0.59327   0.59670   0.60300
 Alpha virt. eigenvalues --    0.61967   0.62945   0.63552   0.64795   0.65806
 Alpha virt. eigenvalues --    0.66021   0.66532   0.67027   0.67248   0.68362
 Alpha virt. eigenvalues --    0.68805   0.69673   0.70088   0.70517   0.71684
 Alpha virt. eigenvalues --    0.72497   0.73450   0.74789   0.75597   0.75770
 Alpha virt. eigenvalues --    0.75963   0.76934   0.77008   0.77962   0.79033
 Alpha virt. eigenvalues --    0.79707   0.79890   0.81501   0.81701   0.82352
 Alpha virt. eigenvalues --    0.82898   0.83677   0.83915   0.85106   0.85430
 Alpha virt. eigenvalues --    0.86088   0.86744   0.87361   0.87780   0.88664
 Alpha virt. eigenvalues --    0.90130   0.90382   0.91443   0.91546   0.93080
 Alpha virt. eigenvalues --    0.94922   0.96229   0.97556   0.98428   1.00145
 Alpha virt. eigenvalues --    1.00582   1.00944   1.01264   1.03044   1.03620
 Alpha virt. eigenvalues --    1.05627   1.06045   1.08853   1.10095   1.12288
 Alpha virt. eigenvalues --    1.13150   1.14011   1.15225   1.15475   1.17047
 Alpha virt. eigenvalues --    1.19497   1.19936   1.21278   1.23014   1.23849
 Alpha virt. eigenvalues --    1.24041   1.26190   1.27865   1.29076   1.30112
 Alpha virt. eigenvalues --    1.32128   1.32457   1.34791   1.35711   1.37768
 Alpha virt. eigenvalues --    1.39323   1.41632   1.42224   1.43461   1.45150
 Alpha virt. eigenvalues --    1.46077   1.46626   1.49271   1.49720   1.53571
 Alpha virt. eigenvalues --    1.55164   1.55835   1.58701   1.59554   1.61792
 Alpha virt. eigenvalues --    1.64395   1.66530   1.68085   1.68433   1.69816
 Alpha virt. eigenvalues --    1.70288   1.73063   1.73595   1.75448   1.77798
 Alpha virt. eigenvalues --    1.78150   1.78875   1.79996   1.81596   1.82486
 Alpha virt. eigenvalues --    1.84117   1.84931   1.85728   1.87545   1.89658
 Alpha virt. eigenvalues --    1.91209   1.92249   1.94436   1.95544   1.96521
 Alpha virt. eigenvalues --    1.98721   2.00221   2.02113   2.02423   2.03096
 Alpha virt. eigenvalues --    2.04675   2.05639   2.07351   2.09713   2.09923
 Alpha virt. eigenvalues --    2.12028   2.13360   2.14271   2.15286   2.16519
 Alpha virt. eigenvalues --    2.18100   2.19171   2.20519   2.23769   2.24534
 Alpha virt. eigenvalues --    2.25421   2.26704   2.28073   2.28579   2.30739
 Alpha virt. eigenvalues --    2.31542   2.33034   2.35093   2.36513   2.39057
 Alpha virt. eigenvalues --    2.41220   2.42650   2.43453   2.45881   2.47126
 Alpha virt. eigenvalues --    2.47996   2.50582   2.52031   2.52993   2.55791
 Alpha virt. eigenvalues --    2.57033   2.59494   2.59725   2.61148   2.62741
 Alpha virt. eigenvalues --    2.67088   2.69231   2.70263   2.75055   2.75322
 Alpha virt. eigenvalues --    2.80121   2.82074   2.83223   2.85050   2.87962
 Alpha virt. eigenvalues --    2.89125   2.92861   2.95359   2.96874   2.98759
 Alpha virt. eigenvalues --    3.01390   3.02942   3.05184   3.08272   3.12169
 Alpha virt. eigenvalues --    3.13880   3.17119   3.22780   3.32935   3.38359
 Alpha virt. eigenvalues --    3.41701   3.49885   3.58003   3.71776   3.77881
 Alpha virt. eigenvalues --    3.78312   3.84192   3.87468   3.90412   3.91816
 Alpha virt. eigenvalues --    3.96653   4.03696   4.10880   4.11776   4.24801
 Alpha virt. eigenvalues --    4.46955   5.39538
          Condensed to atoms (all electrons):
 Mulliken charges:
               1
     1  C   -0.166001
     2  C    0.728224
     3  C    0.009087
     4  C    0.620072
     5  S    1.562762
     6  C    1.023717
     7  C    1.169170
     8  C   -0.160015
     9  C    0.451953
    10  H   -0.160508
    11  H   -0.126670
    12  H   -0.142253
    13  H   -0.275306
    14  O   -1.184992
    15  O   -1.110433
    16  H   -0.424378
    17  H   -0.441131
    18  H   -0.319052
    19  H   -0.331751
    20  H   -0.275067
    21  H   -0.447428
 Sum of Mulliken charges =  -0.00000
 Mulliken charges with hydrogens summed into heavy atoms:
               1
     1  C   -0.497752
     2  C    0.303846
     3  C   -0.438341
     4  C    0.178941
     5  S    1.562762
     6  C    0.587904
     7  C    0.850118
     8  C   -0.435082
     9  C    0.183030
    14  O   -1.184992
    15  O   -1.110433
 Electronic spatial extent (au):  <R**2>=           1596.7688
 Charge=             -0.0000 electrons
 Dipole moment (field-independent basis, Debye):
    X=             -4.6416    Y=              1.6592    Z=             -0.0636  Tot=              4.9297
 Unable to Open any file for archive entry.
 1\1\GINC-SE016\Stability\RHF\Aug-CC-pVDZ\C8H10O2S1\OHZDE\09-Apr-2025\0
 \\#t hf aug-cc-pvdz symm=none int=(grid=ultrafine) guess=(read,tcheck)
  stable=(opt,rrhf)\\title\\0,1\C,0,0.52252,-1.180247,-0.115441\C,0,0.3
 42029,-0.875406,1.346777\C,0,0.492735,1.169434,0.244409\C,0,0.326211,0
 .437499,1.54855\S,0,1.76424,0.119427,-0.646613\C,0,-2.626651,-0.170793
 ,0.35993\C,0,-0.709891,-0.659029,-0.89281\C,0,-0.71036,0.883716,-0.686
 846\C,0,-2.104191,1.185152,-0.11797\H,0,-2.434594,-0.321791,1.424266\H
 ,0,-2.744102,1.582158,-0.906873\H,0,-2.076336,1.918747,0.688968\H,0,-3
 .693045,-0.303705,0.17463\O,0,3.026672,-0.003702,0.140232\O,0,-1.93798
 2,-1.159835,-0.402326\H,0,0.205024,-1.640839,2.096983\H,0,0.183964,0.9
 35823,2.497286\H,0,-0.639902,-0.942632,-1.943705\H,0,0.837619,-2.18657
 7,-0.375433\H,0,-0.55985,1.400747,-1.634239\H,0,0.789439,2.213582,0.30
 1086\\Version=ES64L-G16RevC.01\HF=-855.9719731\RMSD=6.878e-09\Dipole=-
 1.8261513,0.652785,-0.0250093\Quadrupole=-10.9108818,5.6572575,5.25362
 43,-3.1163108,-2.5503218,-0.1328416\PG=Unknown\\@
 The archive entry for this job was punched.


 When cryptography is outlawed, bayl bhgynjf jvyy unir cevinpl.
 Job cpu time:       0 days  0 hours 38 minutes 27.7 seconds.
 Elapsed time:       0 days  0 hours  2 minutes 38.8 seconds.
 File lengths (MBytes):  RWF=    559 Int=      0 D2E=      0 Chk=     16 Scr=      1
 Normal termination of Gaussian 16 at Wed Apr  9 01:52:18 2025.
 Initial command:
 /arc/software/Gaussian/g16.c01/l1.exe "/tmp/slurm/4856444/Gau-1607079.inp" -scrdir="/tmp/slurm/4856444/"
 Entering Link 1 = /arc/software/Gaussian/g16.c01/l1.exe PID=   1607367.
  
 Copyright (c) 1988-2019, Gaussian, Inc.  All Rights Reserved.
  
 This is part of the Gaussian(R) 16 program.  It is based on
 the Gaussian(R) 09 system (copyright 2009, Gaussian, Inc.),
 the Gaussian(R) 03 system (copyright 2003, Gaussian, Inc.),
 the Gaussian(R) 98 system (copyright 1998, Gaussian, Inc.),
 the Gaussian(R) 94 system (copyright 1995, Gaussian, Inc.),
 the Gaussian 92(TM) system (copyright 1992, Gaussian, Inc.),
 the Gaussian 90(TM) system (copyright 1990, Gaussian, Inc.),
 the Gaussian 88(TM) system (copyright 1988, Gaussian, Inc.),
 the Gaussian 86(TM) system (copyright 1986, Carnegie Mellon
 University), and the Gaussian 82(TM) system (copyright 1983,
 Carnegie Mellon University). Gaussian is a federally registered
 trademark of Gaussian, Inc.
  
 This software contains proprietary and confidential information,
 including trade secrets, belonging to Gaussian, Inc.
  
 This software is provided under written license and may be
 used, copied, transmitted, or stored only in accord with that
 written license.
  
 The following legend is applicable only to US Government
 contracts under FAR:
  
                    RESTRICTED RIGHTS LEGEND
  
 Use, reproduction and disclosure by the US Government is
 subject to restrictions as set forth in subparagraphs (a)
 and (c) of the Commercial Computer Software - Restricted
 Rights clause in FAR 52.227-19.
  
 Gaussian, Inc.
 340 Quinnipiac St., Bldg. 40, Wallingford CT 06492
  
  
 ---------------------------------------------------------------
 Warning -- This program may not be used in any manner that
 competes with the business of Gaussian, Inc. or will provide
 assistance to any competitor of Gaussian, Inc.  The licensee
 of this program is prohibited from giving any competitor of
 Gaussian, Inc. access to this program.  By using this program,
 the user acknowledges that Gaussian, Inc. is engaged in the
 business of creating and licensing software in the field of
 computational chemistry and represents and warrants to the
 licensee that it is not a competitor of Gaussian, Inc. and that
 it will not use this program in any manner prohibited above.
 ---------------------------------------------------------------
  

 Cite this work as:
 Gaussian 16, Revision C.01,
 M. J. Frisch, G. W. Trucks, H. B. Schlegel, G. E. Scuseria, 
 M. A. Robb, J. R. Cheeseman, G. Scalmani, V. Barone, 
 G. A. Petersson, H. Nakatsuji, X. Li, M. Caricato, A. V. Marenich, 
 J. Bloino, B. G. Janesko, R. Gomperts, B. Mennucci, H. P. Hratchian, 
 J. V. Ortiz, A. F. Izmaylov, J. L. Sonnenberg, D. Williams-Young, 
 F. Ding, F. Lipparini, F. Egidi, J. Goings, B. Peng, A. Petrone, 
 T. Henderson, D. Ranasinghe, V. G. Zakrzewski, J. Gao, N. Rega, 
 G. Zheng, W. Liang, M. Hada, M. Ehara, K. Toyota, R. Fukuda, 
 J. Hasegawa, M. Ishida, T. Nakajima, Y. Honda, O. Kitao, H. Nakai, 
 T. Vreven, K. Throssell, J. A. Montgomery, Jr., J. E. Peralta, 
 F. Ogliaro, M. J. Bearpark, J. J. Heyd, E. N. Brothers, K. N. Kudin, 
 V. N. Staroverov, T. A. Keith, R. Kobayashi, J. Normand, 
 K. Raghavachari, A. P. Rendell, J. C. Burant, S. S. Iyengar, 
 J. Tomasi, M. Cossi, J. M. Millam, M. Klene, C. Adamo, R. Cammi, 
 J. W. Ochterski, R. L. Martin, K. Morokuma, O. Farkas, 
 J. B. Foresman, and D. J. Fox, Gaussian, Inc., Wallingford CT, 2019.
 
 ******************************************
 Gaussian 16:  ES64L-G16RevC.01  3-Jul-2019
                 9-Apr-2025 
 ******************************************
 %nprocs=16
 Will use up to   16 processors via shared memory.
 %mem=30GB
 %chk=BH10_92_reverse_mol2.chk
 ----------------------------------------------------------------------
 #t hf aug-cc-pvdz iop(5/13=1,5/36=2,99/5=2) pseudo=read geom=check gue
 ss=(read,tcheck) scf=(maxcycle=1)
 ----------------------------------------------------------------------
 -----
 title
 -----
 Structure from the checkpoint file:  "BH10_92_reverse_mol2.chk"
 Charge =  0 Multiplicity = 1
 Z-Matrix found in chk file.
 C,0,0.52252,-1.180247,-0.115441
 C,0,0.342029,-0.875406,1.346777
 C,0,0.492735,1.169434,0.244409
 C,0,0.326211,0.437499,1.54855
 S,0,1.76424,0.119427,-0.646613
 C,0,-2.626651,-0.170793,0.35993
 C,0,-0.709891,-0.659029,-0.89281
 C,0,-0.71036,0.883716,-0.686846
 C,0,-2.104191,1.185152,-0.11797
 H,0,-2.434594,-0.321791,1.424266
 H,0,-2.744102,1.582158,-0.906873
 H,0,-2.076336,1.918747,0.688968
 H,0,-3.693045,-0.303705,0.17463
 O,0,3.026672,-0.003702,0.140232
 O,0,-1.937982,-1.159835,-0.402326
 H,0,0.205024,-1.640839,2.096983
 H,0,0.183964,0.935823,2.497286
 H,0,-0.639902,-0.942632,-1.943705
 H,0,0.837619,-2.186577,-0.375433
 H,0,-0.55985,1.400747,-1.634239
 H,0,0.789439,2.213582,0.301086
 Recover connectivity data from disk.
                    Distance matrix (angstroms):
                    1          2          3          4          5
     1  C    0.000000
     2  C    1.504522   0.000000
     3  C    2.377263   2.327939   0.000000
     4  C    2.329057   1.328413   1.504740   0.000000
     5  S    1.874344   2.643101   1.874343   2.643452   0.000000
     6  C    3.340996   3.206775   3.397076   3.240715   4.514120
     7  C    1.547517   2.483768   2.466344   2.869864   2.605366
     8  C    2.471121   2.887500   1.548001   2.504113   2.590251
     9  C    3.534788   3.517865   2.622135   3.040251   4.047220
    10  H    3.442698   2.832336   3.490712   2.866010   4.702491
    11  H    4.350640   4.543431   3.460189   4.094651   4.746837
    12  H    4.123699   3.753464   2.712790   2.950459   4.446499
    13  H    4.315490   4.240589   4.437991   4.311781   5.534929
    14  O    2.778562   3.069679   2.794269   3.077419   1.492655
    15  O    2.477254   2.887683   3.428140   3.388800   3.924619
    16  H    2.282054   1.080494   3.378231   2.152894   3.613448
    17  H    3.379159   2.151559   2.285906   1.081046   3.612184
    18  H    2.179503   3.434528   3.245232   3.877368   2.930924
    19  H    1.086086   2.220537   3.430154   3.293786   2.499964
    20  H    3.184306   3.857553   2.165816   3.441380   2.831710
    21  H    3.429696   3.291731   1.086964   2.219283   2.496769
                    6          7          8          9         10
     6  C    0.000000
     7  C    2.341303   0.000000
     8  C    2.424851   1.556433   0.000000
     9  C    1.529686   2.438330   1.535333   0.000000
    10  H    1.092015   2.908122   2.980440   2.181407   0.000000
    11  H    2.165969   3.026736   2.161560   1.090627   3.025727
    12  H    2.185701   3.318753   2.197736   1.090911   2.385167
    13  H    1.090503   3.188243   3.323931   2.196990   1.773588
    14  O    5.660057   3.931734   3.928992   5.273120   5.619195
    15  O    1.426010   1.414068   2.400856   2.368005   2.070116
    16  H    3.632736   3.277176   3.867946   4.269042   3.026552
    17  H    3.700331   3.851659   3.307753   3.483875   3.096742
    18  H    3.138414   1.090738   2.218154   3.163055   3.866470
    19  H    4.074961   2.235144   3.452523   4.482085   4.174173
    20  H    3.273853   2.194290   1.089737   2.174981   3.979479
    21  H    4.166339   3.453299   2.234715   3.099415   4.252533
                   11         12         13         14         15
    11  H    0.000000
    12  H    1.762360   0.000000
    13  H    2.372050   2.795994   0.000000
    14  O    6.075625   5.480658   6.726498   0.000000
    15  O    2.902227   3.269210   2.036193   5.126285   0.000000
    16  H    5.301717   4.456205   4.547341   3.804049   3.327219
    17  H    4.536476   3.056977   4.686402   3.810433   4.159590
    18  H    3.446338   4.145093   3.770577   4.320665   2.026830
    19  H    5.226329   5.145655   4.937073   3.134136   2.959541
    20  H    2.309313   2.822294   3.999259   4.240798   3.158075
    21  H    3.787317   2.906896   5.142508   3.153955   4.394719
                   16         17         18         19         20
    16  H    0.000000
    17  H    2.607657   0.000000
    18  H    4.186711   4.891804   0.000000
    19  H    2.609760   4.292920   2.487960   0.000000
    20  H    4.874248   4.223614   2.365080   4.050482   0.000000
    21  H    4.292243   2.612004   4.128412   4.452123   2.495349
                   21
    21  H    0.000000
 Framework group  C1[X(C8H10O2S)]
 Deg. of freedom    57
                         Standard orientation:                         
 ---------------------------------------------------------------------
 Center     Atomic      Atomic             Coordinates (Angstroms)
 Number     Number       Type             X           Y           Z
 ---------------------------------------------------------------------
      1          6           0        0.522520   -1.180247   -0.115441
      2          6           0        0.342029   -0.875406    1.346777
      3          6           0        0.492735    1.169434    0.244409
      4          6           0        0.326211    0.437499    1.548550
      5         16           0        1.764240    0.119427   -0.646613
      6          6           0       -2.626651   -0.170793    0.359930
      7          6           0       -0.709891   -0.659029   -0.892810
      8          6           0       -0.710360    0.883716   -0.686846
      9          6           0       -2.104191    1.185152   -0.117970
     10          1           0       -2.434594   -0.321791    1.424266
     11          1           0       -2.744102    1.582158   -0.906873
     12          1           0       -2.076336    1.918747    0.688968
     13          1           0       -3.693045   -0.303705    0.174630
     14          8           0        3.026672   -0.003702    0.140232
     15          8           0       -1.937982   -1.159835   -0.402326
     16          1           0        0.205024   -1.640839    2.096983
     17          1           0        0.183964    0.935823    2.497286
     18          1           0       -0.639902   -0.942632   -1.943705
     19          1           0        0.837619   -2.186577   -0.375433
     20          1           0       -0.559850    1.400747   -1.634239
     21          1           0        0.789439    2.213582    0.301086
 ---------------------------------------------------------------------
 Rotational constants (GHZ):           2.2331537           0.8398428           0.8187742
 ======================================================================================================
                                       Pseudopotential Parameters
 ======================================================================================================
  Center     Atomic      Valence      Angular      Power
  Number     Number     Electrons     Momentum     of R      Exponent        Coefficient   SO-Coeffient
 ======================================================================================================
    1          6            6
                                      G and up 
                                                     0        0.0000010       -0.00011185    0.00000000
                                                     2        0.1200000       -0.02301220    0.00000000
                                                     2        0.1400000        0.13317600    0.00000000
                                                     2        0.1600000       -0.19690668    0.00000000
                                                     2        0.2200000        0.23163694    0.00000000
                                                     2        0.3000000       -0.36920489    0.00000000
                                                     2        0.4000000        0.36389709    0.00000000
                                                     2        0.7000000       -0.38862160    0.00000000
                                                     2        1.3000000        0.80803421    0.00000000
                                      S - G
                                                     0        0.0000010        0.00312304    0.00000000
                                                     2        0.1200000       -0.00632892    0.00000000
                                                     2        0.2200000       -0.03780897    0.00000000
                                                     2        0.4000000        0.26269560    0.00000000
                                                     2        0.9000000       -0.28209514    0.00000000
                                                     2        1.5000000       -0.72686737    0.00000000
                                      P - G
                                                     0        0.0000010       -0.01465594    0.00000000
                                                     2        0.1200000        0.07908409    0.00000000
                                                     2        0.1800000       -0.30615861    0.00000000
                                                     2        0.2600000        0.41506950    0.00000000
                                                     2        0.5000000       -0.36252345    0.00000000
                                                     2        0.9000000        0.15124193    0.00000000
                                                     2        3.0000000       -0.80425677    0.00000000
                                      D - G
                                                     0        0.0000010        0.01149631    0.00000000
                                                     2        0.1200000       -0.04713561    0.00000000
                                                     2        0.1600000        0.10865096    0.00000000
                                                     2        0.2800000       -0.15816701    0.00000000
                                                     2        0.7000000        0.65478804    0.00000000
                                                     2        1.3000000       -1.73816624    0.00000000
                                      F - G
                                                     0        0.0000010        0.00481868    0.00000000
                                                     2        0.1200000       -0.04746842    0.00000000
                                                     2        0.1600000        0.09327889    0.00000000
                                                     2        0.4000000       -0.19693326    0.00000000
                                                     2        0.9000000        0.34938253    0.00000000
    2          6            6
                                      G and up 
                                                     0        0.0000010       -0.00011185    0.00000000
                                                     2        0.1200000       -0.02301220    0.00000000
                                                     2        0.1400000        0.13317600    0.00000000
                                                     2        0.1600000       -0.19690668    0.00000000
                                                     2        0.2200000        0.23163694    0.00000000
                                                     2        0.3000000       -0.36920489    0.00000000
                                                     2        0.4000000        0.36389709    0.00000000
                                                     2        0.7000000       -0.38862160    0.00000000
                                                     2        1.3000000        0.80803421    0.00000000
                                      S - G
                                                     0        0.0000010        0.00312304    0.00000000
                                                     2        0.1200000       -0.00632892    0.00000000
                                                     2        0.2200000       -0.03780897    0.00000000
                                                     2        0.4000000        0.26269560    0.00000000
                                                     2        0.9000000       -0.28209514    0.00000000
                                                     2        1.5000000       -0.72686737    0.00000000
                                      P - G
                                                     0        0.0000010       -0.01465594    0.00000000
                                                     2        0.1200000        0.07908409    0.00000000
                                                     2        0.1800000       -0.30615861    0.00000000
                                                     2        0.2600000        0.41506950    0.00000000
                                                     2        0.5000000       -0.36252345    0.00000000
                                                     2        0.9000000        0.15124193    0.00000000
                                                     2        3.0000000       -0.80425677    0.00000000
                                      D - G
                                                     0        0.0000010        0.01149631    0.00000000
                                                     2        0.1200000       -0.04713561    0.00000000
                                                     2        0.1600000        0.10865096    0.00000000
                                                     2        0.2800000       -0.15816701    0.00000000
                                                     2        0.7000000        0.65478804    0.00000000
                                                     2        1.3000000       -1.73816624    0.00000000
                                      F - G
                                                     0        0.0000010        0.00481868    0.00000000
                                                     2        0.1200000       -0.04746842    0.00000000
                                                     2        0.1600000        0.09327889    0.00000000
                                                     2        0.4000000       -0.19693326    0.00000000
                                                     2        0.9000000        0.34938253    0.00000000
    3          6            6
                                      G and up 
                                                     0        0.0000010       -0.00011185    0.00000000
                                                     2        0.1200000       -0.02301220    0.00000000
                                                     2        0.1400000        0.13317600    0.00000000
                                                     2        0.1600000       -0.19690668    0.00000000
                                                     2        0.2200000        0.23163694    0.00000000
                                                     2        0.3000000       -0.36920489    0.00000000
                                                     2        0.4000000        0.36389709    0.00000000
                                                     2        0.7000000       -0.38862160    0.00000000
                                                     2        1.3000000        0.80803421    0.00000000
                                      S - G
                                                     0        0.0000010        0.00312304    0.00000000
                                                     2        0.1200000       -0.00632892    0.00000000
                                                     2        0.2200000       -0.03780897    0.00000000
                                                     2        0.4000000        0.26269560    0.00000000
                                                     2        0.9000000       -0.28209514    0.00000000
                                                     2        1.5000000       -0.72686737    0.00000000
                                      P - G
                                                     0        0.0000010       -0.01465594    0.00000000
                                                     2        0.1200000        0.07908409    0.00000000
                                                     2        0.1800000       -0.30615861    0.00000000
                                                     2        0.2600000        0.41506950    0.00000000
                                                     2        0.5000000       -0.36252345    0.00000000
                                                     2        0.9000000        0.15124193    0.00000000
                                                     2        3.0000000       -0.80425677    0.00000000
                                      D - G
                                                     0        0.0000010        0.01149631    0.00000000
                                                     2        0.1200000       -0.04713561    0.00000000
                                                     2        0.1600000        0.10865096    0.00000000
                                                     2        0.2800000       -0.15816701    0.00000000
                                                     2        0.7000000        0.65478804    0.00000000
                                                     2        1.3000000       -1.73816624    0.00000000
                                      F - G
                                                     0        0.0000010        0.00481868    0.00000000
                                                     2        0.1200000       -0.04746842    0.00000000
                                                     2        0.1600000        0.09327889    0.00000000
                                                     2        0.4000000       -0.19693326    0.00000000
                                                     2        0.9000000        0.34938253    0.00000000
    4          6            6
                                      G and up 
                                                     0        0.0000010       -0.00011185    0.00000000
                                                     2        0.1200000       -0.02301220    0.00000000
                                                     2        0.1400000        0.13317600    0.00000000
                                                     2        0.1600000       -0.19690668    0.00000000
                                                     2        0.2200000        0.23163694    0.00000000
                                                     2        0.3000000       -0.36920489    0.00000000
                                                     2        0.4000000        0.36389709    0.00000000
                                                     2        0.7000000       -0.38862160    0.00000000
                                                     2        1.3000000        0.80803421    0.00000000
                                      S - G
                                                     0        0.0000010        0.00312304    0.00000000
                                                     2        0.1200000       -0.00632892    0.00000000
                                                     2        0.2200000       -0.03780897    0.00000000
                                                     2        0.4000000        0.26269560    0.00000000
                                                     2        0.9000000       -0.28209514    0.00000000
                                                     2        1.5000000       -0.72686737    0.00000000
                                      P - G
                                                     0        0.0000010       -0.01465594    0.00000000
                                                     2        0.1200000        0.07908409    0.00000000
                                                     2        0.1800000       -0.30615861    0.00000000
                                                     2        0.2600000        0.41506950    0.00000000
                                                     2        0.5000000       -0.36252345    0.00000000
                                                     2        0.9000000        0.15124193    0.00000000
                                                     2        3.0000000       -0.80425677    0.00000000
                                      D - G
                                                     0        0.0000010        0.01149631    0.00000000
                                                     2        0.1200000       -0.04713561    0.00000000
                                                     2        0.1600000        0.10865096    0.00000000
                                                     2        0.2800000       -0.15816701    0.00000000
                                                     2        0.7000000        0.65478804    0.00000000
                                                     2        1.3000000       -1.73816624    0.00000000
                                      F - G
                                                     0        0.0000010        0.00481868    0.00000000
                                                     2        0.1200000       -0.04746842    0.00000000
                                                     2        0.1600000        0.09327889    0.00000000
                                                     2        0.4000000       -0.19693326    0.00000000
                                                     2        0.9000000        0.34938253    0.00000000
    5         16           16
                                      G and up 
                                                     0        0.0000010       -0.00108337    0.00000000
                                                     2        0.1200000        0.02393503    0.00000000
                                                     2        0.1400000       -0.04929246    0.00000000
                                                     2        0.2200000        0.11673929    0.00000000
                                                     2        0.3000000       -0.24406081    0.00000000
                                                     2        0.5000000        0.65938599    0.00000000
                                                     2        0.9000000       -2.67146103    0.00000000
                                                     2        1.6000000        1.72231217    0.00000000
                                      S - G
                                                     0        0.0000010       -0.00315363    0.00000000
                                                     2        0.1600000        0.09915567    0.00000000
                                                     2        0.3000000       -0.42531365    0.00000000
                                                     2        0.6000000        1.27985937    0.00000000
                                      P - G
                                                     0        0.0000010        0.05906535    0.00000000
                                                     2        0.1200000       -0.03516302    0.00000000
                                                     2        0.1600000        0.00585339    0.00000000
                                                     2        0.5000000        0.34013084    0.00000000
                                      D - G
                                                     0        0.0000010        0.03484679    0.00000000
                                                     2        0.1200000        0.00763944    0.00000000
                                                     2        0.2400000       -0.16368217    0.00000000
                                                     2        0.7000000        1.04339930    0.00000000
                                      F - G
                                                     0        0.0000010       -0.02227713    0.00000000
                                                     2        0.1200000       -0.15866626    0.00000000
                                                     2        0.1600000        0.42479417    0.00000000
                                                     2        0.2600000       -0.42884495    0.00000000
    6          6            6
                                      G and up 
                                                     0        0.0000010       -0.00011185    0.00000000
                                                     2        0.1200000       -0.02301220    0.00000000
                                                     2        0.1400000        0.13317600    0.00000000
                                                     2        0.1600000       -0.19690668    0.00000000
                                                     2        0.2200000        0.23163694    0.00000000
                                                     2        0.3000000       -0.36920489    0.00000000
                                                     2        0.4000000        0.36389709    0.00000000
                                                     2        0.7000000       -0.38862160    0.00000000
                                                     2        1.3000000        0.80803421    0.00000000
                                      S - G
                                                     0        0.0000010        0.00312304    0.00000000
                                                     2        0.1200000       -0.00632892    0.00000000
                                                     2        0.2200000       -0.03780897    0.00000000
                                                     2        0.4000000        0.26269560    0.00000000
                                                     2        0.9000000       -0.28209514    0.00000000
                                                     2        1.5000000       -0.72686737    0.00000000
                                      P - G
                                                     0        0.0000010       -0.01465594    0.00000000
                                                     2        0.1200000        0.07908409    0.00000000
                                                     2        0.1800000       -0.30615861    0.00000000
                                                     2        0.2600000        0.41506950    0.00000000
                                                     2        0.5000000       -0.36252345    0.00000000
                                                     2        0.9000000        0.15124193    0.00000000
                                                     2        3.0000000       -0.80425677    0.00000000
                                      D - G
                                                     0        0.0000010        0.01149631    0.00000000
                                                     2        0.1200000       -0.04713561    0.00000000
                                                     2        0.1600000        0.10865096    0.00000000
                                                     2        0.2800000       -0.15816701    0.00000000
                                                     2        0.7000000        0.65478804    0.00000000
                                                     2        1.3000000       -1.73816624    0.00000000
                                      F - G
                                                     0        0.0000010        0.00481868    0.00000000
                                                     2        0.1200000       -0.04746842    0.00000000
                                                     2        0.1600000        0.09327889    0.00000000
                                                     2        0.4000000       -0.19693326    0.00000000
                                                     2        0.9000000        0.34938253    0.00000000
    7          6            6
                                      G and up 
                                                     0        0.0000010       -0.00011185    0.00000000
                                                     2        0.1200000       -0.02301220    0.00000000
                                                     2        0.1400000        0.13317600    0.00000000
                                                     2        0.1600000       -0.19690668    0.00000000
                                                     2        0.2200000        0.23163694    0.00000000
                                                     2        0.3000000       -0.36920489    0.00000000
                                                     2        0.4000000        0.36389709    0.00000000
                                                     2        0.7000000       -0.38862160    0.00000000
                                                     2        1.3000000        0.80803421    0.00000000
                                      S - G
                                                     0        0.0000010        0.00312304    0.00000000
                                                     2        0.1200000       -0.00632892    0.00000000
                                                     2        0.2200000       -0.03780897    0.00000000
                                                     2        0.4000000        0.26269560    0.00000000
                                                     2        0.9000000       -0.28209514    0.00000000
                                                     2        1.5000000       -0.72686737    0.00000000
                                      P - G
                                                     0        0.0000010       -0.01465594    0.00000000
                                                     2        0.1200000        0.07908409    0.00000000
                                                     2        0.1800000       -0.30615861    0.00000000
                                                     2        0.2600000        0.41506950    0.00000000
                                                     2        0.5000000       -0.36252345    0.00000000
                                                     2        0.9000000        0.15124193    0.00000000
                                                     2        3.0000000       -0.80425677    0.00000000
                                      D - G
                                                     0        0.0000010        0.01149631    0.00000000
                                                     2        0.1200000       -0.04713561    0.00000000
                                                     2        0.1600000        0.10865096    0.00000000
                                                     2        0.2800000       -0.15816701    0.00000000
                                                     2        0.7000000        0.65478804    0.00000000
                                                     2        1.3000000       -1.73816624    0.00000000
                                      F - G
                                                     0        0.0000010        0.00481868    0.00000000
                                                     2        0.1200000       -0.04746842    0.00000000
                                                     2        0.1600000        0.09327889    0.00000000
                                                     2        0.4000000       -0.19693326    0.00000000
                                                     2        0.9000000        0.34938253    0.00000000
    8          6            6
                                      G and up 
                                                     0        0.0000010       -0.00011185    0.00000000
                                                     2        0.1200000       -0.02301220    0.00000000
                                                     2        0.1400000        0.13317600    0.00000000
                                                     2        0.1600000       -0.19690668    0.00000000
                                                     2        0.2200000        0.23163694    0.00000000
                                                     2        0.3000000       -0.36920489    0.00000000
                                                     2        0.4000000        0.36389709    0.00000000
                                                     2        0.7000000       -0.38862160    0.00000000
                                                     2        1.3000000        0.80803421    0.00000000
                                      S - G
                                                     0        0.0000010        0.00312304    0.00000000
                                                     2        0.1200000       -0.00632892    0.00000000
                                                     2        0.2200000       -0.03780897    0.00000000
                                                     2        0.4000000        0.26269560    0.00000000
                                                     2        0.9000000       -0.28209514    0.00000000
                                                     2        1.5000000       -0.72686737    0.00000000
                                      P - G
                                                     0        0.0000010       -0.01465594    0.00000000
                                                     2        0.1200000        0.07908409    0.00000000
                                                     2        0.1800000       -0.30615861    0.00000000
                                                     2        0.2600000        0.41506950    0.00000000
                                                     2        0.5000000       -0.36252345    0.00000000
                                                     2        0.9000000        0.15124193    0.00000000
                                                     2        3.0000000       -0.80425677    0.00000000
                                      D - G
                                                     0        0.0000010        0.01149631    0.00000000
                                                     2        0.1200000       -0.04713561    0.00000000
                                                     2        0.1600000        0.10865096    0.00000000
                                                     2        0.2800000       -0.15816701    0.00000000
                                                     2        0.7000000        0.65478804    0.00000000
                                                     2        1.3000000       -1.73816624    0.00000000
                                      F - G
                                                     0        0.0000010        0.00481868    0.00000000
                                                     2        0.1200000       -0.04746842    0.00000000
                                                     2        0.1600000        0.09327889    0.00000000
                                                     2        0.4000000       -0.19693326    0.00000000
                                                     2        0.9000000        0.34938253    0.00000000
    9          6            6
                                      G and up 
                                                     0        0.0000010       -0.00011185    0.00000000
                                                     2        0.1200000       -0.02301220    0.00000000
                                                     2        0.1400000        0.13317600    0.00000000
                                                     2        0.1600000       -0.19690668    0.00000000
                                                     2        0.2200000        0.23163694    0.00000000
                                                     2        0.3000000       -0.36920489    0.00000000
                                                     2        0.4000000        0.36389709    0.00000000
                                                     2        0.7000000       -0.38862160    0.00000000
                                                     2        1.3000000        0.80803421    0.00000000
                                      S - G
                                                     0        0.0000010        0.00312304    0.00000000
                                                     2        0.1200000       -0.00632892    0.00000000
                                                     2        0.2200000       -0.03780897    0.00000000
                                                     2        0.4000000        0.26269560    0.00000000
                                                     2        0.9000000       -0.28209514    0.00000000
                                                     2        1.5000000       -0.72686737    0.00000000
                                      P - G
                                                     0        0.0000010       -0.01465594    0.00000000
                                                     2        0.1200000        0.07908409    0.00000000
                                                     2        0.1800000       -0.30615861    0.00000000
                                                     2        0.2600000        0.41506950    0.00000000
                                                     2        0.5000000       -0.36252345    0.00000000
                                                     2        0.9000000        0.15124193    0.00000000
                                                     2        3.0000000       -0.80425677    0.00000000
                                      D - G
                                                     0        0.0000010        0.01149631    0.00000000
                                                     2        0.1200000       -0.04713561    0.00000000
                                                     2        0.1600000        0.10865096    0.00000000
                                                     2        0.2800000       -0.15816701    0.00000000
                                                     2        0.7000000        0.65478804    0.00000000
                                                     2        1.3000000       -1.73816624    0.00000000
                                      F - G
                                                     0        0.0000010        0.00481868    0.00000000
                                                     2        0.1200000       -0.04746842    0.00000000
                                                     2        0.1600000        0.09327889    0.00000000
                                                     2        0.4000000       -0.19693326    0.00000000
                                                     2        0.9000000        0.34938253    0.00000000
   10          1            1
                                      F and up 
                                                     0        0.0000010       -0.00000699    0.00000000
                                                     2        0.1200000        0.00123686    0.00000000
                                                     2        0.1800000       -0.00752022    0.00000000
                                                     2        0.2600000        0.02503380    0.00000000
                                                     2        0.4000000       -0.08702670    0.00000000
                                                     2        0.6000000        0.30134159    0.00000000
                                                     2        0.8000000       -0.50204959    0.00000000
                                                     2        1.2000000        0.52208372    0.00000000
                                      S - F
                                                     0        0.0000010       -0.01618346    0.00000000
                                                     2        0.1200000       -0.07880581    0.00000000
                                                     2        0.1600000        0.32040539    0.00000000
                                                     2        0.2400000       -0.47500956    0.00000000
                                                     2        0.5000000        0.54013668    0.00000000
                                                     2        1.5000000       -1.40434292    0.00000000
                                                     2        3.0000000        1.46283806    0.00000000
                                      P - F
                                                     0        0.0000010        0.00612970    0.00000000
                                                     2        0.1200000        0.02254406    0.00000000
                                                     2        0.1800000       -0.13874529    0.00000000
                                                     2        0.3000000        0.38299049    0.00000000
                                                     2        0.5000000       -0.57923512    0.00000000
                                                     2        1.0000000        0.63021625    0.00000000
                                                     2        2.0000000       -0.79201034    0.00000000
                                      D - F
                                                     0        0.0000010       -0.00296226    0.00000000
                                                     2        0.1200000       -0.00547344    0.00000000
                                                     2        0.1400000        0.01837884    0.00000000
                                                     2        0.2400000       -0.05565704    0.00000000
                                                     2        0.4000000        0.15376597    0.00000000
                                                     2        0.8000000       -0.32464795    0.00000000
   11          1            1
                                      F and up 
                                                     0        0.0000010       -0.00000699    0.00000000
                                                     2        0.1200000        0.00123686    0.00000000
                                                     2        0.1800000       -0.00752022    0.00000000
                                                     2        0.2600000        0.02503380    0.00000000
                                                     2        0.4000000       -0.08702670    0.00000000
                                                     2        0.6000000        0.30134159    0.00000000
                                                     2        0.8000000       -0.50204959    0.00000000
                                                     2        1.2000000        0.52208372    0.00000000
                                      S - F
                                                     0        0.0000010       -0.01618346    0.00000000
                                                     2        0.1200000       -0.07880581    0.00000000
                                                     2        0.1600000        0.32040539    0.00000000
                                                     2        0.2400000       -0.47500956    0.00000000
                                                     2        0.5000000        0.54013668    0.00000000
                                                     2        1.5000000       -1.40434292    0.00000000
                                                     2        3.0000000        1.46283806    0.00000000
                                      P - F
                                                     0        0.0000010        0.00612970    0.00000000
                                                     2        0.1200000        0.02254406    0.00000000
                                                     2        0.1800000       -0.13874529    0.00000000
                                                     2        0.3000000        0.38299049    0.00000000
                                                     2        0.5000000       -0.57923512    0.00000000
                                                     2        1.0000000        0.63021625    0.00000000
                                                     2        2.0000000       -0.79201034    0.00000000
                                      D - F
                                                     0        0.0000010       -0.00296226    0.00000000
                                                     2        0.1200000       -0.00547344    0.00000000
                                                     2        0.1400000        0.01837884    0.00000000
                                                     2        0.2400000       -0.05565704    0.00000000
                                                     2        0.4000000        0.15376597    0.00000000
                                                     2        0.8000000       -0.32464795    0.00000000
   12          1            1
                                      F and up 
                                                     0        0.0000010       -0.00000699    0.00000000
                                                     2        0.1200000        0.00123686    0.00000000
                                                     2        0.1800000       -0.00752022    0.00000000
                                                     2        0.2600000        0.02503380    0.00000000
                                                     2        0.4000000       -0.08702670    0.00000000
                                                     2        0.6000000        0.30134159    0.00000000
                                                     2        0.8000000       -0.50204959    0.00000000
                                                     2        1.2000000        0.52208372    0.00000000
                                      S - F
                                                     0        0.0000010       -0.01618346    0.00000000
                                                     2        0.1200000       -0.07880581    0.00000000
                                                     2        0.1600000        0.32040539    0.00000000
                                                     2        0.2400000       -0.47500956    0.00000000
                                                     2        0.5000000        0.54013668    0.00000000
                                                     2        1.5000000       -1.40434292    0.00000000
                                                     2        3.0000000        1.46283806    0.00000000
                                      P - F
                                                     0        0.0000010        0.00612970    0.00000000
                                                     2        0.1200000        0.02254406    0.00000000
                                                     2        0.1800000       -0.13874529    0.00000000
                                                     2        0.3000000        0.38299049    0.00000000
                                                     2        0.5000000       -0.57923512    0.00000000
                                                     2        1.0000000        0.63021625    0.00000000
                                                     2        2.0000000       -0.79201034    0.00000000
                                      D - F
                                                     0        0.0000010       -0.00296226    0.00000000
                                                     2        0.1200000       -0.00547344    0.00000000
                                                     2        0.1400000        0.01837884    0.00000000
                                                     2        0.2400000       -0.05565704    0.00000000
                                                     2        0.4000000        0.15376597    0.00000000
                                                     2        0.8000000       -0.32464795    0.00000000
   13          1            1
                                      F and up 
                                                     0        0.0000010       -0.00000699    0.00000000
                                                     2        0.1200000        0.00123686    0.00000000
                                                     2        0.1800000       -0.00752022    0.00000000
                                                     2        0.2600000        0.02503380    0.00000000
                                                     2        0.4000000       -0.08702670    0.00000000
                                                     2        0.6000000        0.30134159    0.00000000
                                                     2        0.8000000       -0.50204959    0.00000000
                                                     2        1.2000000        0.52208372    0.00000000
                                      S - F
[...]
                                                     2        0.6000000        0.30134159    0.00000000
                                                     2        0.8000000       -0.50204959    0.00000000
                                                     2        1.2000000        0.52208372    0.00000000
                                      S - F
                                                     0        0.0000010       -0.01618346    0.00000000
                                                     2        0.1200000       -0.07880581    0.00000000
                                                     2        0.1600000        0.32040539    0.00000000
                                                     2        0.2400000       -0.47500956    0.00000000
                                                     2        0.5000000        0.54013668    0.00000000
                                                     2        1.5000000       -1.40434292    0.00000000
                                                     2        3.0000000        1.46283806    0.00000000
                                      P - F
                                                     0        0.0000010        0.00612970    0.00000000
                                                     2        0.1200000        0.02254406    0.00000000
                                                     2        0.1800000       -0.13874529    0.00000000
                                                     2        0.3000000        0.38299049    0.00000000
                                                     2        0.5000000       -0.57923512    0.00000000
                                                     2        1.0000000        0.63021625    0.00000000
                                                     2        2.0000000       -0.79201034    0.00000000
                                      D - F
                                                     0        0.0000010       -0.00296226    0.00000000
                                                     2        0.1200000       -0.00547344    0.00000000
                                                     2        0.1400000        0.01837884    0.00000000
                                                     2        0.2400000       -0.05565704    0.00000000
                                                     2        0.4000000        0.15376597    0.00000000
                                                     2        0.8000000       -0.32464795    0.00000000
   20          1            1
                                      F and up 
                                                     0        0.0000010       -0.00000699    0.00000000
                                                     2        0.1200000        0.00123686    0.00000000
                                                     2        0.1800000       -0.00752022    0.00000000
                                                     2        0.2600000        0.02503380    0.00000000
                                                     2        0.4000000       -0.08702670    0.00000000
                                                     2        0.6000000        0.30134159    0.00000000
                                                     2        0.8000000       -0.50204959    0.00000000
                                                     2        1.2000000        0.52208372    0.00000000
                                      S - F
                                                     0        0.0000010       -0.01618346    0.00000000
                                                     2        0.1200000       -0.07880581    0.00000000
                                                     2        0.1600000        0.32040539    0.00000000
                                                     2        0.2400000       -0.47500956    0.00000000
                                                     2        0.5000000        0.54013668    0.00000000
                                                     2        1.5000000       -1.40434292    0.00000000
                                                     2        3.0000000        1.46283806    0.00000000
                                      P - F
                                                     0        0.0000010        0.00612970    0.00000000
                                                     2        0.1200000        0.02254406    0.00000000
                                                     2        0.1800000       -0.13874529    0.00000000
                                                     2        0.3000000        0.38299049    0.00000000
                                                     2        0.5000000       -0.57923512    0.00000000
                                                     2        1.0000000        0.63021625    0.00000000
                                                     2        2.0000000       -0.79201034    0.00000000
                                      D - F
                                                     0        0.0000010       -0.00296226    0.00000000
                                                     2        0.1200000       -0.00547344    0.00000000
                                                     2        0.1400000        0.01837884    0.00000000
                                                     2        0.2400000       -0.05565704    0.00000000
                                                     2        0.4000000        0.15376597    0.00000000
                                                     2        0.8000000       -0.32464795    0.00000000
   21          1            1
                                      F and up 
                                                     0        0.0000010       -0.00000699    0.00000000
                                                     2        0.1200000        0.00123686    0.00000000
                                                     2        0.1800000       -0.00752022    0.00000000
                                                     2        0.2600000        0.02503380    0.00000000
                                                     2        0.4000000       -0.08702670    0.00000000
                                                     2        0.6000000        0.30134159    0.00000000
                                                     2        0.8000000       -0.50204959    0.00000000
                                                     2        1.2000000        0.52208372    0.00000000
                                      S - F
                                                     0        0.0000010       -0.01618346    0.00000000
                                                     2        0.1200000       -0.07880581    0.00000000
                                                     2        0.1600000        0.32040539    0.00000000
                                                     2        0.2400000       -0.47500956    0.00000000
                                                     2        0.5000000        0.54013668    0.00000000
                                                     2        1.5000000       -1.40434292    0.00000000
                                                     2        3.0000000        1.46283806    0.00000000
                                      P - F
                                                     0        0.0000010        0.00612970    0.00000000
                                                     2        0.1200000        0.02254406    0.00000000
                                                     2        0.1800000       -0.13874529    0.00000000
                                                     2        0.3000000        0.38299049    0.00000000
                                                     2        0.5000000       -0.57923512    0.00000000
                                                     2        1.0000000        0.63021625    0.00000000
                                                     2        2.0000000       -0.79201034    0.00000000
                                      D - F
                                                     0        0.0000010       -0.00296226    0.00000000
                                                     2        0.1200000       -0.00547344    0.00000000
                                                     2        0.1400000        0.01837884    0.00000000
                                                     2        0.2400000       -0.05565704    0.00000000
                                                     2        0.4000000        0.15376597    0.00000000
                                                     2        0.8000000       -0.32464795    0.00000000
 ======================================================================================================
   347 basis functions,   621 primitive gaussians,   369 cartesian basis functions
    45 alpha electrons       45 beta electrons
       nuclear repulsion energy       772.8642411057 Hartrees.
 NAtoms=   21 NActive=   21 NUniq=   21 SFac= 1.00D+00 NAtFMM=   60 NAOKFM=F Big=F
   1 Symmetry operations used in ECPInt.
 ECPInt:  NShTT=   11476 NPrTT=   59598 LenC2=   11432 LenP2D=   43505.
 LDataN:  DoStor=T MaxTD1= 6 Len=  172
 Initial guess from the checkpoint file:  "BH10_92_reverse_mol2.chk"
 B after Tr=     0.000000   -0.000000   -0.000000
         Rot=    1.000000    0.000000   -0.000000   -0.000000 Ang=  -0.00 deg.
 >>>>>>>>>> Convergence criterion not met.
 SCF Done:  E(RHF) =  -856.146459953     A.U. after    2 cycles
            NFock=  1  Conv=0.10D-01     -V/T= 2.0029

 **********************************************************************

            Population analysis using the SCF Density.

 **********************************************************************

 Orbital symmetries:
       Occupied  (A) (A) (A) (A) (A) (A) (A) (A) (A) (A) (A) (A)
                 (A) (A) (A) (A) (A) (A) (A) (A) (A) (A) (A) (A)
                 (A) (A) (A) (A) (A) (A) (A) (A) (A) (A) (A) (A)
                 (A) (A) (A) (A) (A) (A) (A) (A) (A)
       Virtual   (A) (A) (A) (A) (A) (A) (A) (A) (A) (A) (A) (A)
                 (A) (A) (A) (A) (A) (A) (A) (A) (A) (A) (A) (A)
                 (A) (A) (A) (A) (A) (A) (A) (A) (A) (A) (A) (A)
                 (A) (A) (A) (A) (A) (A) (A) (A) (A) (A) (A) (A)
                 (A) (A) (A) (A) (A) (A) (A) (A) (A) (A) (A) (A)
                 (A) (A) (A) (A) (A) (A) (A) (A) (A) (A) (A) (A)
                 (A) (A) (A) (A) (A) (A) (A) (A) (A) (A) (A) (A)
                 (A) (A) (A) (A) (A) (A) (A) (A) (A) (A) (A) (A)
                 (A) (A) (A) (A) (A) (A) (A) (A) (A) (A) (A) (A)
                 (A) (A) (A) (A) (A) (A) (A) (A) (A) (A) (A) (A)
                 (A) (A) (A) (A) (A) (A) (A) (A) (A) (A) (A) (A)
                 (A) (A) (A) (A) (A) (A) (A) (A) (A) (A) (A) (A)
                 (A) (A) (A) (A) (A) (A) (A) (A) (A) (A) (A) (A)
                 (A) (A) (A) (A) (A) (A) (A) (A) (A) (A) (A) (A)
                 (A) (A) (A) (A) (A) (A) (A) (A) (A) (A) (A) (A)
                 (A) (A) (A) (A) (A) (A) (A) (A) (A) (A) (A) (A)
                 (A) (A) (A) (A) (A) (A) (A) (A) (A) (A) (A) (A)
                 (A) (A) (A) (A) (A) (A) (A) (A) (A) (A) (A) (A)
                 (A) (A) (A) (A) (A) (A) (A) (A) (A) (A) (A) (A)
                 (A) (A) (A) (A) (A) (A) (A) (A) (A) (A) (A) (A)
                 (A) (A) (A) (A) (A) (A) (A) (A) (A) (A) (A) (A)
                 (A) (A) (A) (A) (A) (A) (A) (A) (A) (A) (A) (A)
                 (A) (A) (A) (A) (A) (A) (A) (A) (A) (A) (A) (A)
                 (A) (A) (A) (A) (A) (A) (A) (A) (A) (A) (A) (A)
                 (A) (A) (A) (A) (A) (A) (A) (A) (A) (A) (A) (A)
                 (A) (A)
 The electronic state is 1-A.
 Alpha  occ. eigenvalues --  -93.65414 -20.58159 -20.52084 -11.31356 -11.29404
 Alpha  occ. eigenvalues --  -11.28815 -11.28281 -11.26867 -11.25875 -11.25641
 Alpha  occ. eigenvalues --  -11.25330  -8.93783  -6.28081  -6.27846  -6.27609
 Alpha  occ. eigenvalues --   -1.35626  -1.30344  -1.17502  -1.06885  -1.03036
 Alpha  occ. eigenvalues --   -0.98465  -0.94476  -0.82921  -0.81940  -0.80053
 Alpha  occ. eigenvalues --   -0.73634  -0.73156  -0.69597  -0.68322  -0.63000
 Alpha  occ. eigenvalues --   -0.61804  -0.60141  -0.59116  -0.58011  -0.56334
 Alpha  occ. eigenvalues --   -0.54935  -0.53840  -0.52496  -0.50299  -0.48530
 Alpha  occ. eigenvalues --   -0.48128  -0.44869  -0.40907  -0.40447  -0.35065
 Alpha virt. eigenvalues --    0.02699   0.03676   0.03837   0.04300   0.05283
 Alpha virt. eigenvalues --    0.05561   0.05818   0.06420   0.07623   0.08371
 Alpha virt. eigenvalues --    0.09076   0.09258   0.11570   0.12084   0.12594
 Alpha virt. eigenvalues --    0.12980   0.13325   0.13825   0.14354   0.14751
 Alpha virt. eigenvalues --    0.14939   0.15166   0.15388   0.15813   0.16261
 Alpha virt. eigenvalues --    0.17029   0.17353   0.17861   0.18068   0.18388
 Alpha virt. eigenvalues --    0.18540   0.18768   0.19265   0.19518   0.19800
 Alpha virt. eigenvalues --    0.20669   0.21941   0.22559   0.22771   0.23070
 Alpha virt. eigenvalues --    0.23600   0.24822   0.25522   0.27860   0.28232
 Alpha virt. eigenvalues --    0.28737   0.29550   0.30343   0.30578   0.31248
 Alpha virt. eigenvalues --    0.31991   0.33547   0.33779   0.34406   0.34779
 Alpha virt. eigenvalues --    0.35646   0.36226   0.36667   0.36847   0.37267
 Alpha virt. eigenvalues --    0.38393   0.38748   0.39875   0.40633   0.40777
 Alpha virt. eigenvalues --    0.41521   0.41826   0.42348   0.42613   0.43117
 Alpha virt. eigenvalues --    0.44013   0.44185   0.44510   0.45497   0.46464
 Alpha virt. eigenvalues --    0.47002   0.47473   0.47661   0.48102   0.49384
 Alpha virt. eigenvalues --    0.50398   0.51116   0.51300   0.52778   0.53559
 Alpha virt. eigenvalues --    0.54136   0.55018   0.55475   0.55817   0.56791
 Alpha virt. eigenvalues --    0.56919   0.58031   0.59095   0.59514   0.60098
 Alpha virt. eigenvalues --    0.61857   0.62680   0.63332   0.64648   0.65613
 Alpha virt. eigenvalues --    0.65822   0.66341   0.66838   0.67067   0.68241
 Alpha virt. eigenvalues --    0.68616   0.69577   0.69833   0.70404   0.71443
 Alpha virt. eigenvalues --    0.72360   0.73261   0.74639   0.75424   0.75687
 Alpha virt. eigenvalues --    0.75847   0.76687   0.76869   0.77846   0.78916
 Alpha virt. eigenvalues --    0.79507   0.79604   0.81316   0.81370   0.82097
 Alpha virt. eigenvalues --    0.82649   0.83423   0.83695   0.84884   0.85281
 Alpha virt. eigenvalues --    0.85955   0.86450   0.87177   0.87580   0.88371
 Alpha virt. eigenvalues --    0.89888   0.90116   0.91183   0.91499   0.92805
 Alpha virt. eigenvalues --    0.94602   0.96138   0.97340   0.98136   0.99961
 Alpha virt. eigenvalues --    1.00176   1.00744   1.00901   1.02812   1.03398
 Alpha virt. eigenvalues --    1.05226   1.05776   1.08537   1.09710   1.12002
 Alpha virt. eigenvalues --    1.12717   1.13562   1.14881   1.15028   1.16566
 Alpha virt. eigenvalues --    1.18892   1.19350   1.20744   1.22524   1.23262
 Alpha virt. eigenvalues --    1.23700   1.25583   1.27271   1.28652   1.29507
 Alpha virt. eigenvalues --    1.31655   1.32116   1.34202   1.35049   1.37194
 Alpha virt. eigenvalues --    1.38640   1.40882   1.41359   1.42786   1.44058
 Alpha virt. eigenvalues --    1.45480   1.46055   1.48518   1.48857   1.52740
 Alpha virt. eigenvalues --    1.54359   1.54928   1.57691   1.58925   1.60778
 Alpha virt. eigenvalues --    1.63339   1.65357   1.66961   1.67368   1.68379
 Alpha virt. eigenvalues --    1.69278   1.72064   1.72544   1.74294   1.76631
 Alpha virt. eigenvalues --    1.77325   1.78053   1.78765   1.80409   1.81362
 Alpha virt. eigenvalues --    1.82687   1.83765   1.84526   1.86598   1.88383
 Alpha virt. eigenvalues --    1.90122   1.91038   1.93141   1.94275   1.95404
 Alpha virt. eigenvalues --    1.97725   1.98983   2.00721   2.01203   2.02143
 Alpha virt. eigenvalues --    2.03415   2.04159   2.06004   2.08323   2.08617
 Alpha virt. eigenvalues --    2.10485   2.11918   2.12904   2.14085   2.15317
 Alpha virt. eigenvalues --    2.16859   2.17639   2.19191   2.22377   2.23161
 Alpha virt. eigenvalues --    2.24042   2.25549   2.26647   2.27423   2.29516
 Alpha virt. eigenvalues --    2.30191   2.31438   2.33634   2.35039   2.37721
 Alpha virt. eigenvalues --    2.40113   2.41295   2.42331   2.44581   2.45534
 Alpha virt. eigenvalues --    2.46392   2.48879   2.50262   2.50961   2.54256
 Alpha virt. eigenvalues --    2.55720   2.57733   2.58302   2.59575   2.61403
 Alpha virt. eigenvalues --    2.65127   2.67310   2.68693   2.73373   2.73919
 Alpha virt. eigenvalues --    2.78517   2.80814   2.81603   2.83774   2.86522
 Alpha virt. eigenvalues --    2.87444   2.91388   2.93532   2.95032   2.97217
 Alpha virt. eigenvalues --    2.99870   3.01392   3.03437   3.06224   3.10281
 Alpha virt. eigenvalues --    3.12210   3.15151   3.21842   3.31381   3.35587
 Alpha virt. eigenvalues --    3.39722   3.47315   3.54784   3.62861   3.63096
 Alpha virt. eigenvalues --    3.67323   3.70515   3.72673   3.75678   3.78377
 Alpha virt. eigenvalues --    3.83234   3.95208   3.96102   4.01903   4.14660
 Alpha virt. eigenvalues --    4.46231   5.41218
          Condensed to atoms (all electrons):
 Mulliken charges:
               1
     1  C   -0.219286
     2  C    0.751475
     3  C   -0.005315
     4  C    0.594250
     5  S    1.457932
     6  C    0.905814
     7  C    0.880253
     8  C   -0.194572
     9  C    0.386330
    10  H   -0.153544
    11  H   -0.086008
    12  H   -0.093696
    13  H   -0.248124
    14  O   -1.074853
    15  O   -0.790744
    16  H   -0.428282
    17  H   -0.440703
    18  H   -0.296396
    19  H   -0.296950
    20  H   -0.239360
    21  H   -0.408218
 Sum of Mulliken charges =  -0.00000
 Mulliken charges with hydrogens summed into heavy atoms:
               1
     1  C   -0.516236
     2  C    0.323192
     3  C   -0.413534
     4  C    0.153547
     5  S    1.457932
     6  C    0.504145
     7  C    0.583857
     8  C   -0.433932
     9  C    0.206626
    14  O   -1.074853
    15  O   -0.790744
 Electronic spatial extent (au):  <R**2>=           1595.5459
 Charge=              0.0000 electrons
 Dipole moment (field-independent basis, Debye):
    X=             -4.7357    Y=              1.7668    Z=             -0.1264  Tot=              5.0561

 Test job not archived.
 1\1\GINC-SE016\SP\RHF\Aug-CC-pVDZ\C8H10O2S1\OHZDE\09-Apr-2025\0\\#t hf
  aug-cc-pvdz iop(5/13=1,5/36=2,99/5=2) pseudo=read geom=check guess=(r
 ead,tcheck) scf=(maxcycle=1)\\title\\0,1\C,0,0.52252,-1.180247,-0.1154
 41\C,0,0.342029,-0.875406,1.346777\C,0,0.492735,1.169434,0.244409\C,0,
 0.326211,0.437499,1.54855\S,0,1.76424,0.119427,-0.646613\C,0,-2.626651
 ,-0.170793,0.35993\C,0,-0.709891,-0.659029,-0.89281\C,0,-0.71036,0.883
 716,-0.686846\C,0,-2.104191,1.185152,-0.11797\H,0,-2.434594,-0.321791,
 1.424266\H,0,-2.744102,1.582158,-0.906873\H,0,-2.076336,1.918747,0.688
 968\H,0,-3.693045,-0.303705,0.17463\O,0,3.026672,-0.003702,0.140232\O,
 0,-1.937982,-1.159835,-0.402326\H,0,0.205024,-1.640839,2.096983\H,0,0.
 183964,0.935823,2.497286\H,0,-0.639902,-0.942632,-1.943705\H,0,0.83761
 9,-2.186577,-0.375433\H,0,-0.55985,1.400747,-1.634239\H,0,0.789439,2.2
 13582,0.301086\\Version=ES64L-G16RevC.01\State=1-A\HF=-856.14646\RMSD=
 9.952e-03\Dipole=-1.8631561,0.6951245,-0.0497351\Quadrupole=-11.209193
 ,5.7320214,5.4771715,-3.2563902,-2.7627511,-0.1609247\PG=C01 [X(C8H10O
 2S1)]\\@


 A successful marriage requires falling in love
 many times, always with the same person.
                           -- Mignon McLaughlin
 Job cpu time:       0 days  0 hours  3 minutes 47.7 seconds.
 Elapsed time:       0 days  0 hours  0 minutes 16.0 seconds.
 File lengths (MBytes):  RWF=     22 Int=      0 D2E=      0 Chk=     16 Scr=      1
 Normal termination of Gaussian 16 at Wed Apr  9 01:52:34 2025.
