 Entering Gaussian System, Link 0=g16
 Input=BH10_181_forward_mol1.gjf
 Output=BH10_181_forward_mol1.log
 Initial command:
 /arc/software/Gaussian/g16.c01/l1.exe "/tmp/slurm/4855857/Gau-1133535.inp" -scrdir="/tmp/slurm/4855857/"
 Entering Link 1 = /arc/software/Gaussian/g16.c01/l1.exe PID=   1133536.
  
 Copyright (c) 1988-2019, Gaussian, Inc.  All Rights Reserved.
  
 This is part of the Gaussian(R) 16 program.  It is based on
 the Gaussian(R) 09 system (copyright 2009, Gaussian, Inc.),
 the Gaussian(R) 03 system (copyright 2003, Gaussian, Inc.),
 the Gaussian(R) 98 system (copyright 1998, Gaussian, Inc.),
 the Gaussian(R) 94 system (copyright 1995, Gaussian, Inc.),
 the Gaussian 92(TM) system (copyright 1992, Gaussian, Inc.),
 the Gaussian 90(TM) system (copyright 1990, Gaussian, Inc.),
 the Gaussian 88(TM) system (copyright 1988, Gaussian, Inc.),
 the Gaussian 86(TM) system (copyright 1986, Carnegie Mellon
 University), and the Gaussian 82(TM) system (copyright 1983,
 Carnegie Mellon University). Gaussian is a federally registered
 trademark of Gaussian, Inc.
  
 This software contains proprietary and confidential information,
 including trade secrets, belonging to Gaussian, Inc.
  
 This software is provided under written license and may be
 used, copied, transmitted, or stored only in accord with that
 written license.
  
 The following legend is applicable only to US Government
 contracts under FAR:
  
                    RESTRICTED RIGHTS LEGEND
  
 Use, reproduction and disclosure by the US Government is
 subject to restrictions as set forth in subparagraphs (a)
 and (c) of the Commercial Computer Software - Restricted
 Rights clause in FAR 52.227-19.
  
 Gaussian, Inc.
 340 Quinnipiac St., Bldg. 40, Wallingford CT 06492
  
  
 ---------------------------------------------------------------
 Warning -- This program may not be used in any manner that
 competes with the business of Gaussian, Inc. or will provide
 assistance to any competitor of Gaussian, Inc.  The licensee
 of this program is prohibited from giving any competitor of
 Gaussian, Inc. access to this program.  By using this program,
 the user acknowledges that Gaussian, Inc. is engaged in the
 business of creating and licensing software in the field of
 computational chemistry and represents and warrants to the
 licensee that it is not a competitor of Gaussian, Inc. and that
 it will not use this program in any manner prohibited above.
 ---------------------------------------------------------------
  

 Cite this work as:
 Gaussian 16, Revision C.01,
 M. J. Frisch, G. W. Trucks, H. B. Schlegel, G. E. Scuseria, 
 M. A. Robb, J. R. Cheeseman, G. Scalmani, V. Barone, 
 G. A. Petersson, H. Nakatsuji, X. Li, M. Caricato, A. V. Marenich, 
 J. Bloino, B. G. Janesko, R. Gomperts, B. Mennucci, H. P. Hratchian, 
 J. V. Ortiz, A. F. Izmaylov, J. L. Sonnenberg, D. Williams-Young, 
 F. Ding, F. Lipparini, F. Egidi, J. Goings, B. Peng, A. Petrone, 
 T. Henderson, D. Ranasinghe, V. G. Zakrzewski, J. Gao, N. Rega, 
 G. Zheng, W. Liang, M. Hada, M. Ehara, K. Toyota, R. Fukuda, 
 J. Hasegawa, M. Ishida, T. Nakajima, Y. Honda, O. Kitao, H. Nakai, 
 T. Vreven, K. Throssell, J. A. Montgomery, Jr., J. E. Peralta, 
 F. Ogliaro, M. J. Bearpark, J. J. Heyd, E. N. Brothers, K. N. Kudin, 
 V. N. Staroverov, T. A. Keith, R. Kobayashi, J. Normand, 
 K. Raghavachari, A. P. Rendell, J. C. Burant, S. S. Iyengar, 
 J. Tomasi, M. Cossi, J. M. Millam, M. Klene, C. Adamo, R. Cammi, 
 J. W. Ochterski, R. L. Martin, K. Morokuma, O. Farkas, 
 J. B. Foresman, and D. J. Fox, Gaussian, Inc., Wallingford CT, 2019.
 
 ******************************************
 Gaussian 16:  ES64L-G16RevC.01  3-Jul-2019
                 9-Apr-2025 
 ******************************************
 %nprocs=16
 Will use up to   16 processors via shared memory.
 %mem=30GB
 %chk=BH10_181_forward_mol1.chk
 ----------------------------------------------------------------------
 #t hf aug-cc-pvdz symm=none int=(grid=ultrafine) guess=(read,tcheck) s
 table=opt
 ----------------------------------------------------------------------
 -----
 title
 -----
 Symbolic Z-matrix:
 Charge =  0 Multiplicity = 2
 N                     0.56739   0.00936  -0.73766 
 S                    -0.47977  -1.16339  -0.22652 
 O                    -1.30924  -0.50771   1.01107 
 C                    -2.42757   0.35406   0.71804 
 C                    -1.98713   1.76195   0.34557 
 H                    -2.99969   0.36112   1.64384 
 H                    -3.02712  -0.1022   -0.07122 
 C                    -1.24414   1.851    -0.96191 
 H                    -1.38807   2.17843   1.15921 
 H                    -2.895     2.37559   0.2837 
 H                    -0.24885   1.02761  -0.94059 
 H                    -1.78635   1.46635  -1.82505 
 C                     1.75595   0.40626   0.06331 
 C                     2.84106  -0.64743  -0.19956 
 C                     1.50596   0.55312   1.56507 
 C                     2.20893   1.7436   -0.52478 
 H                     2.3275    1.66795  -1.60664 
 H                     3.16786   2.02779  -0.08922 
 H                     1.49267   2.53738  -0.30532 
 H                     2.55327  -1.616     0.20407 
 H                     3.77116  -0.32792   0.2758 
 H                     3.01303  -0.75262  -1.27146 
 H                     1.19765  -0.38922   2.01603 
 H                     0.73734   1.29939   1.76951 
 H                     2.4295    0.87711   2.04896 
 O                     0.2585   -2.24739   0.36525 
 O                    -1.4225   -1.37349  -1.29852 
 H                    -0.77283   2.81126  -1.16044 
 
                    Distance matrix (angstroms):
                    1          2          3          4          5
     1  N    0.000000
     2  S    1.653217   0.000000
     3  O    2.616703   1.627750   0.000000
     4  C    3.347780   2.643625   1.441930   0.000000
     5  C    3.281850   3.340214   2.460440   1.521470   0.000000
     6  H    4.303410   3.488895   2.003218   1.088343   2.161738
     7  H    3.657467   2.763917   2.070480   1.091126   2.174931
     8  C    2.592989   3.195561   3.075772   2.542349   1.506469
     9  H    3.482355   3.730010   2.691368   2.145575   1.092858
    10  H    4.316290   4.314862   3.370029   2.119842   1.097544
    11  H    1.320709   2.315969   2.700115   2.819848   2.283657
    12  H    2.974109   3.343345   3.488277   2.848794   2.199833
    13  C    1.487195   2.747035   3.336008   4.234760   3.991020
    14  C    2.427032   3.360773   4.325515   5.440895   5.423438
    15  C    2.545419   3.177936   3.059015   4.028607   3.892317
    16  C    2.397412   3.970975   4.450252   4.997253   4.285417
    17  H    2.569835   4.219236   4.981139   5.453538   4.736663
    18  H    3.355148   4.848470   5.261540   5.895919   5.180124
    19  H    2.726532   4.194331   4.342365   4.602436   3.624083
    20  H    2.733561   3.096699   4.098595   5.380889   5.660899
    21  H    3.377127   4.361270   5.136473   6.251787   6.126200
    22  H    2.616621   3.668822   4.894070   5.897704   5.825757
    23  H    2.852878   2.905529   2.703422   3.921666   4.190567
    24  H    2.824706   3.395696   2.833601   3.466388   3.108744
    25  H    3.462039   4.219627   4.119838   5.063201   4.815718
    26  O    2.530755   1.438848   2.429276   3.755919   4.595436
    27  O    2.487268   1.442943   2.469136   2.839208   3.585084
    28  H    3.134582   4.093402   4.002342   3.507805   2.200831
                    6          7          8          9         10
     6  H    0.000000
     7  H    1.776752   0.000000
     8  C    3.477300   2.790577   0.000000
     9  H    2.476848   3.066213   2.151056   0.000000
    10  H    2.432908   2.506563   2.133553   1.753914   0.000000
    11  H    3.832838   3.122670   1.291912   2.651672   3.212171
    12  H    3.837567   2.660029   1.089480   3.093779   2.550027
    13  C    5.011609   4.811896   3.484093   3.771798   5.055509
    14  C    6.207221   5.894845   4.848937   5.264716   6.501885
    15  C    4.510420   4.863704   3.953880   3.343912   4.932719
    16  C    5.808951   5.570359   3.482288   3.995414   5.206069
    17  H    6.375921   5.844900   3.633978   4.660039   5.598981
    18  H    6.619666   6.550950   4.500959   4.726288   6.084268
    19  H    5.358792   5.239339   2.896958   3.251519   4.429984
    20  H    6.067720   5.788613   5.272564   5.553747   6.754459
    21  H    6.941950   6.810866   5.606502   5.803433   7.193516
    22  H    6.774377   6.192495   4.999818   5.819697   6.863600
    23  H    4.280096   4.720982   4.455231   3.743387   5.234020
    24  H    3.855061   4.418578   3.419232   2.379606   4.069358
    25  H    5.468677   5.935390   4.848654   4.130247   5.806193
    26  O    4.365192   3.948115   4.562464   4.788465   5.596707
    27  O    3.762169   2.386893   3.246920   4.319461   4.327504
    28  H    4.338908   3.841419   1.087960   2.481889   2.603644
                   11         12         13         14         15
    11  H    0.000000
    12  H    1.827201   0.000000
    13  C    2.326610   4.151815   0.000000
    14  C    3.591993   5.340709   1.535190   0.000000
    15  C    3.095617   4.813126   1.529500   2.517485   0.000000
    16  C    2.593495   4.210682   1.529555   2.494472   2.505780
    17  H    2.737007   4.124571   2.169626   2.757651   3.460863
    18  H    3.660479   5.279447   2.155491   2.697367   2.770069
    19  H    2.390786   3.769439   2.178739   3.460111   2.726878
    20  H    4.018806   5.696531   2.178315   1.088060   2.766632
    21  H    4.413335   6.206356   2.155280   1.092309   2.751290
    22  H    3.730756   5.316419   2.169065   1.090697   3.467297
    23  H    3.583493   5.205892   2.181196   2.770609   1.089227
    24  H    2.896734   4.395190   2.178622   3.477496   1.090641
    25  H    4.016671   5.755742   2.149002   2.747625   1.091811
    26  O    3.562059   4.771859   3.061920   3.090060   3.292195
    27  O    2.696458   2.911064   3.889039   4.462377   4.526351
    28  H    1.871976   1.810454   3.698151   5.093722   4.209571
                   16         17         18         19         20
    16  C    0.000000
    17  H    1.090964   0.000000
    18  H    1.090885   1.771519   0.000000
    19  H    1.091458   1.773776   1.764271   0.000000
    20  H    3.454959   3.756865   3.706883   4.316822   0.000000
    21  H    2.715271   3.100204   2.458981   3.706639   1.774137
    22  H    2.726760   2.538005   3.025286   3.750870   1.770317
    23  H    3.468049   4.316513   3.762413   3.747096   2.574074
    24  H    2.761645   3.750045   3.145295   2.531414   3.774614
    25  H    2.724637   3.741566   2.537929   3.029328   3.103954
    26  O    4.530381   4.847578   5.191156   4.986670   2.385492
    27  O    4.847912   4.838162   5.839742   4.977913   4.257149
    28  H    3.230299   3.334404   4.158169   2.436947   5.703109
                   21         22         23         24         25
    21  H    0.000000
    22  H    1.774583   0.000000
    23  H    3.107263   3.772964   0.000000
    24  H    3.752784   4.317063   1.767510   0.000000
    25  H    2.529082   3.744562   1.766950   1.766306   0.000000
    26  O    4.003888   3.535618   2.657042   3.844592   4.160600
    27  O    5.526825   4.478855   4.338233   4.606736   5.577522
    28  H    5.706579   5.200604   4.920962   3.626421   4.929109
                   26         27         28
    26  O    0.000000
    27  O    2.521427   0.000000
    28  H    5.383430   4.237137   0.000000
 Symmetry turned off by external request.
 Rotational constants (GHZ):           1.1045702           0.7779719           0.5998305
   424 basis functions,   730 primitive gaussians,   448 cartesian basis functions
    53 alpha electrons       52 beta electrons
       nuclear repulsion energy       996.9937791723 Hartrees.
 NAtoms=   28 NActive=   28 NUniq=   28 SFac= 1.00D+00 NAtFMM=   60 NAOKFM=F Big=F
 ExpMin= 2.97D-02 ExpMax= 1.11D+05 ExpMxC= 1.07D+03 IAcc=3 IRadAn=         5 AccDes= 0.00D+00
 Harris functional with IExCor=  205 and IRadAn=       5 diagonalized for initial guess.
 HarFok:  IExCor=  205 AccDes= 0.00D+00 IRadAn=         5 IDoV= 1 UseB2=F ITyADJ=14
 ICtDFT=  3500011 ScaDFX=  1.000000  1.000000  1.000000  1.000000
 FoFCou: FMM=F IPFlag=           0 FMFlag=      100000 FMFlg1=           0
         NFxFlg=           0 DoJE=T BraDBF=F KetDBF=T FulRan=T
         wScrn=  0.000000 ICntrl=       500 IOpCl=  0 I1Cent=   200000004 NGrid=           0
         NMat0=    1 NMatS0=      1 NMatT0=    0 NMatD0=    1 NMtDS0=    0 NMtDT0=    0
 Symmetry not used in FoFCou.
 Initial guess <Sx>= 0.0000 <Sy>= 0.0000 <Sz>= 0.5000 <S**2>= 0.7500 S= 0.5000
 SCF Done:  E(UHF) =  -950.846243230     A.U. after   20 cycles
            NFock= 20  Conv=0.77D-08     -V/T= 2.0009
 <Sx>= 0.0000 <Sy>= 0.0000 <Sz>= 0.5000 <S**2>= 0.7916 S= 0.5206
 <L.S>=  0.00000000000    
 Annihilation of the first spin contaminant:
 S**2 before annihilation     0.7916,   after     0.7507

 **********************************************************************

            Population analysis using the SCF Density.

 **********************************************************************

 Alpha  occ. eigenvalues --  -92.25529 -20.62202 -20.56670 -20.56309 -15.62690
 Alpha  occ. eigenvalues --  -11.31337 -11.29538 -11.27228 -11.26087 -11.23626
 Alpha  occ. eigenvalues --  -11.22765 -11.22233  -9.21872  -6.90469  -6.90428
 Alpha  occ. eigenvalues --   -6.90307  -1.51298  -1.38933  -1.36171  -1.25659
 Alpha  occ. eigenvalues --   -1.10005  -1.08214  -0.97693  -0.95435  -0.94582
 Alpha  occ. eigenvalues --   -0.88598  -0.83176  -0.77824  -0.74444  -0.70419
 Alpha  occ. eigenvalues --   -0.69576  -0.66971  -0.65524  -0.64370  -0.62445
 Alpha  occ. eigenvalues --   -0.61708  -0.60242  -0.57351  -0.56753  -0.56373
 Alpha  occ. eigenvalues --   -0.56308  -0.54074  -0.53010  -0.52739  -0.51671
 Alpha  occ. eigenvalues --   -0.50902  -0.49404  -0.49237  -0.48728  -0.47792
 Alpha  occ. eigenvalues --   -0.47366  -0.43766  -0.39571
 Alpha virt. eigenvalues --    0.02655   0.03606   0.04028   0.04641   0.05439
 Alpha virt. eigenvalues --    0.05667   0.05791   0.06693   0.06973   0.07850
 Alpha virt. eigenvalues --    0.08222   0.08431   0.08939   0.09488   0.09989
 Alpha virt. eigenvalues --    0.11233   0.12250   0.12508   0.13595   0.14211
 Alpha virt. eigenvalues --    0.14348   0.14639   0.15020   0.15337   0.15534
 Alpha virt. eigenvalues --    0.16156   0.16644   0.16792   0.17349   0.17585
 Alpha virt. eigenvalues --    0.18228   0.18601   0.18861   0.19279   0.19842
 Alpha virt. eigenvalues --    0.20213   0.20615   0.20843   0.21544   0.22306
 Alpha virt. eigenvalues --    0.22447   0.22781   0.23374   0.23739   0.24021
 Alpha virt. eigenvalues --    0.24767   0.25703   0.26037   0.27235   0.28026
 Alpha virt. eigenvalues --    0.28516   0.29519   0.29812   0.30731   0.30945
 Alpha virt. eigenvalues --    0.31663   0.32500   0.33098   0.33447   0.33628
 Alpha virt. eigenvalues --    0.34262   0.35099   0.35378   0.35512   0.36217
 Alpha virt. eigenvalues --    0.36778   0.36869   0.38280   0.38612   0.39191
 Alpha virt. eigenvalues --    0.39537   0.39875   0.40287   0.40409   0.40797
 Alpha virt. eigenvalues --    0.41481   0.41591   0.42326   0.42495   0.43232
 Alpha virt. eigenvalues --    0.43470   0.44282   0.45093   0.45569   0.45968
 Alpha virt. eigenvalues --    0.46263   0.47004   0.47879   0.48156   0.48433
 Alpha virt. eigenvalues --    0.49015   0.49349   0.50039   0.50612   0.50968
 Alpha virt. eigenvalues --    0.51170   0.51799   0.51920   0.52877   0.53303
 Alpha virt. eigenvalues --    0.53463   0.53652   0.56014   0.56490   0.57077
 Alpha virt. eigenvalues --    0.57283   0.58085   0.58846   0.59363   0.60200
 Alpha virt. eigenvalues --    0.60891   0.61268   0.61641   0.62201   0.62831
 Alpha virt. eigenvalues --    0.63054   0.63467   0.64075   0.64538   0.65371
 Alpha virt. eigenvalues --    0.66328   0.66936   0.67222   0.67463   0.68632
 Alpha virt. eigenvalues --    0.69356   0.69995   0.70745   0.70974   0.71094
 Alpha virt. eigenvalues --    0.71937   0.72150   0.73041   0.73540   0.74532
 Alpha virt. eigenvalues --    0.74969   0.75452   0.75963   0.76217   0.76573
 Alpha virt. eigenvalues --    0.78423   0.78680   0.79933   0.80641   0.80672
 Alpha virt. eigenvalues --    0.81181   0.81780   0.82520   0.82909   0.83944
 Alpha virt. eigenvalues --    0.84444   0.85613   0.86258   0.86359   0.87368
 Alpha virt. eigenvalues --    0.88006   0.88517   0.88921   0.89605   0.90852
 Alpha virt. eigenvalues --    0.91894   0.92377   0.93225   0.93316   0.93631
 Alpha virt. eigenvalues --    0.94416   0.95352   0.95656   0.96610   0.96764
 Alpha virt. eigenvalues --    0.97659   0.98661   0.99153   1.00283   1.01389
 Alpha virt. eigenvalues --    1.01598   1.03051   1.04530   1.05104   1.06781
 Alpha virt. eigenvalues --    1.07125   1.08652   1.10134   1.10883   1.12048
 Alpha virt. eigenvalues --    1.12518   1.14144   1.15959   1.16591   1.18463
 Alpha virt. eigenvalues --    1.19034   1.20124   1.21681   1.22445   1.23353
 Alpha virt. eigenvalues --    1.24669   1.25575   1.27269   1.28080   1.30342
 Alpha virt. eigenvalues --    1.31437   1.32544   1.33247   1.34403   1.35240
 Alpha virt. eigenvalues --    1.35858   1.37439   1.37997   1.38694   1.41205
 Alpha virt. eigenvalues --    1.41429   1.42037   1.43180   1.43896   1.45638
 Alpha virt. eigenvalues --    1.47458   1.48080   1.48571   1.50268   1.52079
 Alpha virt. eigenvalues --    1.52702   1.54622   1.55158   1.56955   1.57119
 Alpha virt. eigenvalues --    1.60035   1.61178   1.61302   1.63403   1.64825
 Alpha virt. eigenvalues --    1.66679   1.67752   1.68345   1.69107   1.71297
 Alpha virt. eigenvalues --    1.73736   1.73808   1.76154   1.77028   1.77325
 Alpha virt. eigenvalues --    1.79583   1.79935   1.80583   1.81350   1.83205
 Alpha virt. eigenvalues --    1.84722   1.85925   1.87430   1.89462   1.91095
 Alpha virt. eigenvalues --    1.91924   1.92179   1.94005   1.95906   1.97939
 Alpha virt. eigenvalues --    1.98663   1.99454   2.00345   2.01227   2.01983
 Alpha virt. eigenvalues --    2.03989   2.05446   2.06638   2.06873   2.08558
 Alpha virt. eigenvalues --    2.09173   2.10362   2.11878   2.12115   2.13401
 Alpha virt. eigenvalues --    2.14610   2.15095   2.15708   2.17551   2.18128
 Alpha virt. eigenvalues --    2.18918   2.19683   2.21680   2.23888   2.24215
 Alpha virt. eigenvalues --    2.24955   2.25504   2.25783   2.28675   2.29304
 Alpha virt. eigenvalues --    2.29699   2.30211   2.32008   2.34323   2.35472
 Alpha virt. eigenvalues --    2.35604   2.36474   2.37497   2.39828   2.40251
 Alpha virt. eigenvalues --    2.40810   2.42403   2.45355   2.46644   2.48418
 Alpha virt. eigenvalues --    2.50694   2.51332   2.52398   2.53747   2.56299
 Alpha virt. eigenvalues --    2.58239   2.59347   2.60705   2.62831   2.64574
 Alpha virt. eigenvalues --    2.66370   2.67618   2.68847   2.69448   2.71215
 Alpha virt. eigenvalues --    2.72373   2.74475   2.74703   2.76293   2.76953
 Alpha virt. eigenvalues --    2.78354   2.80833   2.81127   2.83350   2.83851
 Alpha virt. eigenvalues --    2.86871   2.89465   2.90464   2.92168   2.94485
 Alpha virt. eigenvalues --    2.98351   2.99177   2.99825   3.01635   3.01880
 Alpha virt. eigenvalues --    3.04356   3.05526   3.07340   3.08966   3.12289
 Alpha virt. eigenvalues --    3.13014   3.18490   3.20448   3.22969   3.24800
 Alpha virt. eigenvalues --    3.29301   3.30208   3.34814   3.42372   3.45107
 Alpha virt. eigenvalues --    3.53851   3.61770   3.68718   3.70413   3.73270
 Alpha virt. eigenvalues --    3.76771   3.77464   3.79574   3.82047   3.84130
 Alpha virt. eigenvalues --    3.84576   3.86736   3.90194   3.92440   3.93729
 Alpha virt. eigenvalues --    3.94728   4.03129   4.07918   4.08917   4.11918
 Alpha virt. eigenvalues --    4.20318
  Beta  occ. eigenvalues --  -92.25569 -20.62225 -20.56502 -20.56340 -15.60272
  Beta  occ. eigenvalues --  -11.31305 -11.29666 -11.26225 -11.25562 -11.23594
  Beta  occ. eigenvalues --  -11.22759 -11.22118  -9.21927  -6.90505  -6.90455
  Beta  occ. eigenvalues --   -6.90423  -1.51077  -1.38862  -1.36012  -1.20771
  Beta  occ. eigenvalues --   -1.08498  -1.06822  -0.95470  -0.95290  -0.93982
  Beta  occ. eigenvalues --   -0.86776  -0.82203  -0.77522  -0.72169  -0.69256
  Beta  occ. eigenvalues --   -0.68390  -0.64892  -0.64417  -0.63615  -0.61987
  Beta  occ. eigenvalues --   -0.61246  -0.59354  -0.56577  -0.56265  -0.55704
  Beta  occ. eigenvalues --   -0.55219  -0.52978  -0.52702  -0.51250  -0.50938
  Beta  occ. eigenvalues --   -0.50065  -0.49039  -0.48588  -0.48452  -0.47394
  Beta  occ. eigenvalues --   -0.45827  -0.41022
  Beta virt. eigenvalues --    0.02590   0.03296   0.03617   0.04329   0.04951
  Beta virt. eigenvalues --    0.05470   0.05743   0.05905   0.06714   0.06978
  Beta virt. eigenvalues --    0.07907   0.08228   0.08443   0.08995   0.09504
  Beta virt. eigenvalues --    0.09993   0.11264   0.12270   0.12516   0.13632
  Beta virt. eigenvalues --    0.14331   0.14455   0.14679   0.15082   0.15360
  Beta virt. eigenvalues --    0.15593   0.16187   0.16692   0.16863   0.17389
  Beta virt. eigenvalues --    0.17606   0.18312   0.18624   0.18907   0.19361
  Beta virt. eigenvalues --    0.19967   0.20278   0.20646   0.20865   0.21587
  Beta virt. eigenvalues --    0.22399   0.22558   0.22820   0.23494   0.23842
  Beta virt. eigenvalues --    0.24064   0.25002   0.25807   0.26306   0.27431
  Beta virt. eigenvalues --    0.28418   0.28818   0.29666   0.29966   0.30823
  Beta virt. eigenvalues --    0.31146   0.31855   0.32718   0.33208   0.33460
  Beta virt. eigenvalues --    0.33804   0.34368   0.35133   0.35528   0.35684
  Beta virt. eigenvalues --    0.36741   0.37013   0.37384   0.38435   0.38809
  Beta virt. eigenvalues --    0.39231   0.39768   0.40045   0.40426   0.40520
  Beta virt. eigenvalues --    0.40897   0.41796   0.42097   0.42512   0.42860
  Beta virt. eigenvalues --    0.43587   0.43644   0.44376   0.45570   0.45656
  Beta virt. eigenvalues --    0.46239   0.46407   0.47144   0.48012   0.48330
  Beta virt. eigenvalues --    0.48525   0.49358   0.49508   0.50090   0.50953
  Beta virt. eigenvalues --    0.51230   0.51323   0.51938   0.52164   0.53290
  Beta virt. eigenvalues --    0.53557   0.53895   0.54488   0.56072   0.56829
  Beta virt. eigenvalues --    0.57345   0.57433   0.58196   0.59054   0.59572
  Beta virt. eigenvalues --    0.60689   0.61044   0.61484   0.61884   0.62515
  Beta virt. eigenvalues --    0.63045   0.63595   0.63913   0.64420   0.64915
  Beta virt. eigenvalues --    0.66158   0.66606   0.67136   0.67462   0.67813
  Beta virt. eigenvalues --    0.68959   0.69548   0.70142   0.70879   0.71116
  Beta virt. eigenvalues --    0.71325   0.72076   0.72304   0.73115   0.73735
  Beta virt. eigenvalues --    0.74710   0.75154   0.75797   0.76103   0.76425
  Beta virt. eigenvalues --    0.76866   0.78529   0.78830   0.80409   0.80933
  Beta virt. eigenvalues --    0.80974   0.81372   0.81988   0.82781   0.82946
  Beta virt. eigenvalues --    0.84107   0.84682   0.85836   0.86338   0.86513
  Beta virt. eigenvalues --    0.87502   0.88113   0.88649   0.88975   0.89773
  Beta virt. eigenvalues --    0.91077   0.92044   0.92475   0.93261   0.93489
  Beta virt. eigenvalues --    0.94066   0.94636   0.95512   0.96007   0.96817
  Beta virt. eigenvalues --    0.97236   0.97944   0.98798   0.99309   1.00479
  Beta virt. eigenvalues --    1.01610   1.01766   1.03319   1.04880   1.05324
  Beta virt. eigenvalues --    1.07138   1.07367   1.08906   1.10251   1.10972
  Beta virt. eigenvalues --    1.12332   1.12811   1.14298   1.16278   1.16740
  Beta virt. eigenvalues --    1.18620   1.19135   1.20282   1.22215   1.22600
  Beta virt. eigenvalues --    1.23696   1.24922   1.25794   1.27463   1.28220
  Beta virt. eigenvalues --    1.30722   1.31723   1.32878   1.33393   1.34719
  Beta virt. eigenvalues --    1.35494   1.36384   1.37675   1.38173   1.39176
  Beta virt. eigenvalues --    1.41414   1.41632   1.42273   1.43323   1.44096
  Beta virt. eigenvalues --    1.45874   1.47634   1.48312   1.49010   1.50511
  Beta virt. eigenvalues --    1.52204   1.52829   1.54916   1.55408   1.57195
  Beta virt. eigenvalues --    1.57500   1.60227   1.61446   1.62182   1.63661
  Beta virt. eigenvalues --    1.64962   1.66850   1.68053   1.68556   1.69452
  Beta virt. eigenvalues --    1.71498   1.73989   1.74333   1.76394   1.77182
  Beta virt. eigenvalues --    1.77556   1.79787   1.80204   1.80879   1.81458
  Beta virt. eigenvalues --    1.83454   1.85098   1.86130   1.88033   1.90083
  Beta virt. eigenvalues --    1.91417   1.92263   1.92545   1.94525   1.96097
  Beta virt. eigenvalues --    1.98355   1.98927   2.00255   2.00751   2.01702
  Beta virt. eigenvalues --    2.02195   2.04380   2.05671   2.07031   2.07087
  Beta virt. eigenvalues --    2.08742   2.09422   2.10701   2.12306   2.12450
  Beta virt. eigenvalues --    2.13547   2.14819   2.15357   2.15949   2.17671
  Beta virt. eigenvalues --    2.18363   2.19265   2.20298   2.22030   2.24044
  Beta virt. eigenvalues --    2.24505   2.25391   2.25826   2.26541   2.28914
  Beta virt. eigenvalues --    2.29586   2.29879   2.30452   2.32167   2.34499
  Beta virt. eigenvalues --    2.35638   2.35835   2.36579   2.37872   2.39915
  Beta virt. eigenvalues --    2.40423   2.41024   2.42804   2.45394   2.46888
  Beta virt. eigenvalues --    2.48694   2.50966   2.51490   2.52779   2.53932
  Beta virt. eigenvalues --    2.56536   2.58316   2.59676   2.60843   2.63168
  Beta virt. eigenvalues --    2.64782   2.66550   2.67913   2.68885   2.69653
  Beta virt. eigenvalues --    2.71370   2.73314   2.74618   2.75179   2.76688
  Beta virt. eigenvalues --    2.77278   2.78910   2.81050   2.81431   2.83550
  Beta virt. eigenvalues --    2.84435   2.87359   2.89805   2.90842   2.92620
  Beta virt. eigenvalues --    2.94684   2.98917   2.99854   3.01217   3.01961
  Beta virt. eigenvalues --    3.02359   3.05085   3.05696   3.07673   3.09789
  Beta virt. eigenvalues --    3.12843   3.14270   3.19022   3.20796   3.23371
  Beta virt. eigenvalues --    3.25231   3.29630   3.30638   3.35252   3.42610
  Beta virt. eigenvalues --    3.45805   3.54784   3.62775   3.69019   3.70795
  Beta virt. eigenvalues --    3.73439   3.76905   3.77542   3.79729   3.82143
  Beta virt. eigenvalues --    3.84197   3.84861   3.86810   3.90318   3.92716
  Beta virt. eigenvalues --    3.93801   3.94959   4.03230   4.07946   4.09234
  Beta virt. eigenvalues --    4.11953   4.20489
          Condensed to atoms (all electrons):
          Atomic-Atomic Spin Densities.
 Mulliken charges and spin densities:
               1          2
     1  N   -0.950683   0.823650
     2  S    3.122748  -0.049612
     3  O   -1.192530  -0.005980
     4  C    0.971105   0.009933
     5  C    0.105887  -0.099152
     6  H   -0.308426  -0.000518
     7  H   -0.078956  -0.002162
     8  C    0.438091   0.851822
     9  H   -0.129006   0.002800
    10  H   -0.076736   0.022166
    11  H    0.022154  -0.412784
    12  H   -0.019831  -0.046654
    13  C   -3.346895  -0.126178
    14  C    1.223329   0.050734
    15  C    1.341506   0.013006
    16  C    1.385993   0.011768
    17  H    0.016035   0.000217
    18  H   -0.050103  -0.001774
    19  H   -0.064525  -0.004815
    20  H    0.014265   0.000595
    21  H    0.031809   0.004687
    22  H   -0.033677  -0.000397
    23  H   -0.067079  -0.000635
    24  H   -0.076283  -0.001474
    25  H    0.014923  -0.001231
    26  O   -1.105738   0.021343
    27  O   -1.115998  -0.006642
    28  H   -0.071377  -0.052713
 Sum of Mulliken charges =  -0.00000   1.00000
 Mulliken charges and spin densities with hydrogens summed into heavy atoms:
               1          2
     1  N   -0.950683   0.823650
     2  S    3.122748  -0.049612
     3  O   -1.192530  -0.005980
     4  C    0.583724   0.007253
     5  C   -0.099856  -0.074186
     8  C    0.369037   0.339671
    13  C   -3.346895  -0.126178
    14  C    1.235726   0.055619
    15  C    1.213066   0.009667
    16  C    1.287400   0.005396
    26  O   -1.105738   0.021343
    27  O   -1.115998  -0.006642
 Electronic spatial extent (au):  <R**2>=           2200.0161
 Charge=             -0.0000 electrons
 Dipole moment (field-independent basis, Debye):
    X=             -0.2046    Y=              5.8691    Z=              1.1865  Tot=              5.9913
                          Isotropic Fermi Contact Couplings
        Atom                 a.u.       MegaHertz       Gauss      10(-4) cm-1
     1  N(14)              0.32255     104.21830      37.18768      34.76348
     2  S(33)             -0.06421     -22.05524      -7.86986      -7.35684
     3  O(17)             -0.00547       3.31358       1.18237       1.10529
     4  C(13)              0.00729       8.19085       2.92270       2.73217
     5  C(13)             -0.02634     -29.61540     -10.56751      -9.87863
     6  H(1)              -0.00061      -2.72266      -0.97151      -0.90818
     7  H(1)              -0.00032      -1.45011      -0.51744      -0.48371
     8  C(13)              0.20357     228.84836      81.65879      76.33560
     9  H(1)               0.00198       8.85255       3.15881       2.95289
    10  H(1)               0.01311      58.58243      20.90367      19.54099
    11  H(1)              -0.05739    -256.53217     -91.53706     -85.56992
    12  H(1)              -0.01035     -46.24983     -16.50309     -15.42728
    13  C(13)             -0.02404     -27.03034      -9.64510      -9.01635
    14  C(13)              0.02436      27.38183       9.77052       9.13360
    15  C(13)              0.00040       0.45383       0.16194       0.15138
    16  C(13)              0.00465       5.23168       1.86679       1.74510
    17  H(1)              -0.00033      -1.47349      -0.52578      -0.49150
    18  H(1)              -0.00082      -3.67139      -1.31004      -1.22464
    19  H(1)              -0.00022      -0.96584      -0.34464      -0.32217
    20  H(1)              -0.00080      -3.57803      -1.27673      -1.19350
    21  H(1)               0.00227      10.13510       3.61645       3.38070
    22  H(1)              -0.00047      -2.10221      -0.75012      -0.70122
    23  H(1)              -0.00021      -0.92246      -0.32916      -0.30770
    24  H(1)              -0.00012      -0.53162      -0.18970      -0.17733
    25  H(1)              -0.00067      -3.01222      -1.07483      -1.00477
    26  O(17)              0.01382      -8.38048      -2.99036      -2.79543
    27  O(17)             -0.00284       1.71975       0.61365       0.57365
    28  H(1)              -0.00914     -40.83403     -14.57060     -13.62077
 --------------------------------------------------------
       Center         ----  Spin Dipole Couplings  ----
                      3XX-RR        3YY-RR        3ZZ-RR
 --------------------------------------------------------
     1   Atom        0.038923      0.615487     -0.654410
     2   Atom        0.001122     -0.052134      0.051012
     3   Atom       -0.008871      0.016869     -0.007998
     4   Atom        0.000150      0.002186     -0.002336
     5   Atom        0.004087     -0.001928     -0.002159
     6   Atom        0.000505     -0.001633      0.001128
     7   Atom        0.003663     -0.000070     -0.003594
     8   Atom        0.253354      0.068395     -0.321749
     9   Atom       -0.005239     -0.003960      0.009199
    10   Atom        0.001783     -0.004269      0.002485
    11   Atom        0.065483      0.071653     -0.137136
    12   Atom       -0.001191     -0.013121      0.014312
    13   Atom        0.014635     -0.012941     -0.001694
    14   Atom        0.022924     -0.002532     -0.020392
    15   Atom       -0.001938     -0.005118      0.007056
    16   Atom        0.001606      0.008474     -0.010080
    17   Atom        0.003952     -0.000666     -0.003286
    18   Atom        0.003407     -0.000448     -0.002958
    19   Atom        0.002958      0.003283     -0.006240
    20   Atom        0.002066      0.002622     -0.004688
    21   Atom        0.004657     -0.002109     -0.002547
    22   Atom        0.006494     -0.004935     -0.001559
    23   Atom       -0.002954     -0.003019      0.005973
    24   Atom       -0.003352     -0.002748      0.006099
    25   Atom        0.000162     -0.001935      0.001773
    26   Atom       -0.028303      0.020248      0.008055
    27   Atom       -0.007626     -0.002010      0.009636
    28   Atom        0.001074      0.041455     -0.042529
 --------------------------------------------------------
                        XY            XZ            YZ
 --------------------------------------------------------
     1   Atom       -0.975765     -0.015557      0.004210
     2   Atom       -0.040216     -0.005299      0.005487
     3   Atom        0.005920      0.008642     -0.011805
     4   Atom        0.007380     -0.007381     -0.005940
     5   Atom       -0.003725     -0.008110      0.004673
     6   Atom        0.000858     -0.003306     -0.001700
     7   Atom        0.004213     -0.002288     -0.001623
     8   Atom       -0.482132      0.080145     -0.063655
     9   Atom       -0.003559     -0.004471      0.003456
    10   Atom       -0.002013     -0.006034      0.000406
    11   Atom       -0.209028      0.025562     -0.029813
    12   Atom       -0.002417      0.039199      0.026699
    13   Atom       -0.007210      0.012742     -0.004725
    14   Atom       -0.028745      0.000018     -0.000420
    15   Atom        0.000535      0.005901      0.002238
    16   Atom        0.010920      0.000777     -0.003693
    17   Atom        0.004962     -0.003876     -0.002860
    18   Atom        0.003073      0.001740      0.000704
    19   Atom        0.005477      0.001954      0.002202
    20   Atom       -0.005204      0.003218     -0.003898
    21   Atom        0.000161      0.003133      0.000911
    22   Atom       -0.004149     -0.004463      0.002248
    23   Atom       -0.000934      0.002722     -0.001613
    24   Atom       -0.000268      0.003170      0.003299
    25   Atom        0.000453      0.003241      0.001204
    26   Atom        0.069515     -0.064059     -0.087085
    27   Atom       -0.015943     -0.001508      0.004104
    28   Atom        0.020184     -0.004157     -0.017143
 --------------------------------------------------------


 ---------------------------------------------------------------------------------
              Anisotropic Spin Dipole Couplings in Principal Axis System
 ---------------------------------------------------------------------------------

       Atom             a.u.   MegaHertz   Gauss  10(-4) cm-1        Axes

              Baa    -0.6928   -26.721    -9.535    -8.913  0.7763  0.5782  0.2510
     1 N(14)  Bbb    -0.6519   -25.143    -8.972    -8.387 -0.1974 -0.1552  0.9680
              Bcc     1.3447    51.864    18.506    17.300 -0.5986  0.8010  0.0063
 
              Baa    -0.0738    -3.025    -1.079    -1.009  0.4719  0.8814 -0.0187
     2 S(33)  Bbb     0.0210     0.860     0.307     0.287  0.8590 -0.4549  0.2347
              Bcc     0.0528     2.165     0.773     0.722 -0.1983  0.1268  0.9719
 
              Baa    -0.0212     1.537     0.548     0.513 -0.6404  0.3163  0.6999
     3 O(17)  Bbb    -0.0005     0.038     0.014     0.013  0.7636  0.1639  0.6246
              Bcc     0.0218    -1.575    -0.562    -0.525  0.0828  0.9344 -0.3465
 
              Baa    -0.0086    -1.153    -0.411    -0.384  0.6679 -0.0480  0.7427
     4 C(13)  Bbb    -0.0054    -0.725    -0.259    -0.242 -0.4409  0.7785  0.4467
              Bcc     0.0140     1.878     0.670     0.626  0.5996  0.6258 -0.4988
 
              Baa    -0.0084    -1.125    -0.401    -0.375  0.4352 -0.3496  0.8297
     5 C(13)  Bbb    -0.0036    -0.489    -0.174    -0.163  0.5098  0.8552  0.0930
              Bcc     0.0120     1.613     0.576     0.538  0.7421 -0.3825 -0.5504
 
              Baa    -0.0029    -1.523    -0.544    -0.508  0.5033  0.5610  0.6572
     6 H(1)   Bbb    -0.0018    -0.971    -0.346    -0.324 -0.5902  0.7787 -0.2127
              Bcc     0.0047     2.494     0.890     0.832 -0.6312 -0.2808  0.7230
 
              Baa    -0.0043    -2.312    -0.825    -0.771  0.1723  0.1970  0.9651
     7 H(1)   Bbb    -0.0028    -1.496    -0.534    -0.499 -0.5614  0.8247 -0.0681
              Bcc     0.0071     3.808     1.359     1.270  0.8094  0.5301 -0.2527
 
              Baa    -0.3335   -44.755   -15.970   -14.929 -0.3846 -0.3245  0.8642
     8 C(13)  Bbb    -0.3289   -44.138   -15.749   -14.723  0.5138  0.7024  0.4925
              Bcc     0.6624    88.892    31.719    29.651  0.7668 -0.6335  0.1034
 
              Baa    -0.0083    -4.442    -1.585    -1.482  0.8056  0.5855  0.0901
     9 H(1)   Bbb    -0.0034    -1.789    -0.638    -0.597 -0.5116  0.7643 -0.3926
              Bcc     0.0117     6.231     2.223     2.078 -0.2987  0.2702  0.9153
 
              Baa    -0.0054    -2.887    -1.030    -0.963  0.5147  0.7813  0.3531
    10 H(1)   Bbb    -0.0030    -1.596    -0.569    -0.532 -0.5096  0.6100 -0.6068
              Bcc     0.0084     4.483     1.600     1.495 -0.6894  0.1324  0.7121
 
              Baa    -0.1434   -76.486   -27.292   -25.513  0.4412  0.5294  0.7246
    11 H(1)   Bbb    -0.1379   -73.595   -26.260   -24.549 -0.5636 -0.4649  0.6828
              Bcc     0.2813   150.081    53.553    50.062 -0.6984  0.7096 -0.0932
 
              Baa    -0.0457   -24.408    -8.709    -8.142 -0.5702 -0.5452  0.6145
    12 H(1)   Bbb    -0.0067    -3.578    -1.277    -1.193 -0.6058  0.7843  0.1336
              Bcc     0.0525    27.986     9.986     9.335  0.5548  0.2961  0.7775
 
              Baa    -0.0150    -2.017    -0.720    -0.673  0.1492  0.9683  0.2005
    13 C(13)  Bbb    -0.0086    -1.153    -0.411    -0.385 -0.5023 -0.1004  0.8588
              Bcc     0.0236     3.170     1.131     1.057  0.8517 -0.2289  0.4714
 
              Baa    -0.0214    -2.867    -1.023    -0.956  0.5132  0.7909  0.3332
    14 C(13)  Bbb    -0.0203    -2.720    -0.971    -0.907 -0.1849 -0.2772  0.9429
              Bcc     0.0416     5.587     1.994     1.864  0.8381 -0.5455  0.0039
 
              Baa    -0.0057    -0.770    -0.275    -0.257  0.3947  0.8567 -0.3319
    15 C(13)  Bbb    -0.0046    -0.613    -0.219    -0.204  0.8094 -0.4952 -0.3156
              Bcc     0.0103     1.383     0.493     0.461  0.4348  0.1441  0.8889
 
              Baa    -0.0118    -1.580    -0.564    -0.527 -0.3263  0.3370  0.8831
    16 C(13)  Bbb    -0.0049    -0.664    -0.237    -0.222  0.7467 -0.4810  0.4594
              Bcc     0.0167     2.245     0.801     0.749  0.5796  0.8094 -0.0947
 
              Baa    -0.0052    -2.792    -0.996    -0.931  0.1844  0.3700  0.9106
    17 H(1)   Bbb    -0.0038    -2.009    -0.717    -0.670 -0.5978  0.7776 -0.1949
              Bcc     0.0090     4.800     1.713     1.601  0.7801  0.5084 -0.3645
 
              Baa    -0.0034    -1.818    -0.649    -0.606 -0.2680  0.0495  0.9621
    18 H(1)   Bbb    -0.0021    -1.126    -0.402    -0.375 -0.4389  0.8828 -0.1677
              Bcc     0.0055     2.943     1.050     0.982  0.8576  0.4672  0.2149
 
              Baa    -0.0068    -3.631    -1.296    -1.211 -0.1096 -0.1548  0.9818
    19 H(1)   Bbb    -0.0024    -1.257    -0.449    -0.419  0.7225 -0.6908 -0.0282
              Bcc     0.0092     4.888     1.744     1.630  0.6826  0.7063  0.1876
 
              Baa    -0.0065    -3.482    -1.243    -1.162 -0.1666  0.3047  0.9377
    20 H(1)   Bbb    -0.0028    -1.515    -0.541    -0.505  0.7496  0.6570 -0.0803
              Bcc     0.0094     4.997     1.783     1.667 -0.6405  0.6896 -0.3379
 
              Baa    -0.0041    -2.161    -0.771    -0.721 -0.3064 -0.3836  0.8712
    21 H(1)   Bbb    -0.0018    -0.964    -0.344    -0.321 -0.1876  0.9216  0.3398
              Bcc     0.0059     3.125     1.115     1.042  0.9332  0.0593  0.3543
 
              Baa    -0.0065    -3.448    -1.230    -1.150  0.2238  0.9470 -0.2305
    22 H(1)   Bbb    -0.0035    -1.869    -0.667    -0.623  0.4434  0.1117  0.8893
              Bcc     0.0100     5.317     1.897     1.773  0.8679 -0.3013 -0.3949
 
              Baa    -0.0040    -2.147    -0.766    -0.716  0.8251  0.5484 -0.1362
    23 H(1)   Bbb    -0.0030    -1.621    -0.578    -0.541 -0.4945  0.8174  0.2957
              Bcc     0.0071     3.768     1.344     1.257  0.2734 -0.1766  0.9455
 
              Baa    -0.0052    -2.774    -0.990    -0.925  0.7238  0.5807 -0.3727
    24 H(1)   Bbb    -0.0028    -1.473    -0.526    -0.491 -0.6420  0.7647 -0.0551
              Bcc     0.0080     4.247     1.515     1.417  0.2530  0.2791  0.9263
 
              Baa    -0.0027    -1.420    -0.507    -0.474  0.5609  0.5982 -0.5723
    25 H(1)   Bbb    -0.0019    -1.002    -0.358    -0.334 -0.5737  0.7792  0.2522
              Bcc     0.0045     2.423     0.865     0.808  0.5969  0.1869  0.7803
 
              Baa    -0.0781     5.653     2.017     1.886  0.8806 -0.4060  0.2443
    26 O(17)  Bbb    -0.0731     5.289     1.887     1.764  0.0864  0.6444  0.7598
              Bcc     0.1512   -10.942    -3.905    -3.650  0.4659  0.6479 -0.6026
 
              Baa    -0.0211     1.525     0.544     0.509  0.7610  0.6468 -0.0491
    27 O(17)  Bbb     0.0063    -0.459    -0.164    -0.153  0.4391 -0.4580  0.7729
              Bcc     0.0147    -1.066    -0.380    -0.356 -0.4775  0.6098  0.6326
 
              Baa    -0.0459   -24.487    -8.738    -8.168  0.0046  0.1916  0.9815
    28 H(1)   Bbb    -0.0071    -3.790    -1.352    -1.264  0.9295 -0.3629  0.0665
              Bcc     0.0530    28.277    10.090     9.432  0.3689  0.9119 -0.1797
 

 ---------------------------------------------------------------------------------

 NROrb=    424 NOA=    53 NOB=    52 NVA=   371 NVB=   372

 **** Warning!!: The largest alpha MO coefficient is  0.12655182D+03


 **** Warning!!: The largest beta MO coefficient is  0.12848227D+03

    12 initial guesses have been made.
 Iteration     1 Dimension    12 NMult     0 NNew     12
 Iteration     2 Dimension    24 NMult    12 NNew     12
 Iteration     3 Dimension    27 NMult    24 NNew      3
 Iteration     4 Dimension    30 NMult    27 NNew      3
 Iteration     5 Dimension    33 NMult    30 NNew      3
 Iteration     6 Dimension    36 NMult    33 NNew      3
 ***********************************************************************
 Stability analysis using <AA,BB:AA,BB> singles matrix:
 ***********************************************************************
 Ground to excited state transition densities written to RWF  633

 Eigenvectors of the stability matrix:
 
 Excited state symmetry could not be determined.
 Eigenvector   1:  2.090-?Sym  Eigenvalue= 0.0890903  <S**2>=0.842
     47B -> 54B       -0.10170
     52B -> 53B       -0.26080
     52B -> 54B        0.60249
     52B -> 56B       -0.29239
     52B -> 57B        0.36945
     52B -> 59B       -0.10381
     52B -> 60B        0.24639
 The wavefunction is stable under the perturbations considered.
 The wavefunction is already stable.

 **********************************************************************

            Population analysis using the SCF Density.

 **********************************************************************

 Alpha  occ. eigenvalues --  -92.25529 -20.62202 -20.56670 -20.56309 -15.62690
 Alpha  occ. eigenvalues --  -11.31337 -11.29538 -11.27228 -11.26087 -11.23626
 Alpha  occ. eigenvalues --  -11.22765 -11.22233  -9.21872  -6.90469  -6.90428
 Alpha  occ. eigenvalues --   -6.90307  -1.51298  -1.38933  -1.36171  -1.25659
 Alpha  occ. eigenvalues --   -1.10005  -1.08214  -0.97693  -0.95435  -0.94582
 Alpha  occ. eigenvalues --   -0.88598  -0.83176  -0.77824  -0.74444  -0.70419
 Alpha  occ. eigenvalues --   -0.69576  -0.66971  -0.65524  -0.64370  -0.62445
 Alpha  occ. eigenvalues --   -0.61708  -0.60242  -0.57351  -0.56753  -0.56373
 Alpha  occ. eigenvalues --   -0.56308  -0.54074  -0.53010  -0.52739  -0.51671
 Alpha  occ. eigenvalues --   -0.50902  -0.49404  -0.49237  -0.48728  -0.47792
 Alpha  occ. eigenvalues --   -0.47366  -0.43766  -0.39571
 Alpha virt. eigenvalues --    0.02655   0.03606   0.04028   0.04641   0.05439
 Alpha virt. eigenvalues --    0.05667   0.05791   0.06693   0.06973   0.07850
 Alpha virt. eigenvalues --    0.08222   0.08431   0.08939   0.09488   0.09989
 Alpha virt. eigenvalues --    0.11233   0.12250   0.12508   0.13595   0.14211
 Alpha virt. eigenvalues --    0.14348   0.14639   0.15020   0.15337   0.15534
 Alpha virt. eigenvalues --    0.16156   0.16644   0.16792   0.17349   0.17585
 Alpha virt. eigenvalues --    0.18228   0.18601   0.18861   0.19279   0.19842
 Alpha virt. eigenvalues --    0.20213   0.20615   0.20843   0.21544   0.22306
 Alpha virt. eigenvalues --    0.22447   0.22781   0.23374   0.23739   0.24021
 Alpha virt. eigenvalues --    0.24767   0.25703   0.26037   0.27235   0.28026
 Alpha virt. eigenvalues --    0.28516   0.29519   0.29812   0.30731   0.30945
 Alpha virt. eigenvalues --    0.31663   0.32500   0.33098   0.33447   0.33628
 Alpha virt. eigenvalues --    0.34262   0.35099   0.35378   0.35512   0.36217
 Alpha virt. eigenvalues --    0.36778   0.36869   0.38280   0.38612   0.39191
 Alpha virt. eigenvalues --    0.39537   0.39875   0.40287   0.40409   0.40797
 Alpha virt. eigenvalues --    0.41481   0.41591   0.42326   0.42495   0.43232
 Alpha virt. eigenvalues --    0.43470   0.44282   0.45093   0.45569   0.45968
 Alpha virt. eigenvalues --    0.46263   0.47004   0.47879   0.48156   0.48433
 Alpha virt. eigenvalues --    0.49015   0.49349   0.50039   0.50612   0.50968
 Alpha virt. eigenvalues --    0.51170   0.51799   0.51920   0.52877   0.53303
 Alpha virt. eigenvalues --    0.53463   0.53652   0.56014   0.56490   0.57077
 Alpha virt. eigenvalues --    0.57283   0.58085   0.58846   0.59363   0.60200
 Alpha virt. eigenvalues --    0.60891   0.61268   0.61641   0.62201   0.62831
 Alpha virt. eigenvalues --    0.63054   0.63467   0.64075   0.64538   0.65371
 Alpha virt. eigenvalues --    0.66328   0.66936   0.67222   0.67463   0.68632
 Alpha virt. eigenvalues --    0.69356   0.69995   0.70745   0.70974   0.71094
 Alpha virt. eigenvalues --    0.71937   0.72150   0.73041   0.73540   0.74532
 Alpha virt. eigenvalues --    0.74969   0.75452   0.75963   0.76217   0.76573
 Alpha virt. eigenvalues --    0.78423   0.78680   0.79933   0.80641   0.80672
 Alpha virt. eigenvalues --    0.81181   0.81780   0.82520   0.82909   0.83944
 Alpha virt. eigenvalues --    0.84444   0.85613   0.86258   0.86359   0.87368
 Alpha virt. eigenvalues --    0.88006   0.88517   0.88921   0.89605   0.90852
 Alpha virt. eigenvalues --    0.91894   0.92377   0.93225   0.93316   0.93631
 Alpha virt. eigenvalues --    0.94416   0.95352   0.95656   0.96610   0.96764
 Alpha virt. eigenvalues --    0.97659   0.98661   0.99153   1.00283   1.01389
 Alpha virt. eigenvalues --    1.01598   1.03051   1.04530   1.05104   1.06781
 Alpha virt. eigenvalues --    1.07125   1.08652   1.10134   1.10883   1.12048
 Alpha virt. eigenvalues --    1.12518   1.14144   1.15959   1.16591   1.18463
 Alpha virt. eigenvalues --    1.19034   1.20124   1.21681   1.22445   1.23353
 Alpha virt. eigenvalues --    1.24669   1.25575   1.27269   1.28080   1.30342
 Alpha virt. eigenvalues --    1.31437   1.32544   1.33247   1.34403   1.35240
 Alpha virt. eigenvalues --    1.35858   1.37439   1.37997   1.38694   1.41205
 Alpha virt. eigenvalues --    1.41429   1.42037   1.43180   1.43896   1.45638
 Alpha virt. eigenvalues --    1.47458   1.48080   1.48571   1.50268   1.52079
 Alpha virt. eigenvalues --    1.52702   1.54622   1.55158   1.56955   1.57119
 Alpha virt. eigenvalues --    1.60035   1.61178   1.61302   1.63403   1.64825
 Alpha virt. eigenvalues --    1.66679   1.67752   1.68345   1.69107   1.71297
 Alpha virt. eigenvalues --    1.73736   1.73808   1.76154   1.77028   1.77325
 Alpha virt. eigenvalues --    1.79583   1.79935   1.80583   1.81350   1.83205
 Alpha virt. eigenvalues --    1.84722   1.85925   1.87430   1.89462   1.91095
 Alpha virt. eigenvalues --    1.91924   1.92179   1.94005   1.95906   1.97939
 Alpha virt. eigenvalues --    1.98663   1.99454   2.00345   2.01227   2.01983
 Alpha virt. eigenvalues --    2.03989   2.05446   2.06638   2.06873   2.08558
 Alpha virt. eigenvalues --    2.09173   2.10362   2.11878   2.12115   2.13401
 Alpha virt. eigenvalues --    2.14610   2.15095   2.15708   2.17551   2.18128
 Alpha virt. eigenvalues --    2.18918   2.19683   2.21680   2.23888   2.24215
 Alpha virt. eigenvalues --    2.24955   2.25504   2.25783   2.28675   2.29304
 Alpha virt. eigenvalues --    2.29699   2.30211   2.32008   2.34323   2.35472
 Alpha virt. eigenvalues --    2.35604   2.36474   2.37497   2.39828   2.40251
 Alpha virt. eigenvalues --    2.40810   2.42403   2.45355   2.46644   2.48418
 Alpha virt. eigenvalues --    2.50694   2.51332   2.52398   2.53747   2.56299
 Alpha virt. eigenvalues --    2.58239   2.59347   2.60705   2.62831   2.64574
 Alpha virt. eigenvalues --    2.66370   2.67618   2.68847   2.69448   2.71215
 Alpha virt. eigenvalues --    2.72373   2.74475   2.74703   2.76293   2.76953
 Alpha virt. eigenvalues --    2.78354   2.80833   2.81127   2.83350   2.83851
 Alpha virt. eigenvalues --    2.86871   2.89465   2.90464   2.92168   2.94485
 Alpha virt. eigenvalues --    2.98351   2.99177   2.99825   3.01635   3.01880
 Alpha virt. eigenvalues --    3.04356   3.05526   3.07340   3.08966   3.12289
 Alpha virt. eigenvalues --    3.13014   3.18490   3.20448   3.22969   3.24800
 Alpha virt. eigenvalues --    3.29301   3.30208   3.34814   3.42372   3.45107
 Alpha virt. eigenvalues --    3.53851   3.61770   3.68718   3.70413   3.73270
 Alpha virt. eigenvalues --    3.76771   3.77464   3.79574   3.82047   3.84130
 Alpha virt. eigenvalues --    3.84576   3.86736   3.90194   3.92440   3.93729
 Alpha virt. eigenvalues --    3.94728   4.03129   4.07918   4.08917   4.11918
 Alpha virt. eigenvalues --    4.20318
  Beta  occ. eigenvalues --  -92.25569 -20.62225 -20.56502 -20.56340 -15.60272
  Beta  occ. eigenvalues --  -11.31305 -11.29666 -11.26225 -11.25562 -11.23594
  Beta  occ. eigenvalues --  -11.22759 -11.22118  -9.21927  -6.90505  -6.90455
  Beta  occ. eigenvalues --   -6.90423  -1.51077  -1.38862  -1.36012  -1.20771
  Beta  occ. eigenvalues --   -1.08498  -1.06822  -0.95470  -0.95290  -0.93982
  Beta  occ. eigenvalues --   -0.86776  -0.82203  -0.77522  -0.72169  -0.69256
  Beta  occ. eigenvalues --   -0.68390  -0.64892  -0.64417  -0.63615  -0.61987
  Beta  occ. eigenvalues --   -0.61246  -0.59354  -0.56577  -0.56265  -0.55704
  Beta  occ. eigenvalues --   -0.55219  -0.52978  -0.52702  -0.51250  -0.50938
  Beta  occ. eigenvalues --   -0.50065  -0.49039  -0.48588  -0.48452  -0.47394
  Beta  occ. eigenvalues --   -0.45827  -0.41022
  Beta virt. eigenvalues --    0.02590   0.03296   0.03617   0.04329   0.04951
  Beta virt. eigenvalues --    0.05470   0.05743   0.05905   0.06714   0.06978
  Beta virt. eigenvalues --    0.07907   0.08228   0.08443   0.08995   0.09504
  Beta virt. eigenvalues --    0.09993   0.11264   0.12270   0.12516   0.13632
  Beta virt. eigenvalues --    0.14331   0.14455   0.14679   0.15082   0.15360
  Beta virt. eigenvalues --    0.15593   0.16187   0.16692   0.16863   0.17389
  Beta virt. eigenvalues --    0.17606   0.18312   0.18624   0.18907   0.19361
  Beta virt. eigenvalues --    0.19967   0.20278   0.20646   0.20865   0.21587
  Beta virt. eigenvalues --    0.22399   0.22558   0.22820   0.23494   0.23842
  Beta virt. eigenvalues --    0.24064   0.25002   0.25807   0.26306   0.27431
  Beta virt. eigenvalues --    0.28418   0.28818   0.29666   0.29966   0.30823
  Beta virt. eigenvalues --    0.31146   0.31855   0.32718   0.33208   0.33460
  Beta virt. eigenvalues --    0.33804   0.34368   0.35133   0.35528   0.35684
  Beta virt. eigenvalues --    0.36741   0.37013   0.37384   0.38435   0.38809
  Beta virt. eigenvalues --    0.39231   0.39768   0.40045   0.40426   0.40520
  Beta virt. eigenvalues --    0.40897   0.41796   0.42097   0.42512   0.42860
  Beta virt. eigenvalues --    0.43587   0.43644   0.44376   0.45570   0.45656
  Beta virt. eigenvalues --    0.46239   0.46407   0.47144   0.48012   0.48330
  Beta virt. eigenvalues --    0.48525   0.49358   0.49508   0.50090   0.50953
  Beta virt. eigenvalues --    0.51230   0.51323   0.51938   0.52164   0.53290
  Beta virt. eigenvalues --    0.53557   0.53895   0.54488   0.56072   0.56829
  Beta virt. eigenvalues --    0.57345   0.57433   0.58196   0.59054   0.59572
  Beta virt. eigenvalues --    0.60689   0.61044   0.61484   0.61884   0.62515
  Beta virt. eigenvalues --    0.63045   0.63595   0.63913   0.64420   0.64915
  Beta virt. eigenvalues --    0.66158   0.66606   0.67136   0.67462   0.67813
  Beta virt. eigenvalues --    0.68959   0.69548   0.70142   0.70879   0.71116
  Beta virt. eigenvalues --    0.71325   0.72076   0.72304   0.73115   0.73735
  Beta virt. eigenvalues --    0.74710   0.75154   0.75797   0.76103   0.76425
  Beta virt. eigenvalues --    0.76866   0.78529   0.78830   0.80409   0.80933
  Beta virt. eigenvalues --    0.80974   0.81372   0.81988   0.82781   0.82946
  Beta virt. eigenvalues --    0.84107   0.84682   0.85836   0.86338   0.86513
  Beta virt. eigenvalues --    0.87502   0.88113   0.88649   0.88975   0.89773
  Beta virt. eigenvalues --    0.91077   0.92044   0.92475   0.93261   0.93489
  Beta virt. eigenvalues --    0.94066   0.94636   0.95512   0.96007   0.96817
  Beta virt. eigenvalues --    0.97236   0.97944   0.98798   0.99309   1.00479
  Beta virt. eigenvalues --    1.01610   1.01766   1.03319   1.04880   1.05324
  Beta virt. eigenvalues --    1.07138   1.07367   1.08906   1.10251   1.10972
  Beta virt. eigenvalues --    1.12332   1.12811   1.14298   1.16278   1.16740
  Beta virt. eigenvalues --    1.18620   1.19135   1.20282   1.22215   1.22600
  Beta virt. eigenvalues --    1.23696   1.24922   1.25794   1.27463   1.28220
  Beta virt. eigenvalues --    1.30722   1.31723   1.32878   1.33393   1.34719
  Beta virt. eigenvalues --    1.35494   1.36384   1.37675   1.38173   1.39176
  Beta virt. eigenvalues --    1.41414   1.41632   1.42273   1.43323   1.44096
  Beta virt. eigenvalues --    1.45874   1.47634   1.48312   1.49010   1.50511
  Beta virt. eigenvalues --    1.52204   1.52829   1.54916   1.55408   1.57195
  Beta virt. eigenvalues --    1.57500   1.60227   1.61446   1.62182   1.63661
  Beta virt. eigenvalues --    1.64962   1.66850   1.68053   1.68556   1.69452
  Beta virt. eigenvalues --    1.71498   1.73989   1.74333   1.76394   1.77182
  Beta virt. eigenvalues --    1.77556   1.79787   1.80204   1.80879   1.81458
  Beta virt. eigenvalues --    1.83454   1.85098   1.86130   1.88033   1.90083
  Beta virt. eigenvalues --    1.91417   1.92263   1.92545   1.94525   1.96097
  Beta virt. eigenvalues --    1.98355   1.98927   2.00255   2.00751   2.01702
  Beta virt. eigenvalues --    2.02195   2.04380   2.05671   2.07031   2.07087
  Beta virt. eigenvalues --    2.08742   2.09422   2.10701   2.12306   2.12450
  Beta virt. eigenvalues --    2.13547   2.14819   2.15357   2.15949   2.17671
  Beta virt. eigenvalues --    2.18363   2.19265   2.20298   2.22030   2.24044
  Beta virt. eigenvalues --    2.24505   2.25391   2.25826   2.26541   2.28914
  Beta virt. eigenvalues --    2.29586   2.29879   2.30452   2.32167   2.34499
  Beta virt. eigenvalues --    2.35638   2.35835   2.36579   2.37872   2.39915
  Beta virt. eigenvalues --    2.40423   2.41024   2.42804   2.45394   2.46888
  Beta virt. eigenvalues --    2.48694   2.50966   2.51490   2.52779   2.53932
  Beta virt. eigenvalues --    2.56536   2.58316   2.59676   2.60843   2.63168
  Beta virt. eigenvalues --    2.64782   2.66550   2.67913   2.68885   2.69653
  Beta virt. eigenvalues --    2.71370   2.73314   2.74618   2.75179   2.76688
  Beta virt. eigenvalues --    2.77278   2.78910   2.81050   2.81431   2.83550
  Beta virt. eigenvalues --    2.84435   2.87359   2.89805   2.90842   2.92620
  Beta virt. eigenvalues --    2.94684   2.98917   2.99854   3.01217   3.01961
  Beta virt. eigenvalues --    3.02359   3.05085   3.05696   3.07673   3.09789
  Beta virt. eigenvalues --    3.12843   3.14270   3.19022   3.20796   3.23371
  Beta virt. eigenvalues --    3.25231   3.29630   3.30638   3.35252   3.42610
  Beta virt. eigenvalues --    3.45805   3.54784   3.62775   3.69019   3.70795
  Beta virt. eigenvalues --    3.73439   3.76905   3.77542   3.79729   3.82143
  Beta virt. eigenvalues --    3.84197   3.84861   3.86810   3.90318   3.92716
  Beta virt. eigenvalues --    3.93801   3.94959   4.03230   4.07946   4.09234
  Beta virt. eigenvalues --    4.11953   4.20489
          Condensed to atoms (all electrons):
          Atomic-Atomic Spin Densities.
 Mulliken charges and spin densities:
               1          2
     1  N   -0.950683   0.823650
     2  S    3.122748  -0.049612
     3  O   -1.192530  -0.005980
     4  C    0.971105   0.009933
     5  C    0.105887  -0.099152
     6  H   -0.308426  -0.000518
     7  H   -0.078956  -0.002162
     8  C    0.438091   0.851822
     9  H   -0.129006   0.002800
    10  H   -0.076736   0.022166
    11  H    0.022154  -0.412784
    12  H   -0.019831  -0.046654
    13  C   -3.346895  -0.126178
    14  C    1.223329   0.050734
    15  C    1.341506   0.013006
    16  C    1.385993   0.011768
    17  H    0.016035   0.000217
    18  H   -0.050103  -0.001774
    19  H   -0.064525  -0.004815
    20  H    0.014265   0.000595
    21  H    0.031809   0.004687
    22  H   -0.033677  -0.000397
    23  H   -0.067079  -0.000635
    24  H   -0.076283  -0.001474
    25  H    0.014923  -0.001231
    26  O   -1.105738   0.021343
    27  O   -1.115998  -0.006642
    28  H   -0.071377  -0.052713
 Sum of Mulliken charges =  -0.00000   1.00000
 Mulliken charges and spin densities with hydrogens summed into heavy atoms:
               1          2
     1  N   -0.950683   0.823650
     2  S    3.122748  -0.049612
     3  O   -1.192530  -0.005980
     4  C    0.583724   0.007253
     5  C   -0.099856  -0.074186
     8  C    0.369037   0.339671
    13  C   -3.346895  -0.126178
    14  C    1.235726   0.055619
    15  C    1.213066   0.009667
    16  C    1.287400   0.005396
    26  O   -1.105738   0.021343
    27  O   -1.115998  -0.006642
 Electronic spatial extent (au):  <R**2>=           2200.0161
 Charge=             -0.0000 electrons
 Dipole moment (field-independent basis, Debye):
    X=             -0.2046    Y=              5.8691    Z=              1.1865  Tot=              5.9913
                          Isotropic Fermi Contact Couplings
        Atom                 a.u.       MegaHertz       Gauss      10(-4) cm-1
     1  N(14)              0.32255     104.21830      37.18768      34.76348
     2  S(33)             -0.06421     -22.05524      -7.86986      -7.35684
     3  O(17)             -0.00547       3.31358       1.18237       1.10529
     4  C(13)              0.00729       8.19085       2.92270       2.73217
     5  C(13)             -0.02634     -29.61540     -10.56751      -9.87863
     6  H(1)              -0.00061      -2.72266      -0.97151      -0.90818
     7  H(1)              -0.00032      -1.45011      -0.51744      -0.48371
     8  C(13)              0.20357     228.84836      81.65879      76.33560
     9  H(1)               0.00198       8.85255       3.15881       2.95289
    10  H(1)               0.01311      58.58243      20.90367      19.54099
    11  H(1)              -0.05739    -256.53217     -91.53706     -85.56992
    12  H(1)              -0.01035     -46.24983     -16.50309     -15.42728
    13  C(13)             -0.02404     -27.03034      -9.64510      -9.01635
    14  C(13)              0.02436      27.38183       9.77052       9.13360
    15  C(13)              0.00040       0.45383       0.16194       0.15138
    16  C(13)              0.00465       5.23168       1.86679       1.74510
    17  H(1)              -0.00033      -1.47349      -0.52578      -0.49150
    18  H(1)              -0.00082      -3.67139      -1.31004      -1.22464
    19  H(1)              -0.00022      -0.96584      -0.34464      -0.32217
    20  H(1)              -0.00080      -3.57803      -1.27673      -1.19350
    21  H(1)               0.00227      10.13510       3.61645       3.38070
    22  H(1)              -0.00047      -2.10221      -0.75012      -0.70122
    23  H(1)              -0.00021      -0.92246      -0.32916      -0.30770
    24  H(1)              -0.00012      -0.53162      -0.18970      -0.17733
    25  H(1)              -0.00067      -3.01222      -1.07483      -1.00477
    26  O(17)              0.01382      -8.38048      -2.99036      -2.79543
    27  O(17)             -0.00284       1.71975       0.61365       0.57365
    28  H(1)              -0.00914     -40.83403     -14.57060     -13.62077
 --------------------------------------------------------
       Center         ----  Spin Dipole Couplings  ----
                      3XX-RR        3YY-RR        3ZZ-RR
 --------------------------------------------------------
     1   Atom        0.038923      0.615487     -0.654410
     2   Atom        0.001122     -0.052134      0.051012
     3   Atom       -0.008871      0.016869     -0.007998
     4   Atom        0.000150      0.002186     -0.002336
     5   Atom        0.004087     -0.001928     -0.002159
     6   Atom        0.000505     -0.001633      0.001128
     7   Atom        0.003663     -0.000070     -0.003594
     8   Atom        0.253354      0.068395     -0.321749
     9   Atom       -0.005239     -0.003960      0.009199
    10   Atom        0.001783     -0.004269      0.002485
    11   Atom        0.065483      0.071653     -0.137136
    12   Atom       -0.001191     -0.013121      0.014312
    13   Atom        0.014635     -0.012941     -0.001694
    14   Atom        0.022924     -0.002532     -0.020392
    15   Atom       -0.001938     -0.005118      0.007056
    16   Atom        0.001606      0.008474     -0.010080
    17   Atom        0.003952     -0.000666     -0.003286
    18   Atom        0.003407     -0.000448     -0.002958
    19   Atom        0.002958      0.003283     -0.006240
    20   Atom        0.002066      0.002622     -0.004688
    21   Atom        0.004657     -0.002109     -0.002547
    22   Atom        0.006494     -0.004935     -0.001559
    23   Atom       -0.002954     -0.003019      0.005973
    24   Atom       -0.003352     -0.002748      0.006099
    25   Atom        0.000162     -0.001935      0.001773
    26   Atom       -0.028303      0.020248      0.008055
    27   Atom       -0.007626     -0.002010      0.009636
    28   Atom        0.001074      0.041455     -0.042529
 --------------------------------------------------------
                        XY            XZ            YZ
 --------------------------------------------------------
     1   Atom       -0.975765     -0.015557      0.004210
     2   Atom       -0.040216     -0.005299      0.005487
     3   Atom        0.005920      0.008642     -0.011805
     4   Atom        0.007380     -0.007381     -0.005940
     5   Atom       -0.003725     -0.008110      0.004673
     6   Atom        0.000858     -0.003306     -0.001700
     7   Atom        0.004213     -0.002288     -0.001623
     8   Atom       -0.482132      0.080145     -0.063655
     9   Atom       -0.003559     -0.004471      0.003456
    10   Atom       -0.002013     -0.006034      0.000406
    11   Atom       -0.209028      0.025562     -0.029813
    12   Atom       -0.002417      0.039199      0.026699
    13   Atom       -0.007210      0.012742     -0.004725
    14   Atom       -0.028745      0.000018     -0.000420
    15   Atom        0.000535      0.005901      0.002238
    16   Atom        0.010920      0.000777     -0.003693
    17   Atom        0.004962     -0.003876     -0.002860
    18   Atom        0.003073      0.001740      0.000704
    19   Atom        0.005477      0.001954      0.002202
    20   Atom       -0.005204      0.003218     -0.003898
    21   Atom        0.000161      0.003133      0.000911
    22   Atom       -0.004149     -0.004463      0.002248
    23   Atom       -0.000934      0.002722     -0.001613
    24   Atom       -0.000268      0.003170      0.003299
    25   Atom        0.000453      0.003241      0.001204
    26   Atom        0.069515     -0.064059     -0.087085
    27   Atom       -0.015943     -0.001508      0.004104
    28   Atom        0.020184     -0.004157     -0.017143
 --------------------------------------------------------


 ---------------------------------------------------------------------------------
              Anisotropic Spin Dipole Couplings in Principal Axis System
 ---------------------------------------------------------------------------------

       Atom             a.u.   MegaHertz   Gauss  10(-4) cm-1        Axes

              Baa    -0.6928   -26.721    -9.535    -8.913  0.7763  0.5782  0.2510
     1 N(14)  Bbb    -0.6519   -25.143    -8.972    -8.387 -0.1974 -0.1552  0.9680
              Bcc     1.3447    51.864    18.506    17.300 -0.5986  0.8010  0.0063
 
              Baa    -0.0738    -3.025    -1.079    -1.009  0.4719  0.8814 -0.0187
     2 S(33)  Bbb     0.0210     0.860     0.307     0.287  0.8590 -0.4549  0.2347
              Bcc     0.0528     2.165     0.773     0.722 -0.1983  0.1268  0.9719
 
              Baa    -0.0212     1.537     0.548     0.513 -0.6404  0.3163  0.6999
     3 O(17)  Bbb    -0.0005     0.038     0.014     0.013  0.7636  0.1639  0.6246
              Bcc     0.0218    -1.575    -0.562    -0.525  0.0828  0.9344 -0.3465
 
              Baa    -0.0086    -1.153    -0.411    -0.384  0.6679 -0.0480  0.7427
     4 C(13)  Bbb    -0.0054    -0.725    -0.259    -0.242 -0.4409  0.7785  0.4467
              Bcc     0.0140     1.878     0.670     0.626  0.5996  0.6258 -0.4988
 
              Baa    -0.0084    -1.125    -0.401    -0.375  0.4352 -0.3496  0.8297
     5 C(13)  Bbb    -0.0036    -0.489    -0.174    -0.163  0.5098  0.8552  0.0930
              Bcc     0.0120     1.613     0.576     0.538  0.7421 -0.3825 -0.5504
 
              Baa    -0.0029    -1.523    -0.544    -0.508  0.5033  0.5610  0.6572
     6 H(1)   Bbb    -0.0018    -0.971    -0.346    -0.324 -0.5902  0.7787 -0.2127
              Bcc     0.0047     2.494     0.890     0.832 -0.6312 -0.2808  0.7230
 
              Baa    -0.0043    -2.312    -0.825    -0.771  0.1723  0.1970  0.9651
     7 H(1)   Bbb    -0.0028    -1.496    -0.534    -0.499 -0.5614  0.8247 -0.0681
              Bcc     0.0071     3.808     1.359     1.270  0.8094  0.5301 -0.2527
 
              Baa    -0.3335   -44.755   -15.970   -14.929 -0.3846 -0.3245  0.8642
     8 C(13)  Bbb    -0.3289   -44.138   -15.749   -14.723  0.5138  0.7024  0.4925
              Bcc     0.6624    88.892    31.719    29.651  0.7668 -0.6335  0.1034
 
              Baa    -0.0083    -4.442    -1.585    -1.482  0.8056  0.5855  0.0901
     9 H(1)   Bbb    -0.0034    -1.789    -0.638    -0.597 -0.5116  0.7643 -0.3926
              Bcc     0.0117     6.231     2.223     2.078 -0.2987  0.2702  0.9153
 
              Baa    -0.0054    -2.887    -1.030    -0.963  0.5147  0.7813  0.3531
    10 H(1)   Bbb    -0.0030    -1.596    -0.569    -0.532 -0.5096  0.6100 -0.6068
              Bcc     0.0084     4.483     1.600     1.495 -0.6894  0.1324  0.7121
 
              Baa    -0.1434   -76.486   -27.292   -25.513  0.4412  0.5294  0.7246
    11 H(1)   Bbb    -0.1379   -73.595   -26.260   -24.549 -0.5636 -0.4649  0.6828
              Bcc     0.2813   150.081    53.553    50.062 -0.6984  0.7096 -0.0932
 
              Baa    -0.0457   -24.408    -8.709    -8.142 -0.5702 -0.5452  0.6145
    12 H(1)   Bbb    -0.0067    -3.578    -1.277    -1.193 -0.6058  0.7843  0.1336
              Bcc     0.0525    27.986     9.986     9.335  0.5548  0.2961  0.7775
 
              Baa    -0.0150    -2.017    -0.720    -0.673  0.1492  0.9683  0.2005
    13 C(13)  Bbb    -0.0086    -1.153    -0.411    -0.385 -0.5023 -0.1004  0.8588
              Bcc     0.0236     3.170     1.131     1.057  0.8517 -0.2289  0.4714
 
              Baa    -0.0214    -2.867    -1.023    -0.956  0.5132  0.7909  0.3332
    14 C(13)  Bbb    -0.0203    -2.720    -0.971    -0.907 -0.1849 -0.2772  0.9429
              Bcc     0.0416     5.587     1.994     1.864  0.8381 -0.5455  0.0039
 
              Baa    -0.0057    -0.770    -0.275    -0.257  0.3947  0.8567 -0.3319
    15 C(13)  Bbb    -0.0046    -0.613    -0.219    -0.204  0.8094 -0.4952 -0.3156
              Bcc     0.0103     1.383     0.493     0.461  0.4348  0.1441  0.8889
 
              Baa    -0.0118    -1.580    -0.564    -0.527 -0.3263  0.3370  0.8831
    16 C(13)  Bbb    -0.0049    -0.664    -0.237    -0.222  0.7467 -0.4810  0.4594
              Bcc     0.0167     2.245     0.801     0.749  0.5796  0.8094 -0.0947
 
              Baa    -0.0052    -2.792    -0.996    -0.931  0.1844  0.3700  0.9106
    17 H(1)   Bbb    -0.0038    -2.009    -0.717    -0.670 -0.5978  0.7776 -0.1949
              Bcc     0.0090     4.800     1.713     1.601  0.7801  0.5084 -0.3645
 
              Baa    -0.0034    -1.818    -0.649    -0.606 -0.2680  0.0495  0.9621
    18 H(1)   Bbb    -0.0021    -1.126    -0.402    -0.375 -0.4389  0.8828 -0.1677
              Bcc     0.0055     2.943     1.050     0.982  0.8576  0.4672  0.2149
 
              Baa    -0.0068    -3.631    -1.296    -1.211 -0.1096 -0.1548  0.9818
    19 H(1)   Bbb    -0.0024    -1.257    -0.449    -0.419  0.7225 -0.6908 -0.0282
              Bcc     0.0092     4.888     1.744     1.630  0.6826  0.7063  0.1876
 
              Baa    -0.0065    -3.482    -1.243    -1.162 -0.1666  0.3047  0.9377
    20 H(1)   Bbb    -0.0028    -1.515    -0.541    -0.505  0.7496  0.6570 -0.0803
              Bcc     0.0094     4.997     1.783     1.667 -0.6405  0.6896 -0.3379
 
              Baa    -0.0041    -2.161    -0.771    -0.721 -0.3064 -0.3836  0.8712
    21 H(1)   Bbb    -0.0018    -0.964    -0.344    -0.321 -0.1876  0.9216  0.3398
              Bcc     0.0059     3.125     1.115     1.042  0.9332  0.0593  0.3543
 
              Baa    -0.0065    -3.448    -1.230    -1.150  0.2238  0.9470 -0.2305
    22 H(1)   Bbb    -0.0035    -1.869    -0.667    -0.623  0.4434  0.1117  0.8893
              Bcc     0.0100     5.317     1.897     1.773  0.8679 -0.3013 -0.3949
 
              Baa    -0.0040    -2.147    -0.766    -0.716  0.8251  0.5484 -0.1362
    23 H(1)   Bbb    -0.0030    -1.621    -0.578    -0.541 -0.4945  0.8174  0.2957
              Bcc     0.0071     3.768     1.344     1.257  0.2734 -0.1766  0.9455
 
              Baa    -0.0052    -2.774    -0.990    -0.925  0.7238  0.5807 -0.3727
    24 H(1)   Bbb    -0.0028    -1.473    -0.526    -0.491 -0.6420  0.7647 -0.0551
              Bcc     0.0080     4.247     1.515     1.417  0.2530  0.2791  0.9263
 
              Baa    -0.0027    -1.420    -0.507    -0.474  0.5609  0.5982 -0.5723
    25 H(1)   Bbb    -0.0019    -1.002    -0.358    -0.334 -0.5737  0.7792  0.2522
              Bcc     0.0045     2.423     0.865     0.808  0.5969  0.1869  0.7803
 
              Baa    -0.0781     5.653     2.017     1.886  0.8806 -0.4060  0.2443
    26 O(17)  Bbb    -0.0731     5.289     1.887     1.764  0.0864  0.6444  0.7598
              Bcc     0.1512   -10.942    -3.905    -3.650  0.4659  0.6479 -0.6026
 
              Baa    -0.0211     1.525     0.544     0.509  0.7610  0.6468 -0.0491
    27 O(17)  Bbb     0.0063    -0.459    -0.164    -0.153  0.4391 -0.4580  0.7729
              Bcc     0.0147    -1.066    -0.380    -0.356 -0.4775  0.6098  0.6326
 
              Baa    -0.0459   -24.487    -8.738    -8.168  0.0046  0.1916  0.9815
    28 H(1)   Bbb    -0.0071    -3.790    -1.352    -1.264  0.9295 -0.3629  0.0665
              Bcc     0.0530    28.277    10.090     9.432  0.3689  0.9119 -0.1797
 

 ---------------------------------------------------------------------------------

 Unable to Open any file for archive entry.
 1\1\GINC-SE129\Stability\UHF\Aug-CC-pVDZ\C7H16N1O3S1\OHZDE\09-Apr-2025
 \0\\#t hf aug-cc-pvdz symm=none int=(grid=ultrafine) guess=(read,tchec
 k) stable=opt\\title\\0,2\N,0,0.56739,0.009357,-0.73766\S,0,-0.479765,
 -1.163387,-0.22652\O,0,-1.309237,-0.507705,1.011069\C,0,-2.427565,0.35
 4059,0.718037\C,0,-1.987132,1.761949,0.345566\H,0,-2.999688,0.36112,1.
 643842\H,0,-3.027116,-0.102199,-0.071218\C,0,-1.244142,1.851003,-0.961
 906\H,0,-1.388072,2.178426,1.159207\H,0,-2.894998,2.37559,0.283698\H,0
 ,-0.248847,1.027614,-0.940594\H,0,-1.78635,1.466346,-1.825049\C,0,1.75
 595,0.406256,0.063306\C,0,2.841057,-0.64743,-0.199557\C,0,1.505955,0.5
 53117,1.565073\C,0,2.208932,1.743603,-0.524783\H,0,2.327497,1.667954,-
 1.606643\H,0,3.167863,2.027792,-0.089217\H,0,1.492671,2.537383,-0.3053
 21\H,0,2.553265,-1.616002,0.204074\H,0,3.771158,-0.327921,0.2758\H,0,3
 .01303,-0.752618,-1.271462\H,0,1.197654,-0.389222,2.016031\H,0,0.73733
 6,1.299394,1.769507\H,0,2.429498,0.877106,2.048965\O,0,0.2585,-2.24738
 8,0.365249\O,0,-1.4225,-1.373492,-1.298523\H,0,-0.772825,2.811264,-1.1
 6044\\Version=ES64L-G16RevC.01\HF=-950.8462432\S2=0.79156\S2-1=0.\S2A=
 0.750712\RMSD=7.746e-09\Dipole=-0.0805005,2.3090688,0.4668036\Quadrupo
 le=6.4669547,-3.9155885,-2.5513663,-3.037499,-1.9561274,-0.8978768\PG=
 Unknown\\@
 The archive entry for this job was punched.


 The mind is not a vessel to be filled but a fire to be kindled.
                                  -- Plutarch
 Job cpu time:       0 days  2 hours 19 minutes 37.5 seconds.
 Elapsed time:       0 days  0 hours  9 minutes  8.7 seconds.
 File lengths (MBytes):  RWF=    788 Int=      0 D2E=      0 Chk=     28 Scr=      1
 Normal termination of Gaussian 16 at Wed Apr  9 01:05:36 2025.
 Initial command:
 /arc/software/Gaussian/g16.c01/l1.exe "/tmp/slurm/4855857/Gau-1133535.inp" -scrdir="/tmp/slurm/4855857/"
 Entering Link 1 = /arc/software/Gaussian/g16.c01/l1.exe PID=   1135102.
  
 Copyright (c) 1988-2019, Gaussian, Inc.  All Rights Reserved.
  
 This is part of the Gaussian(R) 16 program.  It is based on
 the Gaussian(R) 09 system (copyright 2009, Gaussian, Inc.),
 the Gaussian(R) 03 system (copyright 2003, Gaussian, Inc.),
 the Gaussian(R) 98 system (copyright 1998, Gaussian, Inc.),
 the Gaussian(R) 94 system (copyright 1995, Gaussian, Inc.),
 the Gaussian 92(TM) system (copyright 1992, Gaussian, Inc.),
 the Gaussian 90(TM) system (copyright 1990, Gaussian, Inc.),
 the Gaussian 88(TM) system (copyright 1988, Gaussian, Inc.),
 the Gaussian 86(TM) system (copyright 1986, Carnegie Mellon
 University), and the Gaussian 82(TM) system (copyright 1983,
 Carnegie Mellon University). Gaussian is a federally registered
 trademark of Gaussian, Inc.
  
 This software contains proprietary and confidential information,
 including trade secrets, belonging to Gaussian, Inc.
  
 This software is provided under written license and may be
 used, copied, transmitted, or stored only in accord with that
 written license.
  
 The following legend is applicable only to US Government
 contracts under FAR:
  
                    RESTRICTED RIGHTS LEGEND
  
 Use, reproduction and disclosure by the US Government is
 subject to restrictions as set forth in subparagraphs (a)
 and (c) of the Commercial Computer Software - Restricted
 Rights clause in FAR 52.227-19.
  
 Gaussian, Inc.
 340 Quinnipiac St., Bldg. 40, Wallingford CT 06492
  
  
 ---------------------------------------------------------------
 Warning -- This program may not be used in any manner that
 competes with the business of Gaussian, Inc. or will provide
 assistance to any competitor of Gaussian, Inc.  The licensee
 of this program is prohibited from giving any competitor of
 Gaussian, Inc. access to this program.  By using this program,
 the user acknowledges that Gaussian, Inc. is engaged in the
 business of creating and licensing software in the field of
 computational chemistry and represents and warrants to the
 licensee that it is not a competitor of Gaussian, Inc. and that
 it will not use this program in any manner prohibited above.
 ---------------------------------------------------------------
  

 Cite this work as:
 Gaussian 16, Revision C.01,
 M. J. Frisch, G. W. Trucks, H. B. Schlegel, G. E. Scuseria, 
 M. A. Robb, J. R. Cheeseman, G. Scalmani, V. Barone, 
 G. A. Petersson, H. Nakatsuji, X. Li, M. Caricato, A. V. Marenich, 
 J. Bloino, B. G. Janesko, R. Gomperts, B. Mennucci, H. P. Hratchian, 
 J. V. Ortiz, A. F. Izmaylov, J. L. Sonnenberg, D. Williams-Young, 
 F. Ding, F. Lipparini, F. Egidi, J. Goings, B. Peng, A. Petrone, 
 T. Henderson, D. Ranasinghe, V. G. Zakrzewski, J. Gao, N. Rega, 
 G. Zheng, W. Liang, M. Hada, M. Ehara, K. Toyota, R. Fukuda, 
 J. Hasegawa, M. Ishida, T. Nakajima, Y. Honda, O. Kitao, H. Nakai, 
 T. Vreven, K. Throssell, J. A. Montgomery, Jr., J. E. Peralta, 
 F. Ogliaro, M. J. Bearpark, J. J. Heyd, E. N. Brothers, K. N. Kudin, 
 V. N. Staroverov, T. A. Keith, R. Kobayashi, J. Normand, 
 K. Raghavachari, A. P. Rendell, J. C. Burant, S. S. Iyengar, 
 J. Tomasi, M. Cossi, J. M. Millam, M. Klene, C. Adamo, R. Cammi, 
 J. W. Ochterski, R. L. Martin, K. Morokuma, O. Farkas, 
 J. B. Foresman, and D. J. Fox, Gaussian, Inc., Wallingford CT, 2019.
 
 ******************************************
 Gaussian 16:  ES64L-G16RevC.01  3-Jul-2019
                 9-Apr-2025 
 ******************************************
 %nprocs=16
 Will use up to   16 processors via shared memory.
 %mem=30GB
 %chk=BH10_181_forward_mol1.chk
 ----------------------------------------------------------------------
 #t hf aug-cc-pvdz iop(5/13=1,5/36=2,99/5=2) pseudo=read geom=check gue
 ss=(read,tcheck) scf=(maxcycle=1)
 ----------------------------------------------------------------------
 -----
 title
 -----
 Structure from the checkpoint file:  "BH10_181_forward_mol1.chk"
 Charge =  0 Multiplicity = 2
 Z-Matrix found in chk file.
 N,0,0.56739,0.009357,-0.73766
 S,0,-0.479765,-1.163387,-0.22652
 O,0,-1.309237,-0.507705,1.011069
 C,0,-2.427565,0.354059,0.718037
 C,0,-1.987132,1.761949,0.345566
 H,0,-2.999688,0.36112,1.643842
 H,0,-3.027116,-0.102199,-0.071218
 C,0,-1.244142,1.851003,-0.961906
 H,0,-1.388072,2.178426,1.159207
 H,0,-2.894998,2.37559,0.283698
 H,0,-0.248847,1.027614,-0.940594
 H,0,-1.78635,1.466346,-1.825049
 C,0,1.75595,0.406256,0.063306
 C,0,2.841057,-0.64743,-0.199557
 C,0,1.505955,0.553117,1.565073
 C,0,2.208932,1.743603,-0.524783
 H,0,2.327497,1.667954,-1.606643
 H,0,3.167863,2.027792,-0.089217
 H,0,1.492671,2.537383,-0.305321
 H,0,2.553265,-1.616002,0.204074
 H,0,3.771158,-0.327921,0.2758
 H,0,3.01303,-0.752618,-1.271462
 H,0,1.197654,-0.389222,2.016031
 H,0,0.737336,1.299394,1.769507
 H,0,2.429498,0.877106,2.048965
 O,0,0.2585,-2.247388,0.365249
 O,0,-1.4225,-1.373492,-1.298523
 H,0,-0.772825,2.811264,-1.16044
 Recover connectivity data from disk.
                    Distance matrix (angstroms):
                    1          2          3          4          5
     1  N    0.000000
     2  S    1.653217   0.000000
     3  O    2.616703   1.627750   0.000000
     4  C    3.347780   2.643625   1.441930   0.000000
     5  C    3.281850   3.340214   2.460440   1.521470   0.000000
     6  H    4.303410   3.488895   2.003218   1.088343   2.161738
     7  H    3.657467   2.763917   2.070480   1.091126   2.174931
     8  C    2.592989   3.195561   3.075772   2.542349   1.506469
     9  H    3.482355   3.730010   2.691368   2.145575   1.092858
    10  H    4.316290   4.314862   3.370029   2.119842   1.097544
    11  H    1.320709   2.315969   2.700115   2.819848   2.283657
[...]
  Beta virt. eigenvalues --    1.45134   1.47146   1.47566   1.48356   1.50149
  Beta virt. eigenvalues --    1.51262   1.52169   1.54287   1.54737   1.56623
  Beta virt. eigenvalues --    1.56833   1.59706   1.60558   1.61607   1.62678
  Beta virt. eigenvalues --    1.64178   1.66330   1.67370   1.67741   1.68758
  Beta virt. eigenvalues --    1.70932   1.73104   1.73270   1.75170   1.76092
  Beta virt. eigenvalues --    1.76493   1.78465   1.78991   1.80027   1.80594
  Beta virt. eigenvalues --    1.82286   1.83971   1.85298   1.87109   1.89224
  Beta virt. eigenvalues --    1.90387   1.91509   1.91763   1.93621   1.95286
  Beta virt. eigenvalues --    1.97486   1.97832   1.99430   2.00149   2.00670
  Beta virt. eigenvalues --    2.01460   2.03537   2.04738   2.06376   2.06495
  Beta virt. eigenvalues --    2.07833   2.08396   2.09605   2.11100   2.11635
  Beta virt. eigenvalues --    2.12725   2.13663   2.14557   2.15215   2.16454
  Beta virt. eigenvalues --    2.17306   2.18054   2.19231   2.21233   2.23009
  Beta virt. eigenvalues --    2.23946   2.24449   2.25148   2.25759   2.27815
  Beta virt. eigenvalues --    2.28981   2.29127   2.29487   2.31269   2.33375
  Beta virt. eigenvalues --    2.34823   2.35229   2.35717   2.36754   2.39202
  Beta virt. eigenvalues --    2.39790   2.40227   2.41938   2.44473   2.46095
  Beta virt. eigenvalues --    2.47523   2.49988   2.50500   2.51930   2.52978
  Beta virt. eigenvalues --    2.55680   2.57678   2.58668   2.60004   2.61984
  Beta virt. eigenvalues --    2.63529   2.65637   2.67061   2.68006   2.68591
  Beta virt. eigenvalues --    2.70067   2.72776   2.73562   2.74505   2.75435
  Beta virt. eigenvalues --    2.76196   2.78733   2.79866   2.80917   2.82866
  Beta virt. eigenvalues --    2.84039   2.87313   2.88934   2.90169   2.93240
  Beta virt. eigenvalues --    2.93670   2.98423   2.99674   3.01131   3.01877
  Beta virt. eigenvalues --    3.03441   3.04302   3.08706   3.10266   3.11161
  Beta virt. eigenvalues --    3.14079   3.16931   3.19875   3.20934   3.22540
  Beta virt. eigenvalues --    3.25058   3.29674   3.31627   3.35759   3.41696
  Beta virt. eigenvalues --    3.45876   3.56303   3.59659   3.59781   3.61783
  Beta virt. eigenvalues --    3.63374   3.64687   3.66404   3.68663   3.70195
  Beta virt. eigenvalues --    3.70881   3.72408   3.72961   3.78286   3.79906
  Beta virt. eigenvalues --    3.82701   3.86330   3.90300   3.93049   4.00459
  Beta virt. eigenvalues --    4.01364   4.11332
          Condensed to atoms (all electrons):
          Atomic-Atomic Spin Densities.
 Mulliken charges and spin densities:
               1          2
     1  N   -0.941552   0.834888
     2  S    2.864507  -0.049940
     3  O   -0.954256  -0.006578
     4  C    0.875612   0.008894
     5  C    0.078261  -0.095446
     6  H   -0.278893  -0.000519
     7  H   -0.080960  -0.002225
     8  C    0.446783   0.835444
     9  H   -0.133324   0.002425
    10  H   -0.051780   0.021927
    11  H   -0.131564  -0.401602
    12  H    0.029529  -0.046004
    13  C   -3.308004  -0.131673
    14  C    1.179552   0.047838
    15  C    1.173387   0.012782
    16  C    1.367001   0.012799
    17  H    0.038590   0.000142
    18  H   -0.027402  -0.001751
    19  H   -0.070869  -0.004591
    20  H    0.012941   0.001063
    21  H    0.040802   0.004746
    22  H   -0.020713  -0.000352
    23  H   -0.033933  -0.000644
    24  H   -0.074999  -0.001968
    25  H    0.051287  -0.001185
    26  O   -0.996779   0.020517
    27  O   -1.009536  -0.006511
    28  H   -0.043687  -0.052475
 Sum of Mulliken charges =  -0.00000   1.00000
 Mulliken charges and spin densities with hydrogens summed into heavy atoms:
               1          2
     1  N   -0.941552   0.834888
     2  S    2.864507  -0.049940
     3  O   -0.954256  -0.006578
     4  C    0.515759   0.006150
     5  C   -0.106843  -0.071094
     8  C    0.301061   0.335363
    13  C   -3.308004  -0.131673
    14  C    1.212581   0.053295
    15  C    1.115741   0.008985
    16  C    1.307320   0.006599
    26  O   -0.996779   0.020517
    27  O   -1.009536  -0.006511
 Electronic spatial extent (au):  <R**2>=           2198.8348
 Charge=             -0.0000 electrons
 Dipole moment (field-independent basis, Debye):
    X=             -0.1572    Y=              6.0898    Z=              1.1154  Tot=              6.1931
                          Isotropic Fermi Contact Couplings
        Atom                 a.u.       MegaHertz       Gauss      10(-4) cm-1
     1  N(14)              0.33165     107.15736      38.23641      35.74385
     2  S(33)             -0.06514     -22.37466      -7.98384      -7.46338
     3  O(17)             -0.00558       3.38146       1.20659       1.12794
     4  C(13)              0.00741       8.32895       2.97198       2.77824
     5  C(13)             -0.02710     -30.46225     -10.86969     -10.16111
     6  H(1)              -0.00060      -2.67807      -0.95560      -0.89331
     7  H(1)              -0.00032      -1.42695      -0.50917      -0.47598
     8  C(13)              0.20906     235.02471      83.86266      78.39581
     9  H(1)               0.00194       8.69216       3.10158       2.89939
    10  H(1)               0.01292      57.76395      20.61161      19.26798
    11  H(1)              -0.05698    -254.71425     -90.88838     -84.96353
    12  H(1)              -0.01027     -45.91163     -16.38241     -15.31447
    13  C(13)             -0.02474     -27.81233      -9.92413      -9.27720
    14  C(13)              0.02486      27.94861       9.97276       9.32265
    15  C(13)              0.00041       0.45551       0.16254       0.15194
    16  C(13)              0.00475       5.34228       1.90626       1.78199
    17  H(1)              -0.00033      -1.46492      -0.52272      -0.48865
    18  H(1)              -0.00082      -3.66155      -1.30653      -1.22136
    19  H(1)              -0.00022      -0.99043      -0.35341      -0.33037
    20  H(1)              -0.00079      -3.51385      -1.25383      -1.17210
    21  H(1)               0.00220       9.83829       3.51055       3.28170
    22  H(1)              -0.00047      -2.11077      -0.75317      -0.70408
    23  H(1)              -0.00020      -0.91544      -0.32665      -0.30536
    24  H(1)              -0.00012      -0.55541      -0.19819      -0.18527
    25  H(1)              -0.00067      -2.98742      -1.06599      -0.99650
    26  O(17)              0.01445      -8.75795      -3.12505      -2.92134
    27  O(17)             -0.00302       1.82817       0.65234       0.60981
    28  H(1)              -0.00905     -40.44193     -14.43069     -13.48998
 --------------------------------------------------------
       Center         ----  Spin Dipole Couplings  ----
                      3XX-RR        3YY-RR        3ZZ-RR
 --------------------------------------------------------
     1   Atom        0.037931      0.602372     -0.640303
     2   Atom        0.004632     -0.066197      0.061564
     3   Atom       -0.009145      0.017326     -0.008181
     4   Atom        0.000220      0.002129     -0.002349
     5   Atom        0.004193     -0.001892     -0.002301
     6   Atom        0.000510     -0.001640      0.001131
     7   Atom        0.003673     -0.000081     -0.003592
     8   Atom        0.255416      0.069538     -0.324955
     9   Atom       -0.005258     -0.003968      0.009226
    10   Atom        0.001805     -0.004271      0.002466
    11   Atom        0.065575      0.071971     -0.137546
    12   Atom       -0.001128     -0.013287      0.014416
    13   Atom        0.013830     -0.012545     -0.001285
    14   Atom        0.022975     -0.002708     -0.020268
    15   Atom       -0.001922     -0.005120      0.007042
    16   Atom        0.001632      0.008471     -0.010103
    17   Atom        0.003985     -0.000688     -0.003297
    18   Atom        0.003414     -0.000464     -0.002950
    19   Atom        0.002969      0.003275     -0.006244
    20   Atom        0.002056      0.002619     -0.004675
    21   Atom        0.004645     -0.002119     -0.002525
    22   Atom        0.006494     -0.004934     -0.001560
    23   Atom       -0.002948     -0.003019      0.005967
    24   Atom       -0.003356     -0.002758      0.006114
    25   Atom        0.000173     -0.001931      0.001758
    26   Atom       -0.029676      0.021174      0.008502
    27   Atom       -0.007975     -0.001805      0.009780
    28   Atom        0.000909      0.041776     -0.042685
 --------------------------------------------------------
                        XY            XZ            YZ
 --------------------------------------------------------
     1   Atom       -0.955879     -0.014822      0.003130
     2   Atom       -0.051409     -0.006012      0.009519
     3   Atom        0.006076      0.009149     -0.012032
     4   Atom        0.007444     -0.007403     -0.005906
     5   Atom       -0.003662     -0.008070      0.004670
     6   Atom        0.000862     -0.003310     -0.001701
     7   Atom        0.004221     -0.002295     -0.001628
     8   Atom       -0.487121      0.081312     -0.064641
     9   Atom       -0.003567     -0.004500      0.003463
    10   Atom       -0.002045     -0.006055      0.000401
    11   Atom       -0.209644      0.025710     -0.029973
    12   Atom       -0.002338      0.039483      0.026737
    13   Atom       -0.007215      0.012093     -0.004885
    14   Atom       -0.028503     -0.000077     -0.000410
    15   Atom        0.000539      0.005928      0.002210
    16   Atom        0.010963      0.000778     -0.003678
    17   Atom        0.004965     -0.003881     -0.002849
    18   Atom        0.003064      0.001740      0.000707
    19   Atom        0.005507      0.001964      0.002207
    20   Atom       -0.005223      0.003231     -0.003894
    21   Atom        0.000158      0.003121      0.000904
    22   Atom       -0.004128     -0.004454      0.002226
    23   Atom       -0.000943      0.002738     -0.001611
    24   Atom       -0.000257      0.003193      0.003296
    25   Atom        0.000452      0.003242      0.001194
    26   Atom        0.069440     -0.063849     -0.088379
    27   Atom       -0.016277     -0.001661      0.003921
    28   Atom        0.020317     -0.004171     -0.017238
 --------------------------------------------------------


 ---------------------------------------------------------------------------------
              Anisotropic Spin Dipole Couplings in Principal Axis System
 ---------------------------------------------------------------------------------

       Atom             a.u.   MegaHertz   Gauss  10(-4) cm-1        Axes

              Baa    -0.6791   -26.191    -9.346    -8.737  0.7764  0.5785  0.2499
     1 N(14)  Bbb    -0.6378   -24.598    -8.777    -8.205 -0.1968 -0.1542  0.9682
              Bcc     1.3169    50.789    18.123    16.942 -0.5987  0.8010  0.0058
 
              Baa    -0.0934    -3.830    -1.367    -1.278  0.4623  0.8860 -0.0365
     2 S(33)  Bbb     0.0288     1.179     0.421     0.393  0.8551 -0.4345  0.2829
              Bcc     0.0646     2.650     0.946     0.884 -0.2348  0.1620  0.9585
 
              Baa    -0.0220     1.593     0.568     0.531 -0.6440  0.3130  0.6981
     3 O(17)  Bbb    -0.0003     0.020     0.007     0.007  0.7608  0.1662  0.6273
              Bcc     0.0223    -1.613    -0.575    -0.538  0.0803  0.9351 -0.3452
 
              Baa    -0.0086    -1.153    -0.411    -0.385  0.6702 -0.0577  0.7399
     4 C(13)  Bbb    -0.0054    -0.730    -0.260    -0.243 -0.4329  0.7794  0.4529
              Bcc     0.0140     1.883     0.672     0.628  0.6028  0.6238 -0.4974
 
              Baa    -0.0084    -1.133    -0.404    -0.378  0.4288 -0.3530  0.8316
     5 C(13)  Bbb    -0.0035    -0.474    -0.169    -0.158  0.5097  0.8545  0.1000
              Bcc     0.0120     1.607     0.573     0.536  0.7459 -0.3810 -0.5463
 
              Baa    -0.0029    -1.524    -0.544    -0.508  0.5016  0.5631  0.6567
     6 H(1)   Bbb    -0.0018    -0.974    -0.348    -0.325 -0.5913  0.7773 -0.2149
              Bcc     0.0047     2.498     0.891     0.833 -0.6314 -0.2806  0.7229
 
              Baa    -0.0043    -2.313    -0.825    -0.772  0.1716  0.1990  0.9649
     7 H(1)   Bbb    -0.0028    -1.503    -0.536    -0.501 -0.5613  0.8246 -0.0702
              Bcc     0.0072     3.816     1.362     1.273  0.8096  0.5295 -0.2532
 
              Baa    -0.3370   -45.216   -16.134   -15.082 -0.3855 -0.3246  0.8637
     8 C(13)  Bbb    -0.3323   -44.589   -15.910   -14.873  0.5137  0.7021  0.4931
              Bcc     0.6692    89.805    32.045    29.956  0.7665 -0.6338  0.1039
 
              Baa    -0.0084    -4.456    -1.590    -1.486  0.8065  0.5841  0.0914
     9 H(1)   Bbb    -0.0034    -1.797    -0.641    -0.599 -0.5099  0.7654 -0.3927
              Bcc     0.0117     6.253     2.231     2.086 -0.2993  0.2701  0.9151
 
              Baa    -0.0054    -2.906    -1.037    -0.969  0.5169  0.7784  0.3562
    10 H(1)   Bbb    -0.0030    -1.591    -0.568    -0.531 -0.5055  0.6134 -0.6069
              Bcc     0.0084     4.497     1.605     1.500 -0.6909  0.1337  0.7105
 
              Baa    -0.1438   -76.713   -27.373   -25.589  0.4398  0.5282  0.7263
    11 H(1)   Bbb    -0.1384   -73.823   -26.342   -24.625 -0.5649 -0.4660  0.6809
              Bcc     0.2821   150.536    53.715    50.213 -0.6982  0.7098 -0.0935
 
              Baa    -0.0459   -24.496    -8.741    -8.171 -0.5704 -0.5447  0.6147
    12 H(1)   Bbb    -0.0069    -3.680    -1.313    -1.227 -0.6044  0.7852  0.1348
              Bcc     0.0528    28.176    10.054     9.398  0.5561  0.2947  0.7771
 
              Baa    -0.0148    -1.982    -0.707    -0.661  0.1540  0.9652  0.2116
    13 C(13)  Bbb    -0.0079    -1.061    -0.379    -0.354 -0.5100 -0.1057  0.8536
              Bcc     0.0227     3.042     1.086     1.015  0.8462 -0.2394  0.4760
 
              Baa    -0.0213    -2.855    -1.019    -0.952  0.5061  0.7848  0.3576
    14 C(13)  Bbb    -0.0201    -2.700    -0.963    -0.901 -0.1961 -0.2991  0.9339
              Bcc     0.0414     5.555     1.982     1.853  0.8399 -0.5428  0.0026
 
              Baa    -0.0057    -0.769    -0.274    -0.256  0.3959  0.8562 -0.3320
    15 C(13)  Bbb    -0.0046    -0.615    -0.219    -0.205  0.8078 -0.4967 -0.3175
              Bcc     0.0103     1.384     0.494     0.462  0.4367  0.1425  0.8882
 
              Baa    -0.0118    -1.583    -0.565    -0.528 -0.3263  0.3368  0.8832
    16 C(13)  Bbb    -0.0050    -0.668    -0.238    -0.223  0.7458 -0.4823  0.4594
              Bcc     0.0168     2.251     0.803     0.751  0.5808  0.8086 -0.0938
 
              Baa    -0.0052    -2.795    -0.997    -0.932  0.1847  0.3689  0.9109
    17 H(1)   Bbb    -0.0038    -2.013    -0.718    -0.672 -0.5959  0.7791 -0.1946
              Bcc     0.0090     4.808     1.716     1.604  0.7815  0.5069 -0.3638
 
              Baa    -0.0034    -1.813    -0.647    -0.605 -0.2670  0.0468  0.9626
    18 H(1)   Bbb    -0.0021    -1.128    -0.403    -0.376 -0.4380  0.8838 -0.1645
              Bcc     0.0055     2.941     1.050     0.981  0.8584  0.4655  0.2154
 
              Baa    -0.0068    -3.634    -1.297    -1.212 -0.1101 -0.1547  0.9818
    19 H(1)   Bbb    -0.0024    -1.272    -0.454    -0.424  0.7218 -0.6915 -0.0281
              Bcc     0.0092     4.906     1.751     1.636  0.6833  0.7056  0.1878
 
              Baa    -0.0065    -3.476    -1.240    -1.160 -0.1687  0.3034  0.9378
    20 H(1)   Bbb    -0.0029    -1.529    -0.546    -0.510  0.7492  0.6578 -0.0780
              Bcc     0.0094     5.006     1.786     1.670 -0.6406  0.6894 -0.3382
 
              Baa    -0.0040    -2.148    -0.766    -0.717 -0.3061 -0.3871  0.8697
    21 H(1)   Bbb    -0.0018    -0.968    -0.345    -0.323 -0.1884  0.9201  0.3433
              Bcc     0.0058     3.116     1.112     1.039  0.9332  0.0587  0.3545
 
              Baa    -0.0064    -3.438    -1.227    -1.147  0.2240  0.9476 -0.2276
    22 H(1)   Bbb    -0.0035    -1.867    -0.666    -0.623  0.4420  0.1093  0.8903
              Bcc     0.0099     5.305     1.893     1.770  0.8686 -0.3000 -0.3944
 
              Baa    -0.0040    -2.152    -0.768    -0.718  0.8245  0.5490 -0.1373
    23 H(1)   Bbb    -0.0030    -1.618    -0.577    -0.540 -0.4946  0.8169  0.2967
              Bcc     0.0071     3.770     1.345     1.257  0.2751 -0.1767  0.9450
 
              Baa    -0.0052    -2.777    -0.991    -0.926  0.7249  0.5790 -0.3731
    24 H(1)   Bbb    -0.0028    -1.482    -0.529    -0.494 -0.6401  0.7664 -0.0543
              Bcc     0.0080     4.259     1.520     1.420  0.2545  0.2782  0.9262
 
              Baa    -0.0027    -1.417    -0.506    -0.473  0.5628  0.5948 -0.5741
    25 H(1)   Bbb    -0.0019    -1.001    -0.357    -0.334 -0.5701  0.7821  0.2515
              Bcc     0.0045     2.419     0.863     0.807  0.5986  0.1858  0.7792
 
              Baa    -0.0786     5.689     2.030     1.898  0.8830 -0.4066  0.2346
    26 O(17)  Bbb    -0.0737     5.334     1.903     1.779  0.0930  0.6413  0.7616
              Bcc     0.1523   -11.023    -3.933    -3.677  0.4601  0.6507 -0.6041
 
              Baa    -0.0215     1.556     0.555     0.519  0.7664  0.6411 -0.0397
    27 O(17)  Bbb     0.0066    -0.476    -0.170    -0.159  0.4243 -0.4589  0.7807
              Bcc     0.0149    -1.081    -0.386    -0.360 -0.4823  0.6151  0.6237
 
              Baa    -0.0461   -24.580    -8.771    -8.199  0.0043  0.1916  0.9815
    28 H(1)   Bbb    -0.0073    -3.890    -1.388    -1.298  0.9299 -0.3617  0.0666
              Bcc     0.0534    28.470    10.159     9.497  0.3677  0.9124 -0.1797
 

 ---------------------------------------------------------------------------------


 Test job not archived.
 1\1\GINC-SE129\SP\UHF\Aug-CC-pVDZ\C7H16N1O3S1(2)\OHZDE\09-Apr-2025\0\\
 #t hf aug-cc-pvdz iop(5/13=1,5/36=2,99/5=2) pseudo=read geom=check gue
 ss=(read,tcheck) scf=(maxcycle=1)\\title\\0,2\N,0,0.56739,0.009357,-0.
 73766\S,0,-0.479765,-1.163387,-0.22652\O,0,-1.309237,-0.507705,1.01106
 9\C,0,-2.427565,0.354059,0.718037\C,0,-1.987132,1.761949,0.345566\H,0,
 -2.999688,0.36112,1.643842\H,0,-3.027116,-0.102199,-0.071218\C,0,-1.24
 4142,1.851003,-0.961906\H,0,-1.388072,2.178426,1.159207\H,0,-2.894998,
 2.37559,0.283698\H,0,-0.248847,1.027614,-0.940594\H,0,-1.78635,1.46634
 6,-1.825049\C,0,1.75595,0.406256,0.063306\C,0,2.841057,-0.64743,-0.199
 557\C,0,1.505955,0.553117,1.565073\C,0,2.208932,1.743603,-0.524783\H,0
 ,2.327497,1.667954,-1.606643\H,0,3.167863,2.027792,-0.089217\H,0,1.492
 671,2.537383,-0.305321\H,0,2.553265,-1.616002,0.204074\H,0,3.771158,-0
 .327921,0.2758\H,0,3.01303,-0.752618,-1.271462\H,0,1.197654,-0.389222,
 2.016031\H,0,0.737336,1.299394,1.769507\H,0,2.429498,0.877106,2.048965
 \O,0,0.2585,-2.247388,0.365249\O,0,-1.4225,-1.373492,-1.298523\H,0,-0.
 772825,2.811264,-1.16044\\Version=ES64L-G16RevC.01\State=2-A\HF=-951.1
 02947\S2=0.791428\S2-1=0.\S2A=0.750712\RMSD=5.537e-03\Dipole=-0.061850
 8,2.3959275,0.4388424\Quadrupole=6.6079178,-4.0734971,-2.5344207,-3.11
 94834,-2.0872974,-0.876994\PG=C01 [X(C7H16N1O3S1)]\\@


 TERENCE, THIS IS STUPID STUFF:
 YOU EAT YOUR VICTUALS FAST ENOUGH;
 THERE CAN'T BE MUCH AMISS, 'TIS CLEAR
 TO SEE THE RATE YOU DRINK YOUR BEER.
 BUT OH, GOOD LORD, THE VERSE YOU MAKE,
 IT GIVES A CHAP THE BELLY-ACHE.
 THE COW, THE OLD COW, SHE IS DEAD;
 IT SLEEPS WELL, THE HORNED HEAD:
 WE POOR LADS, 'TIS OUR TURN NOW
 TO HEAR SUCH TUNES AS KILLED THE COW.
 PRETTY FRIENDSHIP 'TIS TO RHYME
 YOUR FRIENDS TO DEATH BEFORE THEIR TIME.
 MOPING, MELANCHOLY MAD:
 COME PIPE A TUNE TO DANCE TO, LAD.

     -- A. E. HOUSMAN
 Job cpu time:       0 days  0 hours  7 minutes 33.8 seconds.
 Elapsed time:       0 days  0 hours  0 minutes 31.9 seconds.
 File lengths (MBytes):  RWF=     33 Int=      0 D2E=      0 Chk=     28 Scr=      1
 Normal termination of Gaussian 16 at Wed Apr  9 01:06:08 2025.
