 Entering Gaussian System, Link 0=g16
 Input=CR20_13_mol1.gjf
 Output=CR20_13_mol1.log
 Initial command:
 /arc/software/Gaussian/g16.c01/l1.exe "/tmp/slurm/4856736/Gau-1533432.inp" -scrdir="/tmp/slurm/4856736/"
 Entering Link 1 = /arc/software/Gaussian/g16.c01/l1.exe PID=   1533433.
  
 Copyright (c) 1988-2019, Gaussian, Inc.  All Rights Reserved.
  
 This is part of the Gaussian(R) 16 program.  It is based on
 the Gaussian(R) 09 system (copyright 2009, Gaussian, Inc.),
 the Gaussian(R) 03 system (copyright 2003, Gaussian, Inc.),
 the Gaussian(R) 98 system (copyright 1998, Gaussian, Inc.),
 the Gaussian(R) 94 system (copyright 1995, Gaussian, Inc.),
 the Gaussian 92(TM) system (copyright 1992, Gaussian, Inc.),
 the Gaussian 90(TM) system (copyright 1990, Gaussian, Inc.),
 the Gaussian 88(TM) system (copyright 1988, Gaussian, Inc.),
 the Gaussian 86(TM) system (copyright 1986, Carnegie Mellon
 University), and the Gaussian 82(TM) system (copyright 1983,
 Carnegie Mellon University). Gaussian is a federally registered
 trademark of Gaussian, Inc.
  
 This software contains proprietary and confidential information,
 including trade secrets, belonging to Gaussian, Inc.
  
 This software is provided under written license and may be
 used, copied, transmitted, or stored only in accord with that
 written license.
  
 The following legend is applicable only to US Government
 contracts under FAR:
  
                    RESTRICTED RIGHTS LEGEND
  
 Use, reproduction and disclosure by the US Government is
 subject to restrictions as set forth in subparagraphs (a)
 and (c) of the Commercial Computer Software - Restricted
 Rights clause in FAR 52.227-19.
  
 Gaussian, Inc.
 340 Quinnipiac St., Bldg. 40, Wallingford CT 06492
  
  
 ---------------------------------------------------------------
 Warning -- This program may not be used in any manner that
 competes with the business of Gaussian, Inc. or will provide
 assistance to any competitor of Gaussian, Inc.  The licensee
 of this program is prohibited from giving any competitor of
 Gaussian, Inc. access to this program.  By using this program,
 the user acknowledges that Gaussian, Inc. is engaged in the
 business of creating and licensing software in the field of
 computational chemistry and represents and warrants to the
 licensee that it is not a competitor of Gaussian, Inc. and that
 it will not use this program in any manner prohibited above.
 ---------------------------------------------------------------
  

 Cite this work as:
 Gaussian 16, Revision C.01,
 M. J. Frisch, G. W. Trucks, H. B. Schlegel, G. E. Scuseria, 
 M. A. Robb, J. R. Cheeseman, G. Scalmani, V. Barone, 
 G. A. Petersson, H. Nakatsuji, X. Li, M. Caricato, A. V. Marenich, 
 J. Bloino, B. G. Janesko, R. Gomperts, B. Mennucci, H. P. Hratchian, 
 J. V. Ortiz, A. F. Izmaylov, J. L. Sonnenberg, D. Williams-Young, 
 F. Ding, F. Lipparini, F. Egidi, J. Goings, B. Peng, A. Petrone, 
 T. Henderson, D. Ranasinghe, V. G. Zakrzewski, J. Gao, N. Rega, 
 G. Zheng, W. Liang, M. Hada, M. Ehara, K. Toyota, R. Fukuda, 
 J. Hasegawa, M. Ishida, T. Nakajima, Y. Honda, O. Kitao, H. Nakai, 
 T. Vreven, K. Throssell, J. A. Montgomery, Jr., J. E. Peralta, 
 F. Ogliaro, M. J. Bearpark, J. J. Heyd, E. N. Brothers, K. N. Kudin, 
 V. N. Staroverov, T. A. Keith, R. Kobayashi, J. Normand, 
 K. Raghavachari, A. P. Rendell, J. C. Burant, S. S. Iyengar, 
 J. Tomasi, M. Cossi, J. M. Millam, M. Klene, C. Adamo, R. Cammi, 
 J. W. Ochterski, R. L. Martin, K. Morokuma, O. Farkas, 
 J. B. Foresman, and D. J. Fox, Gaussian, Inc., Wallingford CT, 2019.
 
 ******************************************
 Gaussian 16:  ES64L-G16RevC.01  3-Jul-2019
                 9-Apr-2025 
 ******************************************
 %nprocs=16
 Will use up to   16 processors via shared memory.
 %mem=30GB
 %chk=CR20_13_mol1.chk
 ----------------------------------------------------------------------
 #t hf aug-cc-pvdz symm=none int=(grid=ultrafine) guess=(read,tcheck) s
 table=(opt,rrhf)
 ----------------------------------------------------------------------
 -----
 title
 -----
 Symbolic Z-matrix:
 Charge =  0 Multiplicity = 1
 C                    -0.11433  -0.77731   0. 
 S                    -0.36711  -2.34074   0. 
 N                     0.        0.40117   0. 
 C                     0.79981   1.5916    0. 
 H                     1.44595   1.57022   0.88105 
 H                     1.44595   1.57022  -0.88105 
 C                    -0.05573   2.85145   0. 
 H                     0.58713   3.73174   0. 
 H                    -0.69189   2.8885   -0.8835 
 H                    -0.69189   2.8885    0.8835 
 
                    Distance matrix (angstroms):
                    1          2          3          4          5
     1  C    0.000000
     2  S    1.583725   0.000000
     3  N    1.184019   2.766375   0.000000
     4  C    2.539178   4.101828   1.434162   0.000000
     5  H    2.953247   4.399891   2.057597   1.092796   0.000000
     6  H    2.953247   4.399891   2.057597   1.092796   1.762098
     7  C    3.629234   5.201512   2.450909   1.522879   2.161674
     8  H    4.563287   6.146992   3.381920   2.150676   2.487160
     9  H    3.814751   5.313281   2.728751   2.165108   3.069507
    10  H    3.814751   5.313281   2.728751   2.165108   2.511619
                    6          7          8          9         10
     6  H    0.000000
     7  C    2.161674   0.000000
     8  H    2.487160   1.090037   0.000000
     9  H    2.511619   1.089336   1.768482   0.000000
    10  H    3.069507   1.089336   1.768482   1.767008   0.000000
 Symmetry turned off by external request.
 Rotational constants (GHZ):          33.8800061           1.4208200           1.3871234
   164 basis functions,   308 primitive gaussians,   174 cartesian basis functions
    23 alpha electrons       23 beta electrons
       nuclear repulsion energy       188.8749957324 Hartrees.
 NAtoms=   10 NActive=   10 NUniq=   10 SFac= 1.00D+00 NAtFMM=   60 NAOKFM=F Big=F
 ExpMin= 2.97D-02 ExpMax= 1.11D+05 ExpMxC= 1.07D+03 IAcc=3 IRadAn=         5 AccDes= 0.00D+00
 Harris functional with IExCor=  205 and IRadAn=       5 diagonalized for initial guess.
 HarFok:  IExCor=  205 AccDes= 0.00D+00 IRadAn=         5 IDoV= 1 UseB2=F ITyADJ=14
 ICtDFT=  3500011 ScaDFX=  1.000000  1.000000  1.000000  1.000000
 FoFCou: FMM=F IPFlag=           0 FMFlag=      100000 FMFlg1=           0
         NFxFlg=           0 DoJE=T BraDBF=F KetDBF=T FulRan=T
         wScrn=  0.000000 ICntrl=       500 IOpCl=  0 I1Cent=   200000004 NGrid=           0
         NMat0=    1 NMatS0=      1 NMatT0=    0 NMatD0=    1 NMtDS0=    0 NMtDT0=    0
 Symmetry not used in FoFCou.
 SCF Done:  E(RHF) =  -568.507456044     A.U. after   14 cycles
            NFock= 14  Conv=0.96D-08     -V/T= 2.0004

 **********************************************************************

            Population analysis using the SCF Density.

 **********************************************************************

 Alpha  occ. eigenvalues --  -91.94380 -15.61542 -11.37800 -11.31520 -11.24781
 Alpha  occ. eigenvalues --   -8.94731  -6.63007  -6.62615  -6.62593  -1.29797
 Alpha  occ. eigenvalues --   -1.08594  -1.01655  -0.90717  -0.73831  -0.67240
 Alpha  occ. eigenvalues --   -0.61157  -0.59008  -0.56364  -0.55836  -0.51585
 Alpha  occ. eigenvalues --   -0.50823  -0.35759  -0.35099
 Alpha virt. eigenvalues --    0.02816   0.04447   0.04576   0.05290   0.07185
 Alpha virt. eigenvalues --    0.07736   0.10057   0.10796   0.11229   0.12056
 Alpha virt. eigenvalues --    0.12400   0.12995   0.14543   0.15237   0.16051
 Alpha virt. eigenvalues --    0.16710   0.17596   0.18277   0.19608   0.20054
 Alpha virt. eigenvalues --    0.20437   0.21874   0.26091   0.26302   0.27785
 Alpha virt. eigenvalues --    0.28930   0.30262   0.31127   0.33379   0.33962
 Alpha virt. eigenvalues --    0.34303   0.34620   0.36292   0.38089   0.38363
 Alpha virt. eigenvalues --    0.40975   0.41170   0.42371   0.43259   0.45356
 Alpha virt. eigenvalues --    0.46905   0.47515   0.51786   0.51890   0.52840
 Alpha virt. eigenvalues --    0.54023   0.54685   0.54704   0.55415   0.57126
 Alpha virt. eigenvalues --    0.58115   0.59514   0.61197   0.61717   0.64162
 Alpha virt. eigenvalues --    0.65966   0.67880   0.68293   0.68511   0.71658
 Alpha virt. eigenvalues --    0.71996   0.73551   0.74991   0.75496   0.78601
 Alpha virt. eigenvalues --    0.79760   0.80235   0.81010   0.84630   0.88542
 Alpha virt. eigenvalues --    0.89013   0.90004   0.92332   0.93383   0.93911
 Alpha virt. eigenvalues --    0.97700   0.99384   1.06560   1.07236   1.07570
 Alpha virt. eigenvalues --    1.10314   1.12620   1.14982   1.16913   1.17294
 Alpha virt. eigenvalues --    1.19454   1.22544   1.23183   1.26050   1.27142
 Alpha virt. eigenvalues --    1.38543   1.38933   1.44880   1.46690   1.49694
 Alpha virt. eigenvalues --    1.55403   1.62715   1.67288   1.71383   1.71397
 Alpha virt. eigenvalues --    1.76283   1.78107   1.79542   1.79682   1.88086
 Alpha virt. eigenvalues --    1.88343   1.91801   1.92515   2.00712   2.03261
 Alpha virt. eigenvalues --    2.05975   2.07592   2.08738   2.10077   2.16544
 Alpha virt. eigenvalues --    2.16874   2.23251   2.25097   2.28151   2.31291
 Alpha virt. eigenvalues --    2.35796   2.39535   2.47845   2.51987   2.53828
 Alpha virt. eigenvalues --    2.59359   2.62378   2.64813   2.69958   2.71243
 Alpha virt. eigenvalues --    2.78928   2.83965   2.90034   2.94949   3.01664
 Alpha virt. eigenvalues --    3.06599   3.09043   3.20446   3.22329   3.67195
 Alpha virt. eigenvalues --    3.75616
          Condensed to atoms (all electrons):
 Mulliken charges:
               1
     1  C   -0.432226
     2  S    0.107772
     3  N   -0.344243
     4  C    0.666065
     5  H   -0.145100
     6  H   -0.145100
     7  C    0.410268
     8  H   -0.034256
     9  H   -0.041591
    10  H   -0.041591
 Sum of Mulliken charges =  -0.00000
 Mulliken charges with hydrogens summed into heavy atoms:
               1
     1  C   -0.432226
     2  S    0.107772
     3  N   -0.344243
     4  C    0.375866
     7  C    0.292831
 Electronic spatial extent (au):  <R**2>=            823.1053
 Charge=             -0.0000 electrons
 Dipole moment (field-independent basis, Debye):
    X=              1.4429    Y=              3.8806    Z=              0.0000  Tot=              4.1402
 NROrb=    164 NOA=    23 NOB=    23 NVA=   141 NVB=   141

 **** Warning!!: The largest alpha MO coefficient is  0.30569361D+02

    12 initial guesses have been made.
 Iteration     1 Dimension    12 NMult     0 NNew     12
 Iteration     2 Dimension    24 NMult    12 NNew     12
 Iteration     3 Dimension    27 NMult    24 NNew      3
 Iteration     4 Dimension    30 NMult    27 NNew      3
 Iteration     5 Dimension    33 NMult    30 NNew      3
 Iteration     6 Dimension    36 NMult    33 NNew      3
 ***********************************************************************
 Stability analysis using <AA,BB:AA,BB> singles matrix:
 ***********************************************************************
 Ground to excited state transition densities written to RWF  633

 Eigenvectors of the stability matrix:
 
 Excited state symmetry could not be determined.
 Eigenvector   1:      Singlet-?Sym  Eigenvalue= 0.1677306  <S**2>=0.000
      22 -> 34         0.20456
      22 -> 35         0.21201
      22 -> 41        -0.23120
      23 -> 24         0.12526
      23 -> 30         0.21285
      23 -> 32         0.34701
      23 -> 33         0.19421
      23 -> 40        -0.19327
      23 -> 44        -0.17662
 The wavefunction is stable under the perturbations considered.
 The wavefunction is already stable.

 **********************************************************************

            Population analysis using the SCF Density.

 **********************************************************************

 Alpha  occ. eigenvalues --  -91.94380 -15.61542 -11.37800 -11.31520 -11.24781
 Alpha  occ. eigenvalues --   -8.94731  -6.63007  -6.62615  -6.62593  -1.29797
 Alpha  occ. eigenvalues --   -1.08594  -1.01655  -0.90717  -0.73831  -0.67240
 Alpha  occ. eigenvalues --   -0.61157  -0.59008  -0.56364  -0.55836  -0.51585
 Alpha  occ. eigenvalues --   -0.50823  -0.35759  -0.35099
 Alpha virt. eigenvalues --    0.02816   0.04447   0.04576   0.05290   0.07185
 Alpha virt. eigenvalues --    0.07736   0.10057   0.10796   0.11229   0.12056
 Alpha virt. eigenvalues --    0.12400   0.12995   0.14543   0.15237   0.16051
 Alpha virt. eigenvalues --    0.16710   0.17596   0.18277   0.19608   0.20054
 Alpha virt. eigenvalues --    0.20437   0.21874   0.26091   0.26302   0.27785
 Alpha virt. eigenvalues --    0.28930   0.30262   0.31127   0.33379   0.33962
 Alpha virt. eigenvalues --    0.34303   0.34620   0.36292   0.38089   0.38363
 Alpha virt. eigenvalues --    0.40975   0.41170   0.42371   0.43259   0.45356
 Alpha virt. eigenvalues --    0.46905   0.47515   0.51786   0.51890   0.52840
 Alpha virt. eigenvalues --    0.54023   0.54685   0.54704   0.55415   0.57126
 Alpha virt. eigenvalues --    0.58115   0.59514   0.61197   0.61717   0.64162
 Alpha virt. eigenvalues --    0.65966   0.67880   0.68293   0.68511   0.71658
 Alpha virt. eigenvalues --    0.71996   0.73551   0.74991   0.75496   0.78601
 Alpha virt. eigenvalues --    0.79760   0.80235   0.81010   0.84630   0.88542
 Alpha virt. eigenvalues --    0.89013   0.90004   0.92332   0.93383   0.93911
 Alpha virt. eigenvalues --    0.97700   0.99384   1.06560   1.07236   1.07570
 Alpha virt. eigenvalues --    1.10314   1.12620   1.14982   1.16913   1.17294
 Alpha virt. eigenvalues --    1.19454   1.22544   1.23183   1.26050   1.27142
 Alpha virt. eigenvalues --    1.38543   1.38933   1.44880   1.46690   1.49694
 Alpha virt. eigenvalues --    1.55403   1.62715   1.67288   1.71383   1.71397
 Alpha virt. eigenvalues --    1.76283   1.78107   1.79542   1.79682   1.88086
 Alpha virt. eigenvalues --    1.88343   1.91801   1.92515   2.00712   2.03261
 Alpha virt. eigenvalues --    2.05975   2.07592   2.08738   2.10077   2.16544
 Alpha virt. eigenvalues --    2.16874   2.23251   2.25097   2.28151   2.31291
 Alpha virt. eigenvalues --    2.35796   2.39535   2.47845   2.51987   2.53828
 Alpha virt. eigenvalues --    2.59359   2.62378   2.64813   2.69958   2.71243
 Alpha virt. eigenvalues --    2.78928   2.83965   2.90034   2.94949   3.01664
 Alpha virt. eigenvalues --    3.06599   3.09043   3.20446   3.22329   3.67195
 Alpha virt. eigenvalues --    3.75616
          Condensed to atoms (all electrons):
 Mulliken charges:
               1
     1  C   -0.432226
     2  S    0.107772
     3  N   -0.344243
     4  C    0.666065
     5  H   -0.145100
     6  H   -0.145100
     7  C    0.410268
     8  H   -0.034256
     9  H   -0.041591
    10  H   -0.041591
 Sum of Mulliken charges =  -0.00000
 Mulliken charges with hydrogens summed into heavy atoms:
               1
     1  C   -0.432226
     2  S    0.107772
     3  N   -0.344243
     4  C    0.375866
     7  C    0.292831
 Electronic spatial extent (au):  <R**2>=            823.1053
 Charge=             -0.0000 electrons
 Dipole moment (field-independent basis, Debye):
    X=              1.4429    Y=              3.8806    Z=              0.0000  Tot=              4.1402
 Unable to Open any file for archive entry.
 1\1\GINC-SE364\Stability\RHF\Aug-CC-pVDZ\C3H5N1S1\OHZDE\09-Apr-2025\0\
 \#t hf aug-cc-pvdz symm=none int=(grid=ultrafine) guess=(read,tcheck) 
 stable=(opt,rrhf)\\title\\0,1\C,0,-0.114333,-0.777314,0.\S,0,-0.367107
 ,-2.340737,0.\N,0,0.,0.401172,0.\C,0,0.79981,1.591603,0.\H,0,1.445951,
 1.570224,0.881049\H,0,1.445951,1.570224,-0.881049\C,0,-0.055733,2.8514
 47,0.\H,0,0.587128,3.731737,0.\H,0,-0.691894,2.888497,-0.883504\H,0,-0
 .691894,2.888497,0.883504\\Version=ES64L-G16RevC.01\HF=-568.507456\RMS
 D=9.586e-09\Dipole=0.5676678,1.5267652,0.\Quadrupole=0.2489207,-0.0880
 874,-0.1608333,0.8053172,0.,0.\PG=Unknown\\@
 The archive entry for this job was punched.


  THE LARGE PRINT GIVETH,
  AND THE SMALL PRINT TAKETH AWAY.

                     -- TOM WAITS
 Job cpu time:       0 days  0 hours  0 minutes 57.0 seconds.
 Elapsed time:       0 days  0 hours  0 minutes  6.9 seconds.
 File lengths (MBytes):  RWF=    156 Int=      0 D2E=      0 Chk=      5 Scr=      1
 Normal termination of Gaussian 16 at Wed Apr  9 02:14:04 2025.
 Initial command:
 /arc/software/Gaussian/g16.c01/l1.exe "/tmp/slurm/4856736/Gau-1533432.inp" -scrdir="/tmp/slurm/4856736/"
 Entering Link 1 = /arc/software/Gaussian/g16.c01/l1.exe PID=   1533652.
  
 Copyright (c) 1988-2019, Gaussian, Inc.  All Rights Reserved.
  
 This is part of the Gaussian(R) 16 program.  It is based on
 the Gaussian(R) 09 system (copyright 2009, Gaussian, Inc.),
 the Gaussian(R) 03 system (copyright 2003, Gaussian, Inc.),
 the Gaussian(R) 98 system (copyright 1998, Gaussian, Inc.),
 the Gaussian(R) 94 system (copyright 1995, Gaussian, Inc.),
 the Gaussian 92(TM) system (copyright 1992, Gaussian, Inc.),
 the Gaussian 90(TM) system (copyright 1990, Gaussian, Inc.),
 the Gaussian 88(TM) system (copyright 1988, Gaussian, Inc.),
 the Gaussian 86(TM) system (copyright 1986, Carnegie Mellon
 University), and the Gaussian 82(TM) system (copyright 1983,
 Carnegie Mellon University). Gaussian is a federally registered
 trademark of Gaussian, Inc.
  
 This software contains proprietary and confidential information,
 including trade secrets, belonging to Gaussian, Inc.
  
 This software is provided under written license and may be
 used, copied, transmitted, or stored only in accord with that
 written license.
  
 The following legend is applicable only to US Government
 contracts under FAR:
  
                    RESTRICTED RIGHTS LEGEND
  
 Use, reproduction and disclosure by the US Government is
 subject to restrictions as set forth in subparagraphs (a)
 and (c) of the Commercial Computer Software - Restricted
 Rights clause in FAR 52.227-19.
  
 Gaussian, Inc.
 340 Quinnipiac St., Bldg. 40, Wallingford CT 06492
  
  
 ---------------------------------------------------------------
 Warning -- This program may not be used in any manner that
 competes with the business of Gaussian, Inc. or will provide
 assistance to any competitor of Gaussian, Inc.  The licensee
 of this program is prohibited from giving any competitor of
 Gaussian, Inc. access to this program.  By using this program,
 the user acknowledges that Gaussian, Inc. is engaged in the
 business of creating and licensing software in the field of
 computational chemistry and represents and warrants to the
 licensee that it is not a competitor of Gaussian, Inc. and that
 it will not use this program in any manner prohibited above.
 ---------------------------------------------------------------
  

 Cite this work as:
 Gaussian 16, Revision C.01,
 M. J. Frisch, G. W. Trucks, H. B. Schlegel, G. E. Scuseria, 
 M. A. Robb, J. R. Cheeseman, G. Scalmani, V. Barone, 
 G. A. Petersson, H. Nakatsuji, X. Li, M. Caricato, A. V. Marenich, 
 J. Bloino, B. G. Janesko, R. Gomperts, B. Mennucci, H. P. Hratchian, 
 J. V. Ortiz, A. F. Izmaylov, J. L. Sonnenberg, D. Williams-Young, 
 F. Ding, F. Lipparini, F. Egidi, J. Goings, B. Peng, A. Petrone, 
 T. Henderson, D. Ranasinghe, V. G. Zakrzewski, J. Gao, N. Rega, 
 G. Zheng, W. Liang, M. Hada, M. Ehara, K. Toyota, R. Fukuda, 
 J. Hasegawa, M. Ishida, T. Nakajima, Y. Honda, O. Kitao, H. Nakai, 
 T. Vreven, K. Throssell, J. A. Montgomery, Jr., J. E. Peralta, 
 F. Ogliaro, M. J. Bearpark, J. J. Heyd, E. N. Brothers, K. N. Kudin, 
 V. N. Staroverov, T. A. Keith, R. Kobayashi, J. Normand, 
 K. Raghavachari, A. P. Rendell, J. C. Burant, S. S. Iyengar, 
 J. Tomasi, M. Cossi, J. M. Millam, M. Klene, C. Adamo, R. Cammi, 
 J. W. Ochterski, R. L. Martin, K. Morokuma, O. Farkas, 
 J. B. Foresman, and D. J. Fox, Gaussian, Inc., Wallingford CT, 2019.
 
 ******************************************
 Gaussian 16:  ES64L-G16RevC.01  3-Jul-2019
                 9-Apr-2025 
 ******************************************
 %nprocs=16
 Will use up to   16 processors via shared memory.
 %mem=30GB
 %chk=CR20_13_mol1.chk
 ----------------------------------------------------------------------
 #t hf aug-cc-pvdz iop(5/13=1,5/36=2,99/5=2) pseudo=read geom=check gue
 ss=(read,tcheck) scf=(maxcycle=1)
 ----------------------------------------------------------------------
 -----
 title
 -----
 Structure from the checkpoint file:  "CR20_13_mol1.chk"
 Charge =  0 Multiplicity = 1
 Z-Matrix found in chk file.
 C,0,-0.114333,-0.777314,0.
 S,0,-0.367107,-2.340737,0.
 N,0,0.,0.401172,0.
 C,0,0.79981,1.591603,0.
 H,0,1.445951,1.570224,0.881049
 H,0,1.445951,1.570224,-0.881049
 C,0,-0.055733,2.851447,0.
 H,0,0.587128,3.731737,0.
 H,0,-0.691894,2.888497,-0.883504
 H,0,-0.691894,2.888497,0.883504
 Recover connectivity data from disk.
                    Distance matrix (angstroms):
                    1          2          3          4          5
     1  C    0.000000
     2  S    1.583725   0.000000
     3  N    1.184019   2.766375   0.000000
     4  C    2.539178   4.101828   1.434162   0.000000
     5  H    2.953247   4.399891   2.057597   1.092796   0.000000
     6  H    2.953247   4.399891   2.057597   1.092796   1.762098
     7  C    3.629234   5.201512   2.450909   1.522879   2.161674
     8  H    4.563287   6.146992   3.381920   2.150676   2.487160
     9  H    3.814751   5.313281   2.728751   2.165108   3.069507
    10  H    3.814751   5.313281   2.728751   2.165108   2.511619
                    6          7          8          9         10
     6  H    0.000000
     7  C    2.161674   0.000000
     8  H    2.487160   1.090037   0.000000
     9  H    2.511619   1.089336   1.768482   0.000000
    10  H    3.069507   1.089336   1.768482   1.767008   0.000000
 Framework group  CS[SG(C3HNS),X(H4)]
 Deg. of freedom    15
                         Standard orientation:                         
 ---------------------------------------------------------------------
 Center     Atomic      Atomic             Coordinates (Angstroms)
 Number     Number       Type             X           Y           Z
 ---------------------------------------------------------------------
      1          6           0       -0.114333   -0.777314    0.000000
      2         16           0       -0.367106   -2.340737    0.000000
      3          7           0        0.000000    0.401172    0.000000
      4          6           0        0.799810    1.591603    0.000000
      5          1           0        1.445951    1.570224    0.881049
      6          1           0        1.445951    1.570224   -0.881049
      7          6           0       -0.055734    2.851447    0.000000
      8          1           0        0.587127    3.731737    0.000000
      9          1           0       -0.691895    2.888497   -0.883504
     10          1           0       -0.691895    2.888497    0.883504
 ---------------------------------------------------------------------
 Rotational constants (GHZ):          33.8800061           1.4208200           1.3871234
 ======================================================================================================
                                       Pseudopotential Parameters
 ======================================================================================================
  Center     Atomic      Valence      Angular      Power
  Number     Number     Electrons     Momentum     of R      Exponent        Coefficient   SO-Coeffient
 ======================================================================================================
    1          6            6
                                      G and up 
                                                     0        0.0000010       -0.00011185    0.00000000
                                                     2        0.1200000       -0.02301220    0.00000000
                                                     2        0.1400000        0.13317600    0.00000000
                                                     2        0.1600000       -0.19690668    0.00000000
                                                     2        0.2200000        0.23163694    0.00000000
                                                     2        0.3000000       -0.36920489    0.00000000
                                                     2        0.4000000        0.36389709    0.00000000
                                                     2        0.7000000       -0.38862160    0.00000000
                                                     2        1.3000000        0.80803421    0.00000000
                                      S - G
                                                     0        0.0000010        0.00312304    0.00000000
                                                     2        0.1200000       -0.00632892    0.00000000
                                                     2        0.2200000       -0.03780897    0.00000000
                                                     2        0.4000000        0.26269560    0.00000000
                                                     2        0.9000000       -0.28209514    0.00000000
                                                     2        1.5000000       -0.72686737    0.00000000
                                      P - G
                                                     0        0.0000010       -0.01465594    0.00000000
                                                     2        0.1200000        0.07908409    0.00000000
                                                     2        0.1800000       -0.30615861    0.00000000
                                                     2        0.2600000        0.41506950    0.00000000
                                                     2        0.5000000       -0.36252345    0.00000000
                                                     2        0.9000000        0.15124193    0.00000000
                                                     2        3.0000000       -0.80425677    0.00000000
                                      D - G
                                                     0        0.0000010        0.01149631    0.00000000
                                                     2        0.1200000       -0.04713561    0.00000000
                                                     2        0.1600000        0.10865096    0.00000000
                                                     2        0.2800000       -0.15816701    0.00000000
                                                     2        0.7000000        0.65478804    0.00000000
                                                     2        1.3000000       -1.73816624    0.00000000
                                      F - G
                                                     0        0.0000010        0.00481868    0.00000000
                                                     2        0.1200000       -0.04746842    0.00000000
                                                     2        0.1600000        0.09327889    0.00000000
                                                     2        0.4000000       -0.19693326    0.00000000
                                                     2        0.9000000        0.34938253    0.00000000
    2         16           16
                                      G and up 
                                                     0        0.0000010       -0.00108337    0.00000000
                                                     2        0.1200000        0.02393503    0.00000000
                                                     2        0.1400000       -0.04929246    0.00000000
                                                     2        0.2200000        0.11673929    0.00000000
                                                     2        0.3000000       -0.24406081    0.00000000
                                                     2        0.5000000        0.65938599    0.00000000
                                                     2        0.9000000       -2.67146103    0.00000000
                                                     2        1.6000000        1.72231217    0.00000000
                                      S - G
                                                     0        0.0000010       -0.00315363    0.00000000
                                                     2        0.1600000        0.09915567    0.00000000
                                                     2        0.3000000       -0.42531365    0.00000000
                                                     2        0.6000000        1.27985937    0.00000000
                                      P - G
                                                     0        0.0000010        0.05906535    0.00000000
                                                     2        0.1200000       -0.03516302    0.00000000
                                                     2        0.1600000        0.00585339    0.00000000
                                                     2        0.5000000        0.34013084    0.00000000
                                      D - G
                                                     0        0.0000010        0.03484679    0.00000000
                                                     2        0.1200000        0.00763944    0.00000000
                                                     2        0.2400000       -0.16368217    0.00000000
                                                     2        0.7000000        1.04339930    0.00000000
                                      F - G
                                                     0        0.0000010       -0.02227713    0.00000000
                                                     2        0.1200000       -0.15866626    0.00000000
                                                     2        0.1600000        0.42479417    0.00000000
                                                     2        0.2600000       -0.42884495    0.00000000
    3          7            7
                                      G and up 
                                                     0        0.0000010       -0.00000022    0.00000000
                                                     2        0.1200000       -0.00992020    0.00000000
                                                     2        0.1400000        0.02578711    0.00000000
                                                     2        0.2200000       -0.10543517    0.00000000
                                                     2        0.3000000        0.23013665    0.00000000
                                                     2        0.5000000       -0.60834094    0.00000000
                                                     2        0.8000000        1.81436815    0.00000000
                                                     2        1.2000000       -3.87539738    0.00000000
                                                     2        2.0000000        2.94656640    0.00000000
                                      S - G
                                                     0        0.0000010       -0.00223566    0.00000000
                                                     2        0.1200000        0.45247937    0.00000000
                                                     2        0.1600000       -0.78978304    0.00000000
                                                     2        0.4000000        0.84956595    0.00000000
                                                     2        3.0000000       -0.75910174    0.00000000
                                      P - G
                                                     0        0.0000010       -0.25576737    0.00000000
                                                     2        0.1200000       -0.19992277    0.00000000
                                                     2        0.1600000        0.88518512    0.00000000
                                                     2        0.2400000       -1.33293917    0.00000000
                                                     2        0.4000000        1.33451776    0.00000000
                                                     2        0.9000000       -0.55709210    0.00000000
                                                     2        2.5000000        2.48506502    0.00000000
                                      D - G
                                                     0        0.0000010        0.26143746    0.00000000
                                                     2        0.1200000       -0.04492212    0.00000000
                                                     2        0.1400000       -0.18274021    0.00000000
                                                     2        0.2400000        0.53490004    0.00000000
                                                     2        0.4000000       -0.74136473    0.00000000
                                                     2        1.3000000        1.71401021    0.00000000
                                      F - G
                                                     0        0.0000010       -0.07169988    0.00000000
                                                     2        0.1200000        0.04480029    0.00000000
                                                     2        0.2600000       -0.08050831    0.00000000
                                                     2        0.5000000        0.31290809    0.00000000
                                                     2        1.0000000       -0.45253098    0.00000000
    4          6            6
                                      G and up 
                                                     0        0.0000010       -0.00011185    0.00000000
                                                     2        0.1200000       -0.02301220    0.00000000
                                                     2        0.1400000        0.13317600    0.00000000
                                                     2        0.1600000       -0.19690668    0.00000000
                                                     2        0.2200000        0.23163694    0.00000000
                                                     2        0.3000000       -0.36920489    0.00000000
                                                     2        0.4000000        0.36389709    0.00000000
                                                     2        0.7000000       -0.38862160    0.00000000
                                                     2        1.3000000        0.80803421    0.00000000
                                      S - G
                                                     0        0.0000010        0.00312304    0.00000000
                                                     2        0.1200000       -0.00632892    0.00000000
                                                     2        0.2200000       -0.03780897    0.00000000
                                                     2        0.4000000        0.26269560    0.00000000
                                                     2        0.9000000       -0.28209514    0.00000000
                                                     2        1.5000000       -0.72686737    0.00000000
                                      P - G
                                                     0        0.0000010       -0.01465594    0.00000000
                                                     2        0.1200000        0.07908409    0.00000000
                                                     2        0.1800000       -0.30615861    0.00000000
                                                     2        0.2600000        0.41506950    0.00000000
                                                     2        0.5000000       -0.36252345    0.00000000
                                                     2        0.9000000        0.15124193    0.00000000
                                                     2        3.0000000       -0.80425677    0.00000000
                                      D - G
                                                     0        0.0000010        0.01149631    0.00000000
                                                     2        0.1200000       -0.04713561    0.00000000
                                                     2        0.1600000        0.10865096    0.00000000
                                                     2        0.2800000       -0.15816701    0.00000000
                                                     2        0.7000000        0.65478804    0.00000000
                                                     2        1.3000000       -1.73816624    0.00000000
                                      F - G
                                                     0        0.0000010        0.00481868    0.00000000
                                                     2        0.1200000       -0.04746842    0.00000000
                                                     2        0.1600000        0.09327889    0.00000000
                                                     2        0.4000000       -0.19693326    0.00000000
                                                     2        0.9000000        0.34938253    0.00000000
    5          1            1
                                      F and up 
                                                     0        0.0000010       -0.00000699    0.00000000
                                                     2        0.1200000        0.00123686    0.00000000
                                                     2        0.1800000       -0.00752022    0.00000000
                                                     2        0.2600000        0.02503380    0.00000000
                                                     2        0.4000000       -0.08702670    0.00000000
                                                     2        0.6000000        0.30134159    0.00000000
                                                     2        0.8000000       -0.50204959    0.00000000
                                                     2        1.2000000        0.52208372    0.00000000
                                      S - F
                                                     0        0.0000010       -0.01618346    0.00000000
                                                     2        0.1200000       -0.07880581    0.00000000
                                                     2        0.1600000        0.32040539    0.00000000
                                                     2        0.2400000       -0.47500956    0.00000000
                                                     2        0.5000000        0.54013668    0.00000000
                                                     2        1.5000000       -1.40434292    0.00000000
                                                     2        3.0000000        1.46283806    0.00000000
                                      P - F
                                                     0        0.0000010        0.00612970    0.00000000
                                                     2        0.1200000        0.02254406    0.00000000
                                                     2        0.1800000       -0.13874529    0.00000000
                                                     2        0.3000000        0.38299049    0.00000000
                                                     2        0.5000000       -0.57923512    0.00000000
                                                     2        1.0000000        0.63021625    0.00000000
                                                     2        2.0000000       -0.79201034    0.00000000
                                      D - F
                                                     0        0.0000010       -0.00296226    0.00000000
                                                     2        0.1200000       -0.00547344    0.00000000
                                                     2        0.1400000        0.01837884    0.00000000
                                                     2        0.2400000       -0.05565704    0.00000000
                                                     2        0.4000000        0.15376597    0.00000000
                                                     2        0.8000000       -0.32464795    0.00000000
    6          1            1
                                      F and up 
                                                     0        0.0000010       -0.00000699    0.00000000
                                                     2        0.1200000        0.00123686    0.00000000
                                                     2        0.1800000       -0.00752022    0.00000000
                                                     2        0.2600000        0.02503380    0.00000000
                                                     2        0.4000000       -0.08702670    0.00000000
                                                     2        0.6000000        0.30134159    0.00000000
                                                     2        0.8000000       -0.50204959    0.00000000
                                                     2        1.2000000        0.52208372    0.00000000
                                      S - F
                                                     0        0.0000010       -0.01618346    0.00000000
                                                     2        0.1200000       -0.07880581    0.00000000
                                                     2        0.1600000        0.32040539    0.00000000
                                                     2        0.2400000       -0.47500956    0.00000000
                                                     2        0.5000000        0.54013668    0.00000000
                                                     2        1.5000000       -1.40434292    0.00000000
                                                     2        3.0000000        1.46283806    0.00000000
                                      P - F
                                                     0        0.0000010        0.00612970    0.00000000
                                                     2        0.1200000        0.02254406    0.00000000
                                                     2        0.1800000       -0.13874529    0.00000000
                                                     2        0.3000000        0.38299049    0.00000000
                                                     2        0.5000000       -0.57923512    0.00000000
                                                     2        1.0000000        0.63021625    0.00000000
                                                     2        2.0000000       -0.79201034    0.00000000
                                      D - F
                                                     0        0.0000010       -0.00296226    0.00000000
                                                     2        0.1200000       -0.00547344    0.00000000
                                                     2        0.1400000        0.01837884    0.00000000
                                                     2        0.2400000       -0.05565704    0.00000000
                                                     2        0.4000000        0.15376597    0.00000000
                                                     2        0.8000000       -0.32464795    0.00000000
    7          6            6
                                      G and up 
                                                     0        0.0000010       -0.00011185    0.00000000
                                                     2        0.1200000       -0.02301220    0.00000000
                                                     2        0.1400000        0.13317600    0.00000000
                                                     2        0.1600000       -0.19690668    0.00000000
                                                     2        0.2200000        0.23163694    0.00000000
                                                     2        0.3000000       -0.36920489    0.00000000
                                                     2        0.4000000        0.36389709    0.00000000
                                                     2        0.7000000       -0.38862160    0.00000000
                                                     2        1.3000000        0.80803421    0.00000000
                                      S - G
                                                     0        0.0000010        0.00312304    0.00000000
                                                     2        0.1200000       -0.00632892    0.00000000
                                                     2        0.2200000       -0.03780897    0.00000000
                                                     2        0.4000000        0.26269560    0.00000000
                                                     2        0.9000000       -0.28209514    0.00000000
                                                     2        1.5000000       -0.72686737    0.00000000
                                      P - G
                                                     0        0.0000010       -0.01465594    0.00000000
                                                     2        0.1200000        0.07908409    0.00000000
                                                     2        0.1800000       -0.30615861    0.00000000
                                                     2        0.2600000        0.41506950    0.00000000
                                                     2        0.5000000       -0.36252345    0.00000000
                                                     2        0.9000000        0.15124193    0.00000000
                                                     2        3.0000000       -0.80425677    0.00000000
                                      D - G
                                                     0        0.0000010        0.01149631    0.00000000
                                                     2        0.1200000       -0.04713561    0.00000000
                                                     2        0.1600000        0.10865096    0.00000000
                                                     2        0.2800000       -0.15816701    0.00000000
                                                     2        0.7000000        0.65478804    0.00000000
                                                     2        1.3000000       -1.73816624    0.00000000
                                      F - G
                                                     0        0.0000010        0.00481868    0.00000000
                                                     2        0.1200000       -0.04746842    0.00000000
                                                     2        0.1600000        0.09327889    0.00000000
                                                     2        0.4000000       -0.19693326    0.00000000
                                                     2        0.9000000        0.34938253    0.00000000
    8          1            1
                                      F and up 
                                                     0        0.0000010       -0.00000699    0.00000000
                                                     2        0.1200000        0.00123686    0.00000000
                                                     2        0.1800000       -0.00752022    0.00000000
                                                     2        0.2600000        0.02503380    0.00000000
                                                     2        0.4000000       -0.08702670    0.00000000
                                                     2        0.6000000        0.30134159    0.00000000
                                                     2        0.8000000       -0.50204959    0.00000000
                                                     2        1.2000000        0.52208372    0.00000000
                                      S - F
                                                     0        0.0000010       -0.01618346    0.00000000
                                                     2        0.1200000       -0.07880581    0.00000000
                                                     2        0.1600000        0.32040539    0.00000000
                                                     2        0.2400000       -0.47500956    0.00000000
                                                     2        0.5000000        0.54013668    0.00000000
                                                     2        1.5000000       -1.40434292    0.00000000
                                                     2        3.0000000        1.46283806    0.00000000
                                      P - F
                                                     0        0.0000010        0.00612970    0.00000000
                                                     2        0.1200000        0.02254406    0.00000000
                                                     2        0.1800000       -0.13874529    0.00000000
                                                     2        0.3000000        0.38299049    0.00000000
                                                     2        0.5000000       -0.57923512    0.00000000
                                                     2        1.0000000        0.63021625    0.00000000
                                                     2        2.0000000       -0.79201034    0.00000000
                                      D - F
                                                     0        0.0000010       -0.00296226    0.00000000
                                                     2        0.1200000       -0.00547344    0.00000000
                                                     2        0.1400000        0.01837884    0.00000000
                                                     2        0.2400000       -0.05565704    0.00000000
                                                     2        0.4000000        0.15376597    0.00000000
                                                     2        0.8000000       -0.32464795    0.00000000
    9          1            1
                                      F and up 
                                                     0        0.0000010       -0.00000699    0.00000000
                                                     2        0.1200000        0.00123686    0.00000000
                                                     2        0.1800000       -0.00752022    0.00000000
                                                     2        0.2600000        0.02503380    0.00000000
                                                     2        0.4000000       -0.08702670    0.00000000
                                                     2        0.6000000        0.30134159    0.00000000
                                                     2        0.8000000       -0.50204959    0.00000000
                                                     2        1.2000000        0.52208372    0.00000000
                                      S - F
                                                     0        0.0000010       -0.01618346    0.00000000
                                                     2        0.1200000       -0.07880581    0.00000000
                                                     2        0.1600000        0.32040539    0.00000000
                                                     2        0.2400000       -0.47500956    0.00000000
                                                     2        0.5000000        0.54013668    0.00000000
                                                     2        1.5000000       -1.40434292    0.00000000
                                                     2        3.0000000        1.46283806    0.00000000
                                      P - F
                                                     0        0.0000010        0.00612970    0.00000000
                                                     2        0.1200000        0.02254406    0.00000000
                                                     2        0.1800000       -0.13874529    0.00000000
                                                     2        0.3000000        0.38299049    0.00000000
                                                     2        0.5000000       -0.57923512    0.00000000
                                                     2        1.0000000        0.63021625    0.00000000
                                                     2        2.0000000       -0.79201034    0.00000000
                                      D - F
                                                     0        0.0000010       -0.00296226    0.00000000
                                                     2        0.1200000       -0.00547344    0.00000000
                                                     2        0.1400000        0.01837884    0.00000000
                                                     2        0.2400000       -0.05565704    0.00000000
                                                     2        0.4000000        0.15376597    0.00000000
                                                     2        0.8000000       -0.32464795    0.00000000
   10          1            1
                                      F and up 
                                                     0        0.0000010       -0.00000699    0.00000000
                                                     2        0.1200000        0.00123686    0.00000000
                                                     2        0.1800000       -0.00752022    0.00000000
                                                     2        0.2600000        0.02503380    0.00000000
                                                     2        0.4000000       -0.08702670    0.00000000
                                                     2        0.6000000        0.30134159    0.00000000
                                                     2        0.8000000       -0.50204959    0.00000000
                                                     2        1.2000000        0.52208372    0.00000000
                                      S - F
                                                     0        0.0000010       -0.01618346    0.00000000
                                                     2        0.1200000       -0.07880581    0.00000000
                                                     2        0.1600000        0.32040539    0.00000000
                                                     2        0.2400000       -0.47500956    0.00000000
                                                     2        0.5000000        0.54013668    0.00000000
                                                     2        1.5000000       -1.40434292    0.00000000
                                                     2        3.0000000        1.46283806    0.00000000
                                      P - F
                                                     0        0.0000010        0.00612970    0.00000000
                                                     2        0.1200000        0.02254406    0.00000000
                                                     2        0.1800000       -0.13874529    0.00000000
                                                     2        0.3000000        0.38299049    0.00000000
                                                     2        0.5000000       -0.57923512    0.00000000
                                                     2        1.0000000        0.63021625    0.00000000
                                                     2        2.0000000       -0.79201034    0.00000000
                                      D - F
                                                     0        0.0000010       -0.00296226    0.00000000
                                                     2        0.1200000       -0.00547344    0.00000000
                                                     2        0.1400000        0.01837884    0.00000000
                                                     2        0.2400000       -0.05565704    0.00000000
                                                     2        0.4000000        0.15376597    0.00000000
                                                     2        0.8000000       -0.32464795    0.00000000
 ======================================================================================================
   164 basis functions,   308 primitive gaussians,   174 cartesian basis functions
    23 alpha electrons       23 beta electrons
       nuclear repulsion energy       188.8749957324 Hartrees.
 NAtoms=   10 NActive=   10 NUniq=    8 SFac= 1.56D+00 NAtFMM=   60 NAOKFM=F Big=F
   2 Symmetry operations used in ECPInt.
 ECPInt:  NShTT=    2628 NPrTT=   14852 LenC2=    2615 LenP2D=   11245.
 LDataN:  DoStor=T MaxTD1= 6 Len=  172
 Initial guess from the checkpoint file:  "CR20_13_mol1.chk"
 B after Tr=     0.000000   -0.000000    0.000000
         Rot=    1.000000    0.000000    0.000000   -0.000000 Ang=  -0.00 deg.
 Initial guess orbital symmetries:
       Occupied  (A') (A') (A') (A') (A') (A') (A') (A') (A") (A')
                 (A') (A') (A') (A') (A") (A') (A') (A") (A') (A')
                 (A") (A') (A")
       Virtual   (A') (A') (A") (A') (A") (A') (A') (A') (A') (A')
                 (A") (A") (A') (A') (A") (A') (A') (A") (A') (A")
                 (A') (A') (A') (A") (A') (A") (A') (A') (A') (A')
                 (A') (A") (A") (A') (A') (A") (A') (A') (A") (A')
                 (A') (A") (A') (A") (A') (A") (A") (A') (A') (A')
                 (A") (A") (A') (A') (A") (A') (A') (A") (A') (A")
                 (A') (A') (A') (A") (A') (A') (A") (A') (A') (A")
                 (A') (A") (A') (A') (A") (A') (A") (A') (A') (A')
                 (A") (A') (A') (A") (A') (A") (A') (A") (A') (A')
                 (A') (A") (A') (A") (A') (A") (A') (A') (A') (A")
                 (A') (A") (A") (A') (A') (A") (A') (A") (A") (A')
                 (A') (A") (A') (A") (A') (A') (A') (A') (A") (A")
                 (A') (A') (A') (A") (A') (A') (A") (A') (A') (A")
                 (A') (A') (A') (A") (A") (A') (A') (A") (A') (A')
                 (A')
 >>>>>>>>>> Convergence criterion not met.
 SCF Done:  E(RHF) =  -568.581959734     A.U. after    2 cycles
            NFock=  1  Conv=0.67D-02     -V/T= 2.0044

 **********************************************************************

            Population analysis using the SCF Density.

 **********************************************************************

 Orbital symmetries:
       Occupied  (A') (A') (A') (A') (A') (A') (A') (A') (A") (A')
                 (A') (A') (A') (A') (A") (A') (A') (A") (A') (A')
                 (A") (A') (A")
       Virtual   (A') (A') (A") (A') (A") (A') (A') (A') (A') (A')
                 (A") (A") (A') (A') (A") (A') (A') (A") (A') (A")
                 (A') (A') (A") (A') (A') (A") (A') (A') (A') (A')
                 (A') (A") (A") (A') (A') (A") (A') (A') (A") (A')
                 (A') (A") (A') (A") (A') (A") (A") (A') (A') (A')
                 (A") (A") (A') (A') (A") (A') (A') (A") (A') (A")
                 (A') (A') (A') (A") (A') (A') (A") (A') (A') (A")
                 (A') (A") (A') (A') (A") (A') (A") (A') (A') (A')
                 (A") (A') (A') (A") (A') (A") (A') (A") (A') (A')
                 (A') (A") (A') (A") (A') (A") (A') (A') (A') (A")
                 (A') (A") (A") (A') (A') (A") (A') (A") (A") (A')
                 (A') (A") (A') (A") (A') (A') (A') (A') (A") (A")
                 (A') (A') (A') (A") (A') (A') (A") (A') (A') (A")
                 (A') (A') (A') (A") (A') (A") (A') (A") (A') (A')
                 (A')
 The electronic state is 1-A'.
 Alpha  occ. eigenvalues --  -93.52223 -15.67304 -11.38191 -11.31948 -11.25139
 Alpha  occ. eigenvalues --   -8.82167  -6.16497  -6.15792  -6.15762  -1.26148
 Alpha  occ. eigenvalues --   -1.07855  -1.00282  -0.90480  -0.73650  -0.67500
 Alpha  occ. eigenvalues --   -0.61255  -0.58547  -0.56472  -0.56060  -0.51721
 Alpha  occ. eigenvalues --   -0.51000  -0.35480  -0.34826
 Alpha virt. eigenvalues --    0.02736   0.04288   0.04421   0.05376   0.07399
 Alpha virt. eigenvalues --    0.07786   0.10068   0.10934   0.11132   0.12079
 Alpha virt. eigenvalues --    0.12474   0.12822   0.14425   0.15302   0.15952
 Alpha virt. eigenvalues --    0.16750   0.17587   0.18156   0.19574   0.20208
 Alpha virt. eigenvalues --    0.20419   0.21857   0.26195   0.26247   0.27587
 Alpha virt. eigenvalues --    0.28890   0.30203   0.31156   0.33338   0.33660
 Alpha virt. eigenvalues --    0.34033   0.34356   0.36118   0.37748   0.38320
 Alpha virt. eigenvalues --    0.40664   0.40906   0.42299   0.43195   0.45256
 Alpha virt. eigenvalues --    0.46845   0.47433   0.51781   0.51843   0.52738
 Alpha virt. eigenvalues --    0.53945   0.54480   0.54675   0.55203   0.57076
 Alpha virt. eigenvalues --    0.58078   0.59435   0.61207   0.61633   0.64115
 Alpha virt. eigenvalues --    0.65956   0.67739   0.68280   0.68470   0.71609
 Alpha virt. eigenvalues --    0.71887   0.73481   0.74970   0.75389   0.78468
 Alpha virt. eigenvalues --    0.79776   0.80304   0.81049   0.84703   0.88747
 Alpha virt. eigenvalues --    0.89144   0.90012   0.92476   0.93506   0.93707
 Alpha virt. eigenvalues --    0.97592   0.99290   1.06477   1.06870   1.07407
 Alpha virt. eigenvalues --    1.09926   1.12237   1.14665   1.15926   1.16291
 Alpha virt. eigenvalues --    1.18745   1.22059   1.22367   1.25335   1.26595
 Alpha virt. eigenvalues --    1.37944   1.38518   1.44393   1.46459   1.49553
 Alpha virt. eigenvalues --    1.55104   1.61542   1.66811   1.70202   1.70360
 Alpha virt. eigenvalues --    1.75189   1.77614   1.78475   1.79473   1.87127
 Alpha virt. eigenvalues --    1.88487   1.91034   1.91697   1.99926   2.02600
 Alpha virt. eigenvalues --    2.05425   2.06914   2.07376   2.09719   2.15750
 Alpha virt. eigenvalues --    2.16377   2.22880   2.24109   2.27450   2.30577
 Alpha virt. eigenvalues --    2.33941   2.38253   2.46706   2.51940   2.53661
 Alpha virt. eigenvalues --    2.60439   2.65322   2.68823   2.69876   2.76407
 Alpha virt. eigenvalues --    2.82907   2.85007   2.89572   2.95864   3.05312
 Alpha virt. eigenvalues --    3.05339   3.09293   3.26497   3.32918   3.69903
 Alpha virt. eigenvalues --    3.82899
          Condensed to atoms (all electrons):
 Mulliken charges:
               1
     1  C   -0.653403
     2  S    0.135755
     3  N   -0.136139
     4  C    0.682692
     5  H   -0.149474
     6  H   -0.149474
     7  C    0.390397
     8  H   -0.030111
     9  H   -0.045121
    10  H   -0.045121
 Sum of Mulliken charges =  -0.00000
 Mulliken charges with hydrogens summed into heavy atoms:
               1
     1  C   -0.653403
     2  S    0.135755
     3  N   -0.136139
     4  C    0.383744
     7  C    0.270043
 Electronic spatial extent (au):  <R**2>=            822.9826
 Charge=             -0.0000 electrons
 Dipole moment (field-independent basis, Debye):
    X=              1.4257    Y=              3.8855    Z=              0.0000  Tot=              4.1388

 Test job not archived.
 1\1\GINC-SE364\SP\RHF\Aug-CC-pVDZ\C3H5N1S1\OHZDE\09-Apr-2025\0\\#t hf 
 aug-cc-pvdz iop(5/13=1,5/36=2,99/5=2) pseudo=read geom=check guess=(re
 ad,tcheck) scf=(maxcycle=1)\\title\\0,1\C,0,-0.114333,-0.777314,0.\S,0
 ,-0.367107,-2.340737,0.\N,0,0.,0.401172,0.\C,0,0.79981,1.591603,0.\H,0
 ,1.445951,1.570224,0.881049\H,0,1.445951,1.570224,-0.881049\C,0,-0.055
 733,2.851447,0.\H,0,0.587128,3.731737,0.\H,0,-0.691894,2.888497,-0.883
 504\H,0,-0.691894,2.888497,0.883504\\Version=ES64L-G16RevC.01\State=1-
 A'\HF=-568.5819597\RMSD=6.702e-03\Dipole=0.5608958,1.5286754,0.\Quadru
 pole=0.2136588,-0.0265976,-0.1870612,0.7921843,0.,0.\PG=CS [SG(C3H1N1S
 1),X(H4)]\\@


 THE MORE POWERFUL THE METHOD, THE MORE CATASTROPHIC THE ERRORS.
     -- M.D. KAMEN
 Job cpu time:       0 days  0 hours  0 minutes 34.1 seconds.
 Elapsed time:       0 days  0 hours  0 minutes  3.0 seconds.
 File lengths (MBytes):  RWF=     10 Int=      0 D2E=      0 Chk=      5 Scr=      1
 Normal termination of Gaussian 16 at Wed Apr  9 02:14:07 2025.
