 Entering Gaussian System, Link 0=g16
 Input=CRBH20_8_mol1.gjf
 Output=CRBH20_8_mol1.log
 Initial command:
 /arc/software/Gaussian/g16.c01/l1.exe "/tmp/slurm/4856782/Gau-1257381.inp" -scrdir="/tmp/slurm/4856782/"
 Entering Link 1 = /arc/software/Gaussian/g16.c01/l1.exe PID=   1257415.
  
 Copyright (c) 1988-2019, Gaussian, Inc.  All Rights Reserved.
  
 This is part of the Gaussian(R) 16 program.  It is based on
 the Gaussian(R) 09 system (copyright 2009, Gaussian, Inc.),
 the Gaussian(R) 03 system (copyright 2003, Gaussian, Inc.),
 the Gaussian(R) 98 system (copyright 1998, Gaussian, Inc.),
 the Gaussian(R) 94 system (copyright 1995, Gaussian, Inc.),
 the Gaussian 92(TM) system (copyright 1992, Gaussian, Inc.),
 the Gaussian 90(TM) system (copyright 1990, Gaussian, Inc.),
 the Gaussian 88(TM) system (copyright 1988, Gaussian, Inc.),
 the Gaussian 86(TM) system (copyright 1986, Carnegie Mellon
 University), and the Gaussian 82(TM) system (copyright 1983,
 Carnegie Mellon University). Gaussian is a federally registered
 trademark of Gaussian, Inc.
  
 This software contains proprietary and confidential information,
 including trade secrets, belonging to Gaussian, Inc.
  
 This software is provided under written license and may be
 used, copied, transmitted, or stored only in accord with that
 written license.
  
 The following legend is applicable only to US Government
 contracts under FAR:
  
                    RESTRICTED RIGHTS LEGEND
  
 Use, reproduction and disclosure by the US Government is
 subject to restrictions as set forth in subparagraphs (a)
 and (c) of the Commercial Computer Software - Restricted
 Rights clause in FAR 52.227-19.
  
 Gaussian, Inc.
 340 Quinnipiac St., Bldg. 40, Wallingford CT 06492
  
  
 ---------------------------------------------------------------
 Warning -- This program may not be used in any manner that
 competes with the business of Gaussian, Inc. or will provide
 assistance to any competitor of Gaussian, Inc.  The licensee
 of this program is prohibited from giving any competitor of
 Gaussian, Inc. access to this program.  By using this program,
 the user acknowledges that Gaussian, Inc. is engaged in the
 business of creating and licensing software in the field of
 computational chemistry and represents and warrants to the
 licensee that it is not a competitor of Gaussian, Inc. and that
 it will not use this program in any manner prohibited above.
 ---------------------------------------------------------------
  

 Cite this work as:
 Gaussian 16, Revision C.01,
 M. J. Frisch, G. W. Trucks, H. B. Schlegel, G. E. Scuseria, 
 M. A. Robb, J. R. Cheeseman, G. Scalmani, V. Barone, 
 G. A. Petersson, H. Nakatsuji, X. Li, M. Caricato, A. V. Marenich, 
 J. Bloino, B. G. Janesko, R. Gomperts, B. Mennucci, H. P. Hratchian, 
 J. V. Ortiz, A. F. Izmaylov, J. L. Sonnenberg, D. Williams-Young, 
 F. Ding, F. Lipparini, F. Egidi, J. Goings, B. Peng, A. Petrone, 
 T. Henderson, D. Ranasinghe, V. G. Zakrzewski, J. Gao, N. Rega, 
 G. Zheng, W. Liang, M. Hada, M. Ehara, K. Toyota, R. Fukuda, 
 J. Hasegawa, M. Ishida, T. Nakajima, Y. Honda, O. Kitao, H. Nakai, 
 T. Vreven, K. Throssell, J. A. Montgomery, Jr., J. E. Peralta, 
 F. Ogliaro, M. J. Bearpark, J. J. Heyd, E. N. Brothers, K. N. Kudin, 
 V. N. Staroverov, T. A. Keith, R. Kobayashi, J. Normand, 
 K. Raghavachari, A. P. Rendell, J. C. Burant, S. S. Iyengar, 
 J. Tomasi, M. Cossi, J. M. Millam, M. Klene, C. Adamo, R. Cammi, 
 J. W. Ochterski, R. L. Martin, K. Morokuma, O. Farkas, 
 J. B. Foresman, and D. J. Fox, Gaussian, Inc., Wallingford CT, 2019.
 
 ******************************************
 Gaussian 16:  ES64L-G16RevC.01  3-Jul-2019
                 9-Apr-2025 
 ******************************************
 %nprocs=16
 Will use up to   16 processors via shared memory.
 %mem=30GB
 %chk=CRBH20_8_mol1.chk
 ----------------------------------------------------------------------
 #t hf aug-cc-pvdz symm=none int=(grid=ultrafine) guess=(read,tcheck) s
 table=(opt,rrhf)
 ----------------------------------------------------------------------
 -----
 title
 -----
 Symbolic Z-matrix:
 Charge =  0 Multiplicity = 1
 C                    -1.17921  -0.19145  -0.04101 
 C                     1.5725    0.03107   0.32191 
 O                     1.04766   0.96987  -0.21569 
 N                    -0.8378    1.04919   0.05022 
 C                    -2.74313   0.01282   0.04798 
 H                    -3.05651  -0.57908   0.905 
 H                    -3.07647   1.04034   0.16173 
 H                    -3.12724  -0.39891  -0.88292 
 H                     1.2117   -0.5352    1.17347 
 F                     2.76146  -0.37598  -0.08565 
 O                    -0.65278  -1.29516  -0.14822 
 
                    Distance matrix (angstroms):
                    1          2          3          4          5
     1  C    0.000000
     2  C    2.784447   0.000000
     3  O    2.517568   1.202429   0.000000
     4  N    1.289991   2.630584   1.905774   0.000000
     5  C    1.579714   4.324357   3.918618   2.168947   0.000000
     6  H    2.137621   4.705315   4.527625   2.881761   1.087674
     7  H    2.271120   4.759957   4.141960   2.241455   1.086201
     8  H    2.132289   4.870733   4.443933   2.865178   1.087946
     9  H    2.703614   1.084425   2.054727   2.823547   4.148216
    10  F    3.945236   1.321139   2.182962   3.873531   5.519918
    11  O    1.227512   2.632822   2.833090   2.359994   2.473638
                    6          7          8          9         10
     6  H    0.000000
     7  H    1.781950   0.000000
     8  H    1.798360   1.779127   0.000000
     9  H    4.276862   4.679129   4.803499   0.000000
    10  F    5.905195   6.012360   5.942461   2.003119   0.000000
    11  O    2.720286   3.380068   2.732397   2.408449   3.536350
                   11
    11  O    0.000000
 Symmetry turned off by external request.
 Rotational constants (GHZ):           7.4461162           1.4419459           1.2409790
   197 basis functions,   345 primitive gaussians,   211 cartesian basis functions
    27 alpha electrons       27 beta electrons
       nuclear repulsion energy       291.1165935369 Hartrees.
 NAtoms=   11 NActive=   11 NUniq=   11 SFac= 1.00D+00 NAtFMM=   60 NAOKFM=F Big=F
 ExpMin= 2.97D-02 ExpMax= 1.47D+04 ExpMxC= 5.03D+02 IAcc=3 IRadAn=         5 AccDes= 0.00D+00
 Harris functional with IExCor=  205 and IRadAn=       5 diagonalized for initial guess.
 HarFok:  IExCor=  205 AccDes= 0.00D+00 IRadAn=         5 IDoV= 1 UseB2=F ITyADJ=14
 ICtDFT=  3500011 ScaDFX=  1.000000  1.000000  1.000000  1.000000
 FoFCou: FMM=F IPFlag=           0 FMFlag=      100000 FMFlg1=           0
         NFxFlg=           0 DoJE=T BraDBF=F KetDBF=T FulRan=T
         wScrn=  0.000000 ICntrl=       500 IOpCl=  0 I1Cent=   200000004 NGrid=           0
         NMat0=    1 NMatS0=      1 NMatT0=    0 NMatD0=    1 NMtDS0=    0 NMtDT0=    0
 Symmetry not used in FoFCou.
 SCF Done:  E(RHF) =  -419.478282607     A.U. after   17 cycles
            NFock= 17  Conv=0.46D-08     -V/T= 2.0013

 **********************************************************************

            Population analysis using the SCF Density.

 **********************************************************************

 Alpha  occ. eigenvalues --  -26.38332 -20.64314 -20.55081 -15.67264 -11.47710
 Alpha  occ. eigenvalues --  -11.37434 -11.27031  -1.70752  -1.47889  -1.39599
 Alpha  occ. eigenvalues --   -1.22317  -0.98838  -0.94188  -0.82597  -0.77467
 Alpha  occ. eigenvalues --   -0.75622  -0.72036  -0.66804  -0.64475  -0.63763
 Alpha  occ. eigenvalues --   -0.61494  -0.59241  -0.57050  -0.54580  -0.52266
 Alpha  occ. eigenvalues --   -0.43346  -0.43149
 Alpha virt. eigenvalues --    0.03337   0.04015   0.05733   0.05957   0.08247
 Alpha virt. eigenvalues --    0.08827   0.08972   0.09458   0.11875   0.12933
 Alpha virt. eigenvalues --    0.13678   0.14368   0.15042   0.15521   0.15802
 Alpha virt. eigenvalues --    0.17676   0.19971   0.20026   0.20739   0.20872
 Alpha virt. eigenvalues --    0.23274   0.24196   0.25287   0.26929   0.27750
 Alpha virt. eigenvalues --    0.28751   0.29641   0.31028   0.31518   0.31943
 Alpha virt. eigenvalues --    0.33380   0.33806   0.35397   0.37410   0.38706
 Alpha virt. eigenvalues --    0.40086   0.40959   0.41486   0.42574   0.43197
 Alpha virt. eigenvalues --    0.44686   0.45656   0.46960   0.48128   0.51070
 Alpha virt. eigenvalues --    0.51614   0.53403   0.54948   0.55550   0.57417
 Alpha virt. eigenvalues --    0.57978   0.58706   0.59615   0.59907   0.63977
 Alpha virt. eigenvalues --    0.65301   0.65867   0.66665   0.67848   0.68740
 Alpha virt. eigenvalues --    0.70101   0.70708   0.73005   0.75783   0.77259
 Alpha virt. eigenvalues --    0.78663   0.80447   0.81203   0.84601   0.86108
 Alpha virt. eigenvalues --    0.88431   0.90077   0.90667   0.94008   0.95151
 Alpha virt. eigenvalues --    0.99032   1.01213   1.02853   1.04394   1.07091
 Alpha virt. eigenvalues --    1.09863   1.11636   1.12596   1.15913   1.16288
 Alpha virt. eigenvalues --    1.18612   1.22572   1.23725   1.28342   1.30824
 Alpha virt. eigenvalues --    1.34042   1.36304   1.38119   1.39298   1.41615
 Alpha virt. eigenvalues --    1.45010   1.47434   1.48484   1.49481   1.51744
 Alpha virt. eigenvalues --    1.54647   1.58585   1.60514   1.62730   1.65871
 Alpha virt. eigenvalues --    1.69353   1.70707   1.72309   1.74019   1.77746
 Alpha virt. eigenvalues --    1.79472   1.82223   1.84679   1.86012   1.88390
 Alpha virt. eigenvalues --    1.90191   1.93227   1.95565   1.97643   2.01304
 Alpha virt. eigenvalues --    2.04850   2.06372   2.08969   2.11698   2.16590
 Alpha virt. eigenvalues --    2.17393   2.18576   2.20677   2.25862   2.26849
 Alpha virt. eigenvalues --    2.31898   2.33812   2.39965   2.45007   2.48300
 Alpha virt. eigenvalues --    2.49475   2.53357   2.60612   2.62442   2.67382
 Alpha virt. eigenvalues --    2.69502   2.73671   2.79001   2.81606   2.85718
 Alpha virt. eigenvalues --    2.88848   2.93299   2.96625   3.04045   3.11014
 Alpha virt. eigenvalues --    3.16652   3.27696   3.31369   3.44998   3.59701
 Alpha virt. eigenvalues --    3.71863   3.74516   3.79551   3.80734   3.81373
 Alpha virt. eigenvalues --    3.89086   3.99533   4.05016   4.14643   4.17517
 Alpha virt. eigenvalues --    4.90597   4.93162   4.98802   5.01123   5.09618
          Condensed to atoms (all electrons):
 Mulliken charges:
               1
     1  C    0.410576
     2  C    1.323220
     3  O   -0.590221
     4  N   -0.268366
     5  C    0.407257
     6  H    0.047631
     7  H   -0.013298
     8  H    0.070119
     9  H   -0.080662
    10  F   -0.511120
    11  O   -0.795136
 Sum of Mulliken charges =  -0.00000
 Mulliken charges with hydrogens summed into heavy atoms:
               1
     1  C    0.410576
     2  C    1.242558
     3  O   -0.590221
     4  N   -0.268366
     5  C    0.511709
    10  F   -0.511120
    11  O   -0.795136
 Electronic spatial extent (au):  <R**2>=            874.3344
 Charge=             -0.0000 electrons
 Dipole moment (field-independent basis, Debye):
    X=             -1.0638    Y=              0.3020    Z=              2.0792  Tot=              2.3550
 NROrb=    197 NOA=    27 NOB=    27 NVA=   170 NVB=   170

 **** Warning!!: The largest alpha MO coefficient is  0.38754849D+02

    12 initial guesses have been made.
 Iteration     1 Dimension    12 NMult     0 NNew     12
 Iteration     2 Dimension    24 NMult    12 NNew     12
 Iteration     3 Dimension    27 NMult    24 NNew      3
 Iteration     4 Dimension    30 NMult    27 NNew      3
 Iteration     5 Dimension    33 NMult    30 NNew      3
 Iteration     6 Dimension    36 NMult    33 NNew      3
 ***********************************************************************
 Stability analysis using <AA,BB:AA,BB> singles matrix:
 ***********************************************************************
 Ground to excited state transition densities written to RWF  633

 Eigenvectors of the stability matrix:
 
 Excited state symmetry could not be determined.
 Eigenvector   1:      Singlet-?Sym  Eigenvalue= 0.1208007  <S**2>=0.000
      24 -> 32         0.13476
      26 -> 32         0.15827
      27 -> 29        -0.17526
      27 -> 32         0.40324
      27 -> 34         0.18537
      27 -> 35         0.22145
      27 -> 36         0.15170
 The wavefunction is stable under the perturbations considered.
 The wavefunction is already stable.

 **********************************************************************

            Population analysis using the SCF Density.

 **********************************************************************

 Alpha  occ. eigenvalues --  -26.38332 -20.64314 -20.55081 -15.67264 -11.47710
 Alpha  occ. eigenvalues --  -11.37434 -11.27031  -1.70752  -1.47889  -1.39599
 Alpha  occ. eigenvalues --   -1.22317  -0.98838  -0.94188  -0.82597  -0.77467
 Alpha  occ. eigenvalues --   -0.75622  -0.72036  -0.66804  -0.64475  -0.63763
 Alpha  occ. eigenvalues --   -0.61494  -0.59241  -0.57050  -0.54580  -0.52266
 Alpha  occ. eigenvalues --   -0.43346  -0.43149
 Alpha virt. eigenvalues --    0.03337   0.04015   0.05733   0.05957   0.08247
 Alpha virt. eigenvalues --    0.08827   0.08972   0.09458   0.11875   0.12933
 Alpha virt. eigenvalues --    0.13678   0.14368   0.15042   0.15521   0.15802
 Alpha virt. eigenvalues --    0.17676   0.19971   0.20026   0.20739   0.20872
 Alpha virt. eigenvalues --    0.23274   0.24196   0.25287   0.26929   0.27750
 Alpha virt. eigenvalues --    0.28751   0.29641   0.31028   0.31518   0.31943
 Alpha virt. eigenvalues --    0.33380   0.33806   0.35397   0.37410   0.38706
 Alpha virt. eigenvalues --    0.40086   0.40959   0.41486   0.42574   0.43197
 Alpha virt. eigenvalues --    0.44686   0.45656   0.46960   0.48128   0.51070
 Alpha virt. eigenvalues --    0.51614   0.53403   0.54948   0.55550   0.57417
 Alpha virt. eigenvalues --    0.57978   0.58706   0.59615   0.59907   0.63977
 Alpha virt. eigenvalues --    0.65301   0.65867   0.66665   0.67848   0.68740
 Alpha virt. eigenvalues --    0.70101   0.70708   0.73005   0.75783   0.77259
 Alpha virt. eigenvalues --    0.78663   0.80447   0.81203   0.84601   0.86108
 Alpha virt. eigenvalues --    0.88431   0.90077   0.90667   0.94008   0.95151
 Alpha virt. eigenvalues --    0.99032   1.01213   1.02853   1.04394   1.07091
 Alpha virt. eigenvalues --    1.09863   1.11636   1.12596   1.15913   1.16288
 Alpha virt. eigenvalues --    1.18612   1.22572   1.23725   1.28342   1.30824
 Alpha virt. eigenvalues --    1.34042   1.36304   1.38119   1.39298   1.41615
 Alpha virt. eigenvalues --    1.45010   1.47434   1.48484   1.49481   1.51744
 Alpha virt. eigenvalues --    1.54647   1.58585   1.60514   1.62730   1.65871
 Alpha virt. eigenvalues --    1.69353   1.70707   1.72309   1.74019   1.77746
 Alpha virt. eigenvalues --    1.79472   1.82223   1.84679   1.86012   1.88390
 Alpha virt. eigenvalues --    1.90191   1.93227   1.95565   1.97643   2.01304
 Alpha virt. eigenvalues --    2.04850   2.06372   2.08969   2.11698   2.16590
 Alpha virt. eigenvalues --    2.17393   2.18576   2.20677   2.25862   2.26849
 Alpha virt. eigenvalues --    2.31898   2.33812   2.39965   2.45007   2.48300
 Alpha virt. eigenvalues --    2.49475   2.53357   2.60612   2.62442   2.67382
 Alpha virt. eigenvalues --    2.69502   2.73671   2.79001   2.81606   2.85718
 Alpha virt. eigenvalues --    2.88848   2.93299   2.96625   3.04045   3.11014
 Alpha virt. eigenvalues --    3.16652   3.27696   3.31369   3.44998   3.59701
 Alpha virt. eigenvalues --    3.71863   3.74516   3.79551   3.80734   3.81373
 Alpha virt. eigenvalues --    3.89086   3.99533   4.05016   4.14643   4.17517
 Alpha virt. eigenvalues --    4.90597   4.93162   4.98802   5.01123   5.09618
          Condensed to atoms (all electrons):
 Mulliken charges:
               1
     1  C    0.410576
     2  C    1.323220
     3  O   -0.590221
     4  N   -0.268366
     5  C    0.407257
     6  H    0.047631
     7  H   -0.013298
     8  H    0.070119
     9  H   -0.080662
    10  F   -0.511120
    11  O   -0.795136
 Sum of Mulliken charges =  -0.00000
 Mulliken charges with hydrogens summed into heavy atoms:
               1
     1  C    0.410576
     2  C    1.242558
     3  O   -0.590221
     4  N   -0.268366
     5  C    0.511709
    10  F   -0.511120
    11  O   -0.795136
 Electronic spatial extent (au):  <R**2>=            874.3344
 Charge=             -0.0000 electrons
 Dipole moment (field-independent basis, Debye):
    X=             -1.0638    Y=              0.3020    Z=              2.0792  Tot=              2.3550
 Unable to Open any file for archive entry.
 1\1\GINC-SE292\Stability\RHF\Aug-CC-pVDZ\C3H4F1N1O2\OHZDE\09-Apr-2025\
 0\\#t hf aug-cc-pvdz symm=none int=(grid=ultrafine) guess=(read,tcheck
 ) stable=(opt,rrhf)\\title\\0,1\C,0,-1.17921,-0.191454,-0.041007\C,0,1
 .572502,0.031066,0.321914\O,0,1.047661,0.969874,-0.215689\N,0,-0.83780
 4,1.04919,0.050219\C,0,-2.743131,0.012823,0.047978\H,0,-3.056507,-0.57
 9077,0.904999\H,0,-3.076466,1.040335,0.161728\H,0,-3.127237,-0.398913,
 -0.882915\H,0,1.211695,-0.5352,1.173465\F,0,2.761455,-0.375981,-0.0856
 54\O,0,-0.652776,-1.295156,-0.148216\\Version=ES64L-G16RevC.01\HF=-419
 .4782826\RMSD=4.604e-09\Dipole=-0.4185412,0.1188196,0.8180028\Quadrupo
 le=4.759428,-5.8388565,1.0794285,-1.1624353,2.1436194,-0.5022694\PG=Un
 known\\@
 The archive entry for this job was punched.


 THERE ARE PEOPLE SO ADDICTED TO EXAGERATING THEY
 CAN'T TELL THE TRUTH WITHOUT LYING. -- FORTUNE COOKIE
 Job cpu time:       0 days  0 hours  1 minutes 38.6 seconds.
 Elapsed time:       0 days  0 hours  0 minutes 12.7 seconds.
 File lengths (MBytes):  RWF=    208 Int=      0 D2E=      0 Chk=      6 Scr=      1
 Normal termination of Gaussian 16 at Wed Apr  9 02:15:41 2025.
 Initial command:
 /arc/software/Gaussian/g16.c01/l1.exe "/tmp/slurm/4856782/Gau-1257381.inp" -scrdir="/tmp/slurm/4856782/"
 Entering Link 1 = /arc/software/Gaussian/g16.c01/l1.exe PID=   1257716.
  
 Copyright (c) 1988-2019, Gaussian, Inc.  All Rights Reserved.
  
 This is part of the Gaussian(R) 16 program.  It is based on
 the Gaussian(R) 09 system (copyright 2009, Gaussian, Inc.),
 the Gaussian(R) 03 system (copyright 2003, Gaussian, Inc.),
 the Gaussian(R) 98 system (copyright 1998, Gaussian, Inc.),
 the Gaussian(R) 94 system (copyright 1995, Gaussian, Inc.),
 the Gaussian 92(TM) system (copyright 1992, Gaussian, Inc.),
 the Gaussian 90(TM) system (copyright 1990, Gaussian, Inc.),
 the Gaussian 88(TM) system (copyright 1988, Gaussian, Inc.),
 the Gaussian 86(TM) system (copyright 1986, Carnegie Mellon
 University), and the Gaussian 82(TM) system (copyright 1983,
 Carnegie Mellon University). Gaussian is a federally registered
 trademark of Gaussian, Inc.
  
 This software contains proprietary and confidential information,
 including trade secrets, belonging to Gaussian, Inc.
  
 This software is provided under written license and may be
 used, copied, transmitted, or stored only in accord with that
 written license.
  
 The following legend is applicable only to US Government
 contracts under FAR:
  
                    RESTRICTED RIGHTS LEGEND
  
 Use, reproduction and disclosure by the US Government is
 subject to restrictions as set forth in subparagraphs (a)
 and (c) of the Commercial Computer Software - Restricted
 Rights clause in FAR 52.227-19.
  
 Gaussian, Inc.
 340 Quinnipiac St., Bldg. 40, Wallingford CT 06492
  
  
 ---------------------------------------------------------------
 Warning -- This program may not be used in any manner that
 competes with the business of Gaussian, Inc. or will provide
 assistance to any competitor of Gaussian, Inc.  The licensee
 of this program is prohibited from giving any competitor of
 Gaussian, Inc. access to this program.  By using this program,
 the user acknowledges that Gaussian, Inc. is engaged in the
 business of creating and licensing software in the field of
 computational chemistry and represents and warrants to the
 licensee that it is not a competitor of Gaussian, Inc. and that
 it will not use this program in any manner prohibited above.
 ---------------------------------------------------------------
  

 Cite this work as:
 Gaussian 16, Revision C.01,
 M. J. Frisch, G. W. Trucks, H. B. Schlegel, G. E. Scuseria, 
 M. A. Robb, J. R. Cheeseman, G. Scalmani, V. Barone, 
 G. A. Petersson, H. Nakatsuji, X. Li, M. Caricato, A. V. Marenich, 
 J. Bloino, B. G. Janesko, R. Gomperts, B. Mennucci, H. P. Hratchian, 
 J. V. Ortiz, A. F. Izmaylov, J. L. Sonnenberg, D. Williams-Young, 
 F. Ding, F. Lipparini, F. Egidi, J. Goings, B. Peng, A. Petrone, 
 T. Henderson, D. Ranasinghe, V. G. Zakrzewski, J. Gao, N. Rega, 
 G. Zheng, W. Liang, M. Hada, M. Ehara, K. Toyota, R. Fukuda, 
 J. Hasegawa, M. Ishida, T. Nakajima, Y. Honda, O. Kitao, H. Nakai, 
 T. Vreven, K. Throssell, J. A. Montgomery, Jr., J. E. Peralta, 
 F. Ogliaro, M. J. Bearpark, J. J. Heyd, E. N. Brothers, K. N. Kudin, 
 V. N. Staroverov, T. A. Keith, R. Kobayashi, J. Normand, 
 K. Raghavachari, A. P. Rendell, J. C. Burant, S. S. Iyengar, 
 J. Tomasi, M. Cossi, J. M. Millam, M. Klene, C. Adamo, R. Cammi, 
 J. W. Ochterski, R. L. Martin, K. Morokuma, O. Farkas, 
 J. B. Foresman, and D. J. Fox, Gaussian, Inc., Wallingford CT, 2019.
 
 ******************************************
 Gaussian 16:  ES64L-G16RevC.01  3-Jul-2019
                 9-Apr-2025 
 ******************************************
 %nprocs=16
 Will use up to   16 processors via shared memory.
 %mem=30GB
 %chk=CRBH20_8_mol1.chk
 ----------------------------------------------------------------------
 #t hf aug-cc-pvdz iop(5/13=1,5/36=2,99/5=2) pseudo=read geom=check gue
 ss=(read,tcheck) scf=(maxcycle=1)
 ----------------------------------------------------------------------
 -----
 title
 -----
 Structure from the checkpoint file:  "CRBH20_8_mol1.chk"
 Charge =  0 Multiplicity = 1
 Z-Matrix found in chk file.
 C,0,-1.17921,-0.191454,-0.041007
 C,0,1.572502,0.031066,0.321914
 O,0,1.047661,0.969874,-0.215689
 N,0,-0.837804,1.04919,0.050219
 C,0,-2.743131,0.012823,0.047978
 H,0,-3.056507,-0.579077,0.904999
 H,0,-3.076466,1.040335,0.161728
 H,0,-3.127237,-0.398913,-0.882915
 H,0,1.211695,-0.5352,1.173465
 F,0,2.761455,-0.375981,-0.085654
 O,0,-0.652776,-1.295156,-0.148216
 Recover connectivity data from disk.
                    Distance matrix (angstroms):
                    1          2          3          4          5
     1  C    0.000000
     2  C    2.784447   0.000000
     3  O    2.517568   1.202429   0.000000
     4  N    1.289991   2.630584   1.905774   0.000000
     5  C    1.579714   4.324357   3.918618   2.168947   0.000000
     6  H    2.137621   4.705315   4.527625   2.881761   1.087674
     7  H    2.271120   4.759957   4.141960   2.241455   1.086201
     8  H    2.132289   4.870733   4.443933   2.865178   1.087946
     9  H    2.703614   1.084425   2.054727   2.823547   4.148216
    10  F    3.945236   1.321139   2.182962   3.873531   5.519918
    11  O    1.227512   2.632822   2.833090   2.359994   2.473638
                    6          7          8          9         10
     6  H    0.000000
     7  H    1.781950   0.000000
     8  H    1.798360   1.779127   0.000000
     9  H    4.276862   4.679129   4.803499   0.000000
    10  F    5.905195   6.012360   5.942461   2.003119   0.000000
    11  O    2.720286   3.380068   2.732397   2.408449   3.536350
                   11
    11  O    0.000000
 Framework group  C1[X(C3H4FNO2)]
 Deg. of freedom    27
                         Standard orientation:                         
 ---------------------------------------------------------------------
 Center     Atomic      Atomic             Coordinates (Angstroms)
 Number     Number       Type             X           Y           Z
 ---------------------------------------------------------------------
      1          6           0        1.179210    0.191454   -0.041007
      2          6           0       -1.572502   -0.031066    0.321914
      3          8           0       -1.047661   -0.969874   -0.215689
      4          7           0        0.837804   -1.049190    0.050219
      5          6           0        2.743131   -0.012823    0.047978
      6          1           0        3.056507    0.579077    0.904999
      7          1           0        3.076466   -1.040335    0.161728
      8          1           0        3.127237    0.398913   -0.882915
      9          1           0       -1.211695    0.535200    1.173465
     10          9           0       -2.761455    0.375981   -0.085654
     11          8           0        0.652776    1.295156   -0.148216
 ---------------------------------------------------------------------
 Rotational constants (GHZ):           7.4461162           1.4419459           1.2409790
 ======================================================================================================
                                       Pseudopotential Parameters
 ======================================================================================================
  Center     Atomic      Valence      Angular      Power
  Number     Number     Electrons     Momentum     of R      Exponent        Coefficient   SO-Coeffient
 ======================================================================================================
    1          6            6
                                      G and up 
                                                     0        0.0000010       -0.00011185    0.00000000
                                                     2        0.1200000       -0.02301220    0.00000000
                                                     2        0.1400000        0.13317600    0.00000000
                                                     2        0.1600000       -0.19690668    0.00000000
                                                     2        0.2200000        0.23163694    0.00000000
                                                     2        0.3000000       -0.36920489    0.00000000
                                                     2        0.4000000        0.36389709    0.00000000
                                                     2        0.7000000       -0.38862160    0.00000000
                                                     2        1.3000000        0.80803421    0.00000000
                                      S - G
                                                     0        0.0000010        0.00312304    0.00000000
                                                     2        0.1200000       -0.00632892    0.00000000
                                                     2        0.2200000       -0.03780897    0.00000000
                                                     2        0.4000000        0.26269560    0.00000000
                                                     2        0.9000000       -0.28209514    0.00000000
                                                     2        1.5000000       -0.72686737    0.00000000
                                      P - G
                                                     0        0.0000010       -0.01465594    0.00000000
                                                     2        0.1200000        0.07908409    0.00000000
                                                     2        0.1800000       -0.30615861    0.00000000
                                                     2        0.2600000        0.41506950    0.00000000
                                                     2        0.5000000       -0.36252345    0.00000000
                                                     2        0.9000000        0.15124193    0.00000000
                                                     2        3.0000000       -0.80425677    0.00000000
                                      D - G
                                                     0        0.0000010        0.01149631    0.00000000
                                                     2        0.1200000       -0.04713561    0.00000000
                                                     2        0.1600000        0.10865096    0.00000000
                                                     2        0.2800000       -0.15816701    0.00000000
                                                     2        0.7000000        0.65478804    0.00000000
                                                     2        1.3000000       -1.73816624    0.00000000
                                      F - G
                                                     0        0.0000010        0.00481868    0.00000000
                                                     2        0.1200000       -0.04746842    0.00000000
                                                     2        0.1600000        0.09327889    0.00000000
                                                     2        0.4000000       -0.19693326    0.00000000
                                                     2        0.9000000        0.34938253    0.00000000
    2          6            6
                                      G and up 
                                                     0        0.0000010       -0.00011185    0.00000000
                                                     2        0.1200000       -0.02301220    0.00000000
                                                     2        0.1400000        0.13317600    0.00000000
                                                     2        0.1600000       -0.19690668    0.00000000
                                                     2        0.2200000        0.23163694    0.00000000
                                                     2        0.3000000       -0.36920489    0.00000000
                                                     2        0.4000000        0.36389709    0.00000000
                                                     2        0.7000000       -0.38862160    0.00000000
                                                     2        1.3000000        0.80803421    0.00000000
                                      S - G
                                                     0        0.0000010        0.00312304    0.00000000
                                                     2        0.1200000       -0.00632892    0.00000000
                                                     2        0.2200000       -0.03780897    0.00000000
                                                     2        0.4000000        0.26269560    0.00000000
                                                     2        0.9000000       -0.28209514    0.00000000
                                                     2        1.5000000       -0.72686737    0.00000000
                                      P - G
                                                     0        0.0000010       -0.01465594    0.00000000
                                                     2        0.1200000        0.07908409    0.00000000
                                                     2        0.1800000       -0.30615861    0.00000000
                                                     2        0.2600000        0.41506950    0.00000000
                                                     2        0.5000000       -0.36252345    0.00000000
                                                     2        0.9000000        0.15124193    0.00000000
                                                     2        3.0000000       -0.80425677    0.00000000
                                      D - G
                                                     0        0.0000010        0.01149631    0.00000000
                                                     2        0.1200000       -0.04713561    0.00000000
                                                     2        0.1600000        0.10865096    0.00000000
                                                     2        0.2800000       -0.15816701    0.00000000
                                                     2        0.7000000        0.65478804    0.00000000
                                                     2        1.3000000       -1.73816624    0.00000000
                                      F - G
                                                     0        0.0000010        0.00481868    0.00000000
                                                     2        0.1200000       -0.04746842    0.00000000
                                                     2        0.1600000        0.09327889    0.00000000
                                                     2        0.4000000       -0.19693326    0.00000000
                                                     2        0.9000000        0.34938253    0.00000000
    3          8            8
                                      G and up 
                                                     0        0.0000010        0.00001165    0.00000000
                                                     2        0.1200000       -0.01744018    0.00000000
                                                     2        0.1400000        0.05401326    0.00000000
                                                     2        0.1800000       -0.08231208    0.00000000
                                                     2        0.2600000        0.11570222    0.00000000
                                                     2        0.4000000       -0.20630360    0.00000000
                                                     2        0.7000000        0.38074319    0.00000000
                                                     2        1.2000000       -0.17045091    0.00000000
                                                     2        2.0000000       -1.45433187    0.00000000
                                      S - G
                                                     0        0.0000010       -0.00117944    0.00000000
                                                     2        0.1400000        0.04368312    0.00000000
                                                     2        0.3000000       -0.33477926    0.00000000
                                                     2        0.6000000        1.52630657    0.00000000
                                                     2        1.5000000       -2.50804716    0.00000000
                                                     2        3.0000000        2.89751681    0.00000000
                                      P - G
                                                     0        0.0000010        0.06576007    0.00000000
                                                     2        0.1200000       -0.10329304    0.00000000
                                                     2        0.2000000        0.24891756    0.00000000
                                                     2        0.4000000       -0.50800022    0.00000000
                                                     2        0.9000000        0.81480796    0.00000000
                                      D - G
                                                     0        0.0000010       -0.14101855    0.00000000
                                                     2        0.1200000        0.22105937    0.00000000
                                                     2        0.1800000       -0.45814988    0.00000000
                                                     2        0.3000000        0.46029282    0.00000000
                                      F - G
                                                     0        0.0000010        0.07483044    0.00000000
                                                     2        0.1200000       -0.09134252    0.00000000
                                                     2        0.1400000        0.04125459    0.00000000
                                                     2        0.3000000        0.37914837    0.00000000
                                                     2        0.5000000       -0.86881279    0.00000000
    4          7            7
                                      G and up 
                                                     0        0.0000010       -0.00000022    0.00000000
                                                     2        0.1200000       -0.00992020    0.00000000
                                                     2        0.1400000        0.02578711    0.00000000
                                                     2        0.2200000       -0.10543517    0.00000000
                                                     2        0.3000000        0.23013665    0.00000000
                                                     2        0.5000000       -0.60834094    0.00000000
                                                     2        0.8000000        1.81436815    0.00000000
                                                     2        1.2000000       -3.87539738    0.00000000
                                                     2        2.0000000        2.94656640    0.00000000
                                      S - G
                                                     0        0.0000010       -0.00223566    0.00000000
                                                     2        0.1200000        0.45247937    0.00000000
                                                     2        0.1600000       -0.78978304    0.00000000
                                                     2        0.4000000        0.84956595    0.00000000
                                                     2        3.0000000       -0.75910174    0.00000000
                                      P - G
                                                     0        0.0000010       -0.25576737    0.00000000
                                                     2        0.1200000       -0.19992277    0.00000000
                                                     2        0.1600000        0.88518512    0.00000000
                                                     2        0.2400000       -1.33293917    0.00000000
                                                     2        0.4000000        1.33451776    0.00000000
                                                     2        0.9000000       -0.55709210    0.00000000
                                                     2        2.5000000        2.48506502    0.00000000
                                      D - G
                                                     0        0.0000010        0.26143746    0.00000000
                                                     2        0.1200000       -0.04492212    0.00000000
                                                     2        0.1400000       -0.18274021    0.00000000
                                                     2        0.2400000        0.53490004    0.00000000
                                                     2        0.4000000       -0.74136473    0.00000000
                                                     2        1.3000000        1.71401021    0.00000000
                                      F - G
                                                     0        0.0000010       -0.07169988    0.00000000
                                                     2        0.1200000        0.04480029    0.00000000
                                                     2        0.2600000       -0.08050831    0.00000000
                                                     2        0.5000000        0.31290809    0.00000000
                                                     2        1.0000000       -0.45253098    0.00000000
    5          6            6
                                      G and up 
                                                     0        0.0000010       -0.00011185    0.00000000
                                                     2        0.1200000       -0.02301220    0.00000000
                                                     2        0.1400000        0.13317600    0.00000000
                                                     2        0.1600000       -0.19690668    0.00000000
                                                     2        0.2200000        0.23163694    0.00000000
                                                     2        0.3000000       -0.36920489    0.00000000
                                                     2        0.4000000        0.36389709    0.00000000
                                                     2        0.7000000       -0.38862160    0.00000000
                                                     2        1.3000000        0.80803421    0.00000000
                                      S - G
                                                     0        0.0000010        0.00312304    0.00000000
                                                     2        0.1200000       -0.00632892    0.00000000
                                                     2        0.2200000       -0.03780897    0.00000000
                                                     2        0.4000000        0.26269560    0.00000000
                                                     2        0.9000000       -0.28209514    0.00000000
                                                     2        1.5000000       -0.72686737    0.00000000
                                      P - G
                                                     0        0.0000010       -0.01465594    0.00000000
                                                     2        0.1200000        0.07908409    0.00000000
                                                     2        0.1800000       -0.30615861    0.00000000
                                                     2        0.2600000        0.41506950    0.00000000
                                                     2        0.5000000       -0.36252345    0.00000000
                                                     2        0.9000000        0.15124193    0.00000000
                                                     2        3.0000000       -0.80425677    0.00000000
                                      D - G
                                                     0        0.0000010        0.01149631    0.00000000
                                                     2        0.1200000       -0.04713561    0.00000000
                                                     2        0.1600000        0.10865096    0.00000000
                                                     2        0.2800000       -0.15816701    0.00000000
                                                     2        0.7000000        0.65478804    0.00000000
                                                     2        1.3000000       -1.73816624    0.00000000
                                      F - G
                                                     0        0.0000010        0.00481868    0.00000000
                                                     2        0.1200000       -0.04746842    0.00000000
                                                     2        0.1600000        0.09327889    0.00000000
                                                     2        0.4000000       -0.19693326    0.00000000
                                                     2        0.9000000        0.34938253    0.00000000
    6          1            1
                                      F and up 
                                                     0        0.0000010       -0.00000699    0.00000000
                                                     2        0.1200000        0.00123686    0.00000000
                                                     2        0.1800000       -0.00752022    0.00000000
                                                     2        0.2600000        0.02503380    0.00000000
                                                     2        0.4000000       -0.08702670    0.00000000
                                                     2        0.6000000        0.30134159    0.00000000
                                                     2        0.8000000       -0.50204959    0.00000000
                                                     2        1.2000000        0.52208372    0.00000000
                                      S - F
                                                     0        0.0000010       -0.01618346    0.00000000
                                                     2        0.1200000       -0.07880581    0.00000000
                                                     2        0.1600000        0.32040539    0.00000000
                                                     2        0.2400000       -0.47500956    0.00000000
                                                     2        0.5000000        0.54013668    0.00000000
                                                     2        1.5000000       -1.40434292    0.00000000
                                                     2        3.0000000        1.46283806    0.00000000
                                      P - F
                                                     0        0.0000010        0.00612970    0.00000000
                                                     2        0.1200000        0.02254406    0.00000000
                                                     2        0.1800000       -0.13874529    0.00000000
                                                     2        0.3000000        0.38299049    0.00000000
                                                     2        0.5000000       -0.57923512    0.00000000
                                                     2        1.0000000        0.63021625    0.00000000
                                                     2        2.0000000       -0.79201034    0.00000000
                                      D - F
                                                     0        0.0000010       -0.00296226    0.00000000
                                                     2        0.1200000       -0.00547344    0.00000000
                                                     2        0.1400000        0.01837884    0.00000000
                                                     2        0.2400000       -0.05565704    0.00000000
                                                     2        0.4000000        0.15376597    0.00000000
                                                     2        0.8000000       -0.32464795    0.00000000
    7          1            1
                                      F and up 
                                                     0        0.0000010       -0.00000699    0.00000000
                                                     2        0.1200000        0.00123686    0.00000000
                                                     2        0.1800000       -0.00752022    0.00000000
                                                     2        0.2600000        0.02503380    0.00000000
                                                     2        0.4000000       -0.08702670    0.00000000
                                                     2        0.6000000        0.30134159    0.00000000
                                                     2        0.8000000       -0.50204959    0.00000000
                                                     2        1.2000000        0.52208372    0.00000000
                                      S - F
                                                     0        0.0000010       -0.01618346    0.00000000
                                                     2        0.1200000       -0.07880581    0.00000000
                                                     2        0.1600000        0.32040539    0.00000000
                                                     2        0.2400000       -0.47500956    0.00000000
                                                     2        0.5000000        0.54013668    0.00000000
                                                     2        1.5000000       -1.40434292    0.00000000
                                                     2        3.0000000        1.46283806    0.00000000
                                      P - F
                                                     0        0.0000010        0.00612970    0.00000000
                                                     2        0.1200000        0.02254406    0.00000000
                                                     2        0.1800000       -0.13874529    0.00000000
                                                     2        0.3000000        0.38299049    0.00000000
                                                     2        0.5000000       -0.57923512    0.00000000
                                                     2        1.0000000        0.63021625    0.00000000
                                                     2        2.0000000       -0.79201034    0.00000000
                                      D - F
                                                     0        0.0000010       -0.00296226    0.00000000
                                                     2        0.1200000       -0.00547344    0.00000000
                                                     2        0.1400000        0.01837884    0.00000000
                                                     2        0.2400000       -0.05565704    0.00000000
                                                     2        0.4000000        0.15376597    0.00000000
                                                     2        0.8000000       -0.32464795    0.00000000
    8          1            1
                                      F and up 
                                                     0        0.0000010       -0.00000699    0.00000000
                                                     2        0.1200000        0.00123686    0.00000000
                                                     2        0.1800000       -0.00752022    0.00000000
                                                     2        0.2600000        0.02503380    0.00000000
                                                     2        0.4000000       -0.08702670    0.00000000
                                                     2        0.6000000        0.30134159    0.00000000
                                                     2        0.8000000       -0.50204959    0.00000000
                                                     2        1.2000000        0.52208372    0.00000000
                                      S - F
                                                     0        0.0000010       -0.01618346    0.00000000
                                                     2        0.1200000       -0.07880581    0.00000000
                                                     2        0.1600000        0.32040539    0.00000000
                                                     2        0.2400000       -0.47500956    0.00000000
                                                     2        0.5000000        0.54013668    0.00000000
                                                     2        1.5000000       -1.40434292    0.00000000
                                                     2        3.0000000        1.46283806    0.00000000
                                      P - F
                                                     0        0.0000010        0.00612970    0.00000000
                                                     2        0.1200000        0.02254406    0.00000000
                                                     2        0.1800000       -0.13874529    0.00000000
                                                     2        0.3000000        0.38299049    0.00000000
                                                     2        0.5000000       -0.57923512    0.00000000
                                                     2        1.0000000        0.63021625    0.00000000
                                                     2        2.0000000       -0.79201034    0.00000000
                                      D - F
                                                     0        0.0000010       -0.00296226    0.00000000
                                                     2        0.1200000       -0.00547344    0.00000000
                                                     2        0.1400000        0.01837884    0.00000000
                                                     2        0.2400000       -0.05565704    0.00000000
                                                     2        0.4000000        0.15376597    0.00000000
                                                     2        0.8000000       -0.32464795    0.00000000
    9          1            1
                                      F and up 
                                                     0        0.0000010       -0.00000699    0.00000000
                                                     2        0.1200000        0.00123686    0.00000000
                                                     2        0.1800000       -0.00752022    0.00000000
                                                     2        0.2600000        0.02503380    0.00000000
                                                     2        0.4000000       -0.08702670    0.00000000
                                                     2        0.6000000        0.30134159    0.00000000
                                                     2        0.8000000       -0.50204959    0.00000000
                                                     2        1.2000000        0.52208372    0.00000000
                                      S - F
                                                     0        0.0000010       -0.01618346    0.00000000
                                                     2        0.1200000       -0.07880581    0.00000000
                                                     2        0.1600000        0.32040539    0.00000000
                                                     2        0.2400000       -0.47500956    0.00000000
                                                     2        0.5000000        0.54013668    0.00000000
                                                     2        1.5000000       -1.40434292    0.00000000
                                                     2        3.0000000        1.46283806    0.00000000
                                      P - F
                                                     0        0.0000010        0.00612970    0.00000000
                                                     2        0.1200000        0.02254406    0.00000000
                                                     2        0.1800000       -0.13874529    0.00000000
                                                     2        0.3000000        0.38299049    0.00000000
                                                     2        0.5000000       -0.57923512    0.00000000
                                                     2        1.0000000        0.63021625    0.00000000
                                                     2        2.0000000       -0.79201034    0.00000000
                                      D - F
                                                     0        0.0000010       -0.00296226    0.00000000
                                                     2        0.1200000       -0.00547344    0.00000000
                                                     2        0.1400000        0.01837884    0.00000000
                                                     2        0.2400000       -0.05565704    0.00000000
                                                     2        0.4000000        0.15376597    0.00000000
                                                     2        0.8000000       -0.32464795    0.00000000
   10          9            9
                                      G and up 
                                                     0        0.0000010        0.00013061    0.00000000
                                                     2        0.1200000        0.06713281    0.00000000
                                                     2        0.1400000       -0.24167382    0.00000000
                                                     2        0.1800000        0.63223557    0.00000000
                                                     2        0.2200000       -0.82578269    0.00000000
                                                     2        0.3000000        0.62544157    0.00000000
                                                     2        0.5000000       -0.74972011    0.00000000
                                                     2        0.8000000        1.07821461    0.00000000
                                                     2        2.5000000       -1.10703579    0.00000000
                                      S - G
                                                     0        0.0000010        0.01584301    0.00000000
                                                     2        0.1200000        0.08016155    0.00000000
                                                     2        0.1800000       -0.34633115    0.00000000
                                                     2        0.3000000        0.65132194    0.00000000
                                                     2        2.5000000       -2.36634383    0.00000000
                                      P - G
                                                     0        0.0000010        0.01590244    0.00000000
                                                     2        0.1200000       -0.11156199    0.00000000
                                                     2        0.1600000        0.22434929    0.00000000
                                                     2        0.3000000       -0.27751209    0.00000000
                                      D - G
                                                     0        0.0000010       -0.03628923    0.00000000
                                                     2        0.1200000        0.04690238    0.00000000
                                                     2        0.2600000       -0.08720270    0.00000000
                                      F - G
                                                     0        0.0000010        0.01127523    0.00000000
                                                     2        0.1400000       -0.04328550    0.00000000
                                                     2        0.2400000        0.03116441    0.00000000
                                                     2        0.4000000        0.20516616    0.00000000
   11          8            8
                                      G and up 
                                                     0        0.0000010        0.00001165    0.00000000
                                                     2        0.1200000       -0.01744018    0.00000000
                                                     2        0.1400000        0.05401326    0.00000000
                                                     2        0.1800000       -0.08231208    0.00000000
                                                     2        0.2600000        0.11570222    0.00000000
                                                     2        0.4000000       -0.20630360    0.00000000
                                                     2        0.7000000        0.38074319    0.00000000
                                                     2        1.2000000       -0.17045091    0.00000000
                                                     2        2.0000000       -1.45433187    0.00000000
                                      S - G
                                                     0        0.0000010       -0.00117944    0.00000000
                                                     2        0.1400000        0.04368312    0.00000000
                                                     2        0.3000000       -0.33477926    0.00000000
                                                     2        0.6000000        1.52630657    0.00000000
                                                     2        1.5000000       -2.50804716    0.00000000
                                                     2        3.0000000        2.89751681    0.00000000
                                      P - G
                                                     0        0.0000010        0.06576007    0.00000000
                                                     2        0.1200000       -0.10329304    0.00000000
                                                     2        0.2000000        0.24891756    0.00000000
                                                     2        0.4000000       -0.50800022    0.00000000
                                                     2        0.9000000        0.81480796    0.00000000
                                      D - G
                                                     0        0.0000010       -0.14101855    0.00000000
                                                     2        0.1200000        0.22105937    0.00000000
                                                     2        0.1800000       -0.45814988    0.00000000
                                                     2        0.3000000        0.46029282    0.00000000
                                      F - G
                                                     0        0.0000010        0.07483044    0.00000000
                                                     2        0.1200000       -0.09134252    0.00000000
                                                     2        0.1400000        0.04125459    0.00000000
                                                     2        0.3000000        0.37914837    0.00000000
                                                     2        0.5000000       -0.86881279    0.00000000
 ======================================================================================================
   197 basis functions,   345 primitive gaussians,   211 cartesian basis functions
    27 alpha electrons       27 beta electrons
       nuclear repulsion energy       291.1165935369 Hartrees.
 NAtoms=   11 NActive=   11 NUniq=   11 SFac= 1.00D+00 NAtFMM=   60 NAOKFM=F Big=F
   1 Symmetry operations used in ECPInt.
 ECPInt:  NShTT=    3486 NPrTT=   18282 LenC2=    3466 LenP2D=   13460.
 LDataN:  DoStor=T MaxTD1= 6 Len=  172
 Initial guess from the checkpoint file:  "CRBH20_8_mol1.chk"
 B after Tr=    -0.000000    0.000000    0.000000
         Rot=   -0.000000    0.000000    0.000000    1.000000 Ang= 180.00 deg.
 >>>>>>>>>> Convergence criterion not met.
 SCF Done:  E(RHF) =  -419.615798858     A.U. after    2 cycles
            NFock=  1  Conv=0.34D-02     -V/T= 1.9956

 **********************************************************************

            Population analysis using the SCF Density.

 **********************************************************************

 Orbital symmetries:
       Occupied  (A) (A) (A) (A) (A) (A) (A) (A) (A) (A) (A) (A)
                 (A) (A) (A) (A) (A) (A) (A) (A) (A) (A) (A) (A)
                 (A) (A) (A)
       Virtual   (A) (A) (A) (A) (A) (A) (A) (A) (A) (A) (A) (A)
                 (A) (A) (A) (A) (A) (A) (A) (A) (A) (A) (A) (A)
                 (A) (A) (A) (A) (A) (A) (A) (A) (A) (A) (A) (A)
                 (A) (A) (A) (A) (A) (A) (A) (A) (A) (A) (A) (A)
                 (A) (A) (A) (A) (A) (A) (A) (A) (A) (A) (A) (A)
                 (A) (A) (A) (A) (A) (A) (A) (A) (A) (A) (A) (A)
                 (A) (A) (A) (A) (A) (A) (A) (A) (A) (A) (A) (A)
                 (A) (A) (A) (A) (A) (A) (A) (A) (A) (A) (A) (A)
                 (A) (A) (A) (A) (A) (A) (A) (A) (A) (A) (A) (A)
                 (A) (A) (A) (A) (A) (A) (A) (A) (A) (A) (A) (A)
                 (A) (A) (A) (A) (A) (A) (A) (A) (A) (A) (A) (A)
                 (A) (A) (A) (A) (A) (A) (A) (A) (A) (A) (A) (A)
                 (A) (A) (A) (A) (A) (A) (A) (A) (A) (A) (A) (A)
                 (A) (A) (A) (A) (A) (A) (A) (A) (A) (A) (A) (A)
                 (A) (A)
 The electronic state is 1-A.
 Alpha  occ. eigenvalues --  -26.19639 -20.64820 -20.55563 -15.72925 -11.48248
 Alpha  occ. eigenvalues --  -11.37949 -11.27392  -1.74756  -1.44305  -1.35635
 Alpha  occ. eigenvalues --   -1.19307  -0.98462  -0.97203  -0.86042  -0.81004
 Alpha  occ. eigenvalues --   -0.79869  -0.73670  -0.69531  -0.65533  -0.64468
 Alpha  occ. eigenvalues --   -0.62150  -0.60442  -0.58218  -0.55420  -0.53590
 Alpha  occ. eigenvalues --   -0.44699  -0.43657
 Alpha virt. eigenvalues --    0.03300   0.03832   0.05691   0.05813   0.07997
 Alpha virt. eigenvalues --    0.08694   0.09028   0.09542   0.11572   0.12850
 Alpha virt. eigenvalues --    0.13610   0.14300   0.14843   0.15375   0.15856
 Alpha virt. eigenvalues --    0.17597   0.19732   0.19842   0.20707   0.20877
 Alpha virt. eigenvalues --    0.23268   0.24005   0.25136   0.26810   0.27693
 Alpha virt. eigenvalues --    0.28508   0.29547   0.30942   0.31282   0.31642
 Alpha virt. eigenvalues --    0.33165   0.33613   0.35256   0.37328   0.38513
 Alpha virt. eigenvalues --    0.39935   0.40685   0.41324   0.42429   0.43136
 Alpha virt. eigenvalues --    0.44615   0.45367   0.46481   0.47992   0.50730
 Alpha virt. eigenvalues --    0.51250   0.53283   0.54784   0.55342   0.57314
 Alpha virt. eigenvalues --    0.57839   0.58657   0.59364   0.59508   0.63729
 Alpha virt. eigenvalues --    0.65025   0.65634   0.66486   0.67667   0.68602
 Alpha virt. eigenvalues --    0.69888   0.70441   0.72421   0.75533   0.77006
 Alpha virt. eigenvalues --    0.78503   0.80374   0.81086   0.84490   0.85841
 Alpha virt. eigenvalues --    0.88246   0.89860   0.90674   0.93916   0.94868
 Alpha virt. eigenvalues --    0.99028   1.01056   1.02885   1.04540   1.06854
 Alpha virt. eigenvalues --    1.09498   1.11696   1.12537   1.15929   1.16584
 Alpha virt. eigenvalues --    1.18638   1.22520   1.23833   1.28262   1.30993
 Alpha virt. eigenvalues --    1.34007   1.35922   1.37918   1.38870   1.41440
 Alpha virt. eigenvalues --    1.44461   1.46862   1.47655   1.48590   1.51392
 Alpha virt. eigenvalues --    1.54019   1.58616   1.60200   1.62261   1.64658
 Alpha virt. eigenvalues --    1.68020   1.69163   1.71273   1.72767   1.75244
 Alpha virt. eigenvalues --    1.76185   1.80559   1.83450   1.85904   1.87093
 Alpha virt. eigenvalues --    1.87838   1.92294   1.94440   1.95554   1.99488
 Alpha virt. eigenvalues --    2.01919   2.04154   2.07383   2.10600   2.14814
 Alpha virt. eigenvalues --    2.16832   2.17492   2.19471   2.25362   2.25895
 Alpha virt. eigenvalues --    2.30897   2.32646   2.38940   2.42853   2.47890
 Alpha virt. eigenvalues --    2.49277   2.54194   2.60414   2.62860   2.65730
 Alpha virt. eigenvalues --    2.75090   2.77580   2.81860   2.87280   2.88439
 Alpha virt. eigenvalues --    2.89468   2.92268   2.97434   3.03416   3.10965
 Alpha virt. eigenvalues --    3.22761   3.28031   3.35804   3.46780   3.50373
 Alpha virt. eigenvalues --    3.57158   3.59349   3.64210   3.65632   3.66091
 Alpha virt. eigenvalues --    3.74345   3.84763   3.90457   4.00390   4.03720
 Alpha virt. eigenvalues --    4.88915   4.91435   4.96896   4.99178   5.07259
          Condensed to atoms (all electrons):
 Mulliken charges:
               1
     1  C    0.016065
     2  C    0.893982
     3  O   -0.399574
     4  N   -0.138749
     5  C    0.418060
     6  H    0.043733
     7  H   -0.008539
     8  H    0.066060
     9  H   -0.106458
    10  F   -0.250530
    11  O   -0.534050
 Sum of Mulliken charges =  -0.00000
 Mulliken charges with hydrogens summed into heavy atoms:
               1
     1  C    0.016065
     2  C    0.787525
     3  O   -0.399574
     4  N   -0.138749
     5  C    0.519314
    10  F   -0.250530
    11  O   -0.534050
 Electronic spatial extent (au):  <R**2>=            873.4369
 Charge=              0.0000 electrons
 Dipole moment (field-independent basis, Debye):
    X=              1.3260    Y=             -0.4950    Z=              2.2405  Tot=              2.6501

 Test job not archived.
 1\1\GINC-SE292\SP\RHF\Aug-CC-pVDZ\C3H4F1N1O2\OHZDE\09-Apr-2025\0\\#t h
 f aug-cc-pvdz iop(5/13=1,5/36=2,99/5=2) pseudo=read geom=check guess=(
 read,tcheck) scf=(maxcycle=1)\\title\\0,1\C,0,-1.17921,-0.191454,-0.04
 1007\C,0,1.572502,0.031066,0.321914\O,0,1.047661,0.969874,-0.215689\N,
 0,-0.837804,1.04919,0.050219\C,0,-2.743131,0.012823,0.047978\H,0,-3.05
 6507,-0.579077,0.904999\H,0,-3.076466,1.040335,0.161728\H,0,-3.127237,
 -0.398913,-0.882915\H,0,1.211695,-0.5352,1.173465\F,0,2.761455,-0.3759
 81,-0.085654\O,0,-0.652776,-1.295156,-0.148216\\Version=ES64L-G16RevC.
 01\State=1-A\HF=-419.6157989\RMSD=3.399e-03\Dipole=-0.5216966,0.194735
 1,0.8814785\Quadrupole=4.5305103,-5.8507001,1.3201899,-1.2483901,2.286
 2292,-0.5151658\PG=C01 [X(C3H4F1N1O2)]\\@


 MODELS ARE TO BE USED, NOT BELIEVED.

    -- PARAPHRASED BY H. THIEL IN "PRINCIPLES OF ECONOMETRICS"
 Job cpu time:       0 days  0 hours  0 minutes 41.2 seconds.
 Elapsed time:       0 days  0 hours  0 minutes  3.6 seconds.
 File lengths (MBytes):  RWF=     10 Int=      0 D2E=      0 Chk=      6 Scr=      1
 Normal termination of Gaussian 16 at Wed Apr  9 02:15:45 2025.
