 Entering Gaussian System, Link 0=g16
 Input=E2SN2_359_mol2.gjf
 Output=E2SN2_359_mol2.log
 Initial command:
 /arc/software/Gaussian/g16.c01/l1.exe "/tmp/slurm/4859778/Gau-2285156.inp" -scrdir="/tmp/slurm/4859778/"
 Entering Link 1 = /arc/software/Gaussian/g16.c01/l1.exe PID=   2285157.
  
 Copyright (c) 1988-2019, Gaussian, Inc.  All Rights Reserved.
  
 This is part of the Gaussian(R) 16 program.  It is based on
 the Gaussian(R) 09 system (copyright 2009, Gaussian, Inc.),
 the Gaussian(R) 03 system (copyright 2003, Gaussian, Inc.),
 the Gaussian(R) 98 system (copyright 1998, Gaussian, Inc.),
 the Gaussian(R) 94 system (copyright 1995, Gaussian, Inc.),
 the Gaussian 92(TM) system (copyright 1992, Gaussian, Inc.),
 the Gaussian 90(TM) system (copyright 1990, Gaussian, Inc.),
 the Gaussian 88(TM) system (copyright 1988, Gaussian, Inc.),
 the Gaussian 86(TM) system (copyright 1986, Carnegie Mellon
 University), and the Gaussian 82(TM) system (copyright 1983,
 Carnegie Mellon University). Gaussian is a federally registered
 trademark of Gaussian, Inc.
  
 This software contains proprietary and confidential information,
 including trade secrets, belonging to Gaussian, Inc.
  
 This software is provided under written license and may be
 used, copied, transmitted, or stored only in accord with that
 written license.
  
 The following legend is applicable only to US Government
 contracts under FAR:
  
                    RESTRICTED RIGHTS LEGEND
  
 Use, reproduction and disclosure by the US Government is
 subject to restrictions as set forth in subparagraphs (a)
 and (c) of the Commercial Computer Software - Restricted
 Rights clause in FAR 52.227-19.
  
 Gaussian, Inc.
 340 Quinnipiac St., Bldg. 40, Wallingford CT 06492
  
  
 ---------------------------------------------------------------
 Warning -- This program may not be used in any manner that
 competes with the business of Gaussian, Inc. or will provide
 assistance to any competitor of Gaussian, Inc.  The licensee
 of this program is prohibited from giving any competitor of
 Gaussian, Inc. access to this program.  By using this program,
 the user acknowledges that Gaussian, Inc. is engaged in the
 business of creating and licensing software in the field of
 computational chemistry and represents and warrants to the
 licensee that it is not a competitor of Gaussian, Inc. and that
 it will not use this program in any manner prohibited above.
 ---------------------------------------------------------------
  

 Cite this work as:
 Gaussian 16, Revision C.01,
 M. J. Frisch, G. W. Trucks, H. B. Schlegel, G. E. Scuseria, 
 M. A. Robb, J. R. Cheeseman, G. Scalmani, V. Barone, 
 G. A. Petersson, H. Nakatsuji, X. Li, M. Caricato, A. V. Marenich, 
 J. Bloino, B. G. Janesko, R. Gomperts, B. Mennucci, H. P. Hratchian, 
 J. V. Ortiz, A. F. Izmaylov, J. L. Sonnenberg, D. Williams-Young, 
 F. Ding, F. Lipparini, F. Egidi, J. Goings, B. Peng, A. Petrone, 
 T. Henderson, D. Ranasinghe, V. G. Zakrzewski, J. Gao, N. Rega, 
 G. Zheng, W. Liang, M. Hada, M. Ehara, K. Toyota, R. Fukuda, 
 J. Hasegawa, M. Ishida, T. Nakajima, Y. Honda, O. Kitao, H. Nakai, 
 T. Vreven, K. Throssell, J. A. Montgomery, Jr., J. E. Peralta, 
 F. Ogliaro, M. J. Bearpark, J. J. Heyd, E. N. Brothers, K. N. Kudin, 
 V. N. Staroverov, T. A. Keith, R. Kobayashi, J. Normand, 
 K. Raghavachari, A. P. Rendell, J. C. Burant, S. S. Iyengar, 
 J. Tomasi, M. Cossi, J. M. Millam, M. Klene, C. Adamo, R. Cammi, 
 J. W. Ochterski, R. L. Martin, K. Morokuma, O. Farkas, 
 J. B. Foresman, and D. J. Fox, Gaussian, Inc., Wallingford CT, 2019.
 
 ******************************************
 Gaussian 16:  ES64L-G16RevC.01  3-Jul-2019
                 9-Apr-2025 
 ******************************************
 %nprocs=16
 Will use up to   16 processors via shared memory.
 %mem=30GB
 %chk=E2SN2_359_mol2.chk
 ----------------------------------------------------------------------
 #t hf aug-cc-pvdz symm=none int=(grid=ultrafine) guess=(read,tcheck) s
 table=(opt,rrhf)
 ----------------------------------------------------------------------
 -----
 title
 -----
 Symbolic Z-matrix:
 Charge = -1 Multiplicity = 1
 C                    -0.00321   0.00605   0.0092 
 C                    -0.47126  -0.10012  -1.47039 
 F                     1.40666  -0.0847   -0.0044 
 H                    -1.54691  -0.31891  -1.35931 
 C                    -0.40876   1.34365   0.58818 
 H                     0.08255   2.17381   0.07828 
 H                    -0.11915   1.34209   1.64056 
 H                    -1.4968    1.38779   0.49736 
 N                    -0.53269  -1.02298   0.84808 
 H                    -0.34629  -1.91756   0.40516 
 H                    -1.55848  -0.85871   0.74036 
 N                     0.20489  -1.28258  -2.0769 
 O                     1.1332   -1.0989   -2.86832 
 O                    -0.18123  -2.40396  -1.73334 
 C                    -0.20905   1.1232   -2.32292 
 H                    -0.41502   0.90901  -3.37383 
 H                    -0.88086   1.91932  -2.0011 
 H                     0.82668   1.45733  -2.24105 
 F                    -2.87529  -0.11902  -0.07759 
 
                    Distance matrix (angstroms):
                    1          2          3          4          5
     1  C    0.000000
     2  C    1.555479   0.000000
     3  F    1.412845   2.382418   0.000000
     4  H    2.088401   1.103273   3.257936   0.000000
     5  C    1.512904   2.515174   2.384763   2.802179   0.000000
     6  H    2.170559   2.806395   2.619352   3.306875   1.091124
     7  H    2.111825   3.447023   2.658897   3.714383   1.091502
     8  H    2.092443   2.671634   3.293939   2.522408   1.092713
     9  N    1.429329   2.496142   2.316927   2.529216   2.384086
    10  H    1.993680   2.614643   2.569032   2.666555   3.266939
    11  H    1.923868   2.577768   3.153691   2.167981   2.489055
    12  N    2.460825   1.491051   2.678504   2.124235   3.791610
    13  O    3.285182   2.350758   3.050471   3.173083   4.504563
    14  O    2.979308   2.336865   3.299932   2.520403   4.414278
    15  C    2.594060   1.513965   3.073274   2.190453   2.926257
    16  H    3.525590   2.155135   3.957141   2.616723   3.985786
    17  H    2.910699   2.127809   3.638080   2.421809   2.694191
    18  H    2.803308   2.168924   2.777918   3.092955   3.089302
    19  F    2.876116   2.778413   4.282709   1.856707   2.943884
                    6          7          8          9         10
     6  H    0.000000
     7  H    1.781338   0.000000
     8  H    1.813226   1.790786   0.000000
     9  N    3.345237   2.528364   2.619986   0.000000
    10  H    4.126751   3.493299   3.501067   1.015473   0.000000
    11  H    3.511052   2.779487   2.260441   1.044429   1.644055
    12  N    4.075094   4.562171   4.080857   3.027692   2.620616
    13  O    4.527355   5.277955   4.942497   4.073397   3.684395
    14  O    4.930270   5.041824   4.591743   2.948618   2.199320
    15  C    2.637147   3.970535   3.111635   3.842664   4.087475
    16  H    3.710032   5.041746   4.047912   4.644454   4.719636
    17  H    2.305805   3.764984   2.627588   4.110498   4.560424
    18  H    2.538969   3.996845   3.591971   4.188383   4.446139
    19  F    3.745690   3.561354   2.121626   2.676153   3.140638
                   11         12         13         14         15
    11  H    0.000000
    12  N    3.350535   0.000000
    13  O    4.508368   1.233630   0.000000
    14  O    3.225494   1.234759   2.172350   0.000000
    15  C    3.890064   2.453492   2.652696   3.576208   0.000000
    16  H    4.621568   2.620944   2.585380   3.704275   1.092117
    17  H    3.961339   3.381820   3.730698   4.387702   1.090275
    18  H    4.465624   2.814365   2.649853   4.022839   1.091357
    19  F    1.717608   3.852088   4.981596   3.901334   3.700470
                   16         17         18         19
    16  H    0.000000
    17  H    1.766950   0.000000
    18  H    1.767948   1.785128   0.000000
    19  F    4.239692   3.439838   4.568370   0.000000
 Symmetry turned off by external request.
 Rotational constants (GHZ):           1.5781313           1.0449630           0.9697804
   311 basis functions,   529 primitive gaussians,   331 cartesian basis functions
    41 alpha electrons       41 beta electrons
       nuclear repulsion energy       621.7970319491 Hartrees.
 NAtoms=   19 NActive=   19 NUniq=   19 SFac= 1.00D+00 NAtFMM=   60 NAOKFM=F Big=F
 ExpMin= 2.97D-02 ExpMax= 1.47D+04 ExpMxC= 5.03D+02 IAcc=3 IRadAn=         5 AccDes= 0.00D+00
 Harris functional with IExCor=  205 and IRadAn=       5 diagonalized for initial guess.
 HarFok:  IExCor=  205 AccDes= 0.00D+00 IRadAn=         5 IDoV= 1 UseB2=F ITyADJ=14
 ICtDFT=  3500011 ScaDFX=  1.000000  1.000000  1.000000  1.000000
 FoFCou: FMM=F IPFlag=           0 FMFlag=      100000 FMFlg1=           0
         NFxFlg=           0 DoJE=T BraDBF=F KetDBF=T FulRan=T
         wScrn=  0.000000 ICntrl=       500 IOpCl=  0 I1Cent=   200000004 NGrid=           0
         NMat0=    1 NMatS0=      1 NMatT0=    0 NMatD0=    1 NMtDS0=    0 NMtDT0=    0
 Symmetry not used in FoFCou.
 SCF Done:  E(RHF) =  -614.213522662     A.U. after   16 cycles
            NFock= 16  Conv=0.37D-08     -V/T= 2.0012

 **********************************************************************

            Population analysis using the SCF Density.

 **********************************************************************

 Alpha  occ. eigenvalues --  -26.15649 -25.94684 -20.48498 -20.48238 -15.72042
 Alpha  occ. eigenvalues --  -15.38987 -11.21940 -11.15496 -11.11677 -11.08653
 Alpha  occ. eigenvalues --   -1.47226  -1.45709  -1.26532  -1.19868  -1.06340
 Alpha  occ. eigenvalues --   -0.98024  -0.86598  -0.83001  -0.72665  -0.67165
 Alpha  occ. eigenvalues --   -0.62059  -0.60480  -0.59603  -0.55030  -0.53716
 Alpha  occ. eigenvalues --   -0.52048  -0.47251  -0.46236  -0.44532  -0.42622
 Alpha  occ. eigenvalues --   -0.42123  -0.40793  -0.38143  -0.37491  -0.35982
 Alpha  occ. eigenvalues --   -0.34643  -0.32462  -0.28986  -0.28603  -0.28189
 Alpha  occ. eigenvalues --   -0.25151
 Alpha virt. eigenvalues --    0.12667   0.13288   0.14781   0.14925   0.16130
 Alpha virt. eigenvalues --    0.16929   0.18056   0.18527   0.19471   0.20633
 Alpha virt. eigenvalues --    0.21274   0.22727   0.24070   0.24660   0.25471
 Alpha virt. eigenvalues --    0.26019   0.26573   0.27046   0.28142   0.28607
 Alpha virt. eigenvalues --    0.28980   0.30214   0.30697   0.32129   0.32240
 Alpha virt. eigenvalues --    0.33396   0.34753   0.35745   0.37189   0.38291
 Alpha virt. eigenvalues --    0.38853   0.39355   0.40266   0.41401   0.41971
 Alpha virt. eigenvalues --    0.42783   0.44224   0.44614   0.44918   0.45996
 Alpha virt. eigenvalues --    0.46331   0.48207   0.48359   0.48496   0.50434
 Alpha virt. eigenvalues --    0.51629   0.52232   0.52968   0.53698   0.54390
 Alpha virt. eigenvalues --    0.54844   0.55129   0.55290   0.56120   0.57047
 Alpha virt. eigenvalues --    0.58159   0.58437   0.59151   0.59387   0.59941
 Alpha virt. eigenvalues --    0.60974   0.61397   0.62279   0.63040   0.64268
 Alpha virt. eigenvalues --    0.64721   0.65610   0.66476   0.68006   0.68222
 Alpha virt. eigenvalues --    0.69958   0.70846   0.71228   0.71494   0.72560
 Alpha virt. eigenvalues --    0.73040   0.74224   0.74863   0.75644   0.75933
 Alpha virt. eigenvalues --    0.77795   0.78799   0.79496   0.80960   0.81749
 Alpha virt. eigenvalues --    0.82369   0.83868   0.85245   0.85718   0.86921
 Alpha virt. eigenvalues --    0.87737   0.88308   0.89271   0.89581   0.92182
 Alpha virt. eigenvalues --    0.93112   0.93940   0.94216   0.96176   0.97506
 Alpha virt. eigenvalues --    0.99315   1.00268   1.00902   1.01747   1.02721
 Alpha virt. eigenvalues --    1.03482   1.04462   1.05688   1.06099   1.07022
 Alpha virt. eigenvalues --    1.09403   1.11246   1.13106   1.14551   1.17407
 Alpha virt. eigenvalues --    1.17782   1.18191   1.19870   1.21721   1.23044
 Alpha virt. eigenvalues --    1.23918   1.24624   1.26615   1.28516   1.29823
 Alpha virt. eigenvalues --    1.30239   1.32381   1.35293   1.37614   1.39125
 Alpha virt. eigenvalues --    1.40729   1.41190   1.41648   1.42776   1.44331
 Alpha virt. eigenvalues --    1.45409   1.46763   1.49325   1.51893   1.53113
 Alpha virt. eigenvalues --    1.54061   1.55468   1.57510   1.58484   1.59772
 Alpha virt. eigenvalues --    1.62679   1.64859   1.66379   1.67342   1.69326
 Alpha virt. eigenvalues --    1.71148   1.74528   1.75925   1.76392   1.79056
 Alpha virt. eigenvalues --    1.79792   1.82675   1.83288   1.85434   1.87184
 Alpha virt. eigenvalues --    1.88496   1.88611   1.90229   1.93139   1.93705
 Alpha virt. eigenvalues --    1.95971   1.96344   1.99100   2.00072   2.02126
 Alpha virt. eigenvalues --    2.03928   2.05410   2.05558   2.07657   2.09685
 Alpha virt. eigenvalues --    2.10546   2.11907   2.14771   2.15203   2.16494
 Alpha virt. eigenvalues --    2.17823   2.19322   2.20181   2.24048   2.25884
 Alpha virt. eigenvalues --    2.27957   2.30205   2.33033   2.34252   2.35959
 Alpha virt. eigenvalues --    2.37226   2.37708   2.39973   2.41770   2.45993
 Alpha virt. eigenvalues --    2.46469   2.48086   2.49080   2.51456   2.52099
 Alpha virt. eigenvalues --    2.54183   2.55301   2.58146   2.58692   2.60291
 Alpha virt. eigenvalues --    2.61676   2.63814   2.65259   2.67463   2.68898
 Alpha virt. eigenvalues --    2.70162   2.72526   2.74620   2.77041   2.79736
 Alpha virt. eigenvalues --    2.81118   2.82903   2.84983   2.87059   2.88709
 Alpha virt. eigenvalues --    2.91969   2.93472   2.95143   2.98066   2.99709
 Alpha virt. eigenvalues --    3.01382   3.03858   3.05832   3.08104   3.09440
 Alpha virt. eigenvalues --    3.13529   3.17892   3.18349   3.20813   3.24805
 Alpha virt. eigenvalues --    3.28895   3.29440   3.31241   3.36426   3.41863
 Alpha virt. eigenvalues --    3.43943   3.50022   3.59972   3.69742   3.71368
 Alpha virt. eigenvalues --    3.85597   3.86503   3.89038   3.90237   3.94022
 Alpha virt. eigenvalues --    3.97826   4.00551   4.02428   4.09390   4.12655
 Alpha virt. eigenvalues --    4.18002   4.33231   4.35557   4.49732   4.76834
 Alpha virt. eigenvalues --    5.27960   5.32565   5.35076   5.35133   5.36924
 Alpha virt. eigenvalues --    5.38162   5.38738   5.44251   5.49441   5.52254
          Condensed to atoms (all electrons):
 Mulliken charges:
               1
     1  C    0.388438
     2  C    0.606581
     3  F   -0.976541
     4  H   -0.149217
     5  C    0.667411
     6  H    0.014988
     7  H   -0.061486
     8  H    0.121213
     9  N   -0.605828
    10  H    0.024407
    11  H    0.261041
    12  N    0.677495
    13  O   -0.857628
    14  O   -0.902466
    15  C    0.697488
    16  H   -0.054957
    17  H    0.027133
    18  H    0.085671
    19  F   -0.963742
 Sum of Mulliken charges =  -1.00000
 Mulliken charges with hydrogens summed into heavy atoms:
               1
     1  C    0.388438
     2  C    0.457363
     3  F   -0.976541
     5  C    0.742126
     9  N   -0.320379
    12  N    0.677495
    13  O   -0.857628
    14  O   -0.902466
    15  C    0.755335
    19  F   -0.963742
 Electronic spatial extent (au):  <R**2>=           1705.3931
 Charge=             -1.0000 electrons
 Dipole moment (field-independent basis, Debye):
    X=              5.4330    Y=              4.1849    Z=              1.5967  Tot=              7.0413
 NROrb=    311 NOA=    41 NOB=    41 NVA=   270 NVB=   270

 **** Warning!!: The largest alpha MO coefficient is  0.71407792D+02

    12 initial guesses have been made.
 Iteration     1 Dimension    12 NMult     0 NNew     12
 New state      1 was old state      8
 Iteration     2 Dimension    24 NMult    12 NNew     12
 Iteration     3 Dimension    27 NMult    24 NNew      3
 New state      1 was old state      2
 Iteration     4 Dimension    30 NMult    27 NNew      3
 Iteration     5 Dimension    33 NMult    30 NNew      3
 Iteration     6 Dimension    36 NMult    33 NNew      3
 Iteration     7 Dimension    39 NMult    36 NNew      3
 Iteration     8 Dimension    42 NMult    39 NNew      3
 Iteration     9 Dimension    45 NMult    42 NNew      3
 Iteration    10 Dimension    48 NMult    45 NNew      3
 Iteration    11 Dimension    51 NMult    48 NNew      3
 ***********************************************************************
 Stability analysis using <AA,BB:AA,BB> singles matrix:
 ***********************************************************************
 Ground to excited state transition densities written to RWF  633

 Eigenvectors of the stability matrix:
 
 Excited state symmetry could not be determined.
 Eigenvector   1:      Singlet-?Sym  Eigenvalue= 0.1874798  <S**2>=0.000
      28 -> 52         0.11509
      33 -> 52        -0.21579
      35 -> 50        -0.11497
      35 -> 52         0.40254
      36 -> 50         0.10175
      36 -> 52        -0.34617
      41 -> 52        -0.12569
 The wavefunction is stable under the perturbations considered.
 The wavefunction is already stable.

 **********************************************************************

            Population analysis using the SCF Density.

 **********************************************************************

 Alpha  occ. eigenvalues --  -26.15649 -25.94684 -20.48498 -20.48238 -15.72042
 Alpha  occ. eigenvalues --  -15.38987 -11.21940 -11.15496 -11.11677 -11.08653
 Alpha  occ. eigenvalues --   -1.47226  -1.45709  -1.26532  -1.19868  -1.06340
 Alpha  occ. eigenvalues --   -0.98024  -0.86598  -0.83001  -0.72665  -0.67165
 Alpha  occ. eigenvalues --   -0.62059  -0.60480  -0.59603  -0.55030  -0.53716
 Alpha  occ. eigenvalues --   -0.52048  -0.47251  -0.46236  -0.44532  -0.42622
 Alpha  occ. eigenvalues --   -0.42123  -0.40793  -0.38143  -0.37491  -0.35982
 Alpha  occ. eigenvalues --   -0.34643  -0.32462  -0.28986  -0.28603  -0.28189
 Alpha  occ. eigenvalues --   -0.25151
 Alpha virt. eigenvalues --    0.12667   0.13288   0.14781   0.14925   0.16130
 Alpha virt. eigenvalues --    0.16929   0.18056   0.18527   0.19471   0.20633
 Alpha virt. eigenvalues --    0.21274   0.22727   0.24070   0.24660   0.25471
 Alpha virt. eigenvalues --    0.26019   0.26573   0.27046   0.28142   0.28607
 Alpha virt. eigenvalues --    0.28980   0.30214   0.30697   0.32129   0.32240
 Alpha virt. eigenvalues --    0.33396   0.34753   0.35745   0.37189   0.38291
 Alpha virt. eigenvalues --    0.38853   0.39355   0.40266   0.41401   0.41971
 Alpha virt. eigenvalues --    0.42783   0.44224   0.44614   0.44918   0.45996
 Alpha virt. eigenvalues --    0.46331   0.48207   0.48359   0.48496   0.50434
 Alpha virt. eigenvalues --    0.51629   0.52232   0.52968   0.53698   0.54390
 Alpha virt. eigenvalues --    0.54844   0.55129   0.55290   0.56120   0.57047
 Alpha virt. eigenvalues --    0.58159   0.58437   0.59151   0.59387   0.59941
 Alpha virt. eigenvalues --    0.60974   0.61397   0.62279   0.63040   0.64268
 Alpha virt. eigenvalues --    0.64721   0.65610   0.66476   0.68006   0.68222
 Alpha virt. eigenvalues --    0.69958   0.70846   0.71228   0.71494   0.72560
 Alpha virt. eigenvalues --    0.73040   0.74224   0.74863   0.75644   0.75933
 Alpha virt. eigenvalues --    0.77795   0.78799   0.79496   0.80960   0.81749
 Alpha virt. eigenvalues --    0.82369   0.83868   0.85245   0.85718   0.86921
 Alpha virt. eigenvalues --    0.87737   0.88308   0.89271   0.89581   0.92182
 Alpha virt. eigenvalues --    0.93112   0.93940   0.94216   0.96176   0.97506
 Alpha virt. eigenvalues --    0.99315   1.00268   1.00902   1.01747   1.02721
 Alpha virt. eigenvalues --    1.03482   1.04462   1.05688   1.06099   1.07022
 Alpha virt. eigenvalues --    1.09403   1.11246   1.13106   1.14551   1.17407
 Alpha virt. eigenvalues --    1.17782   1.18191   1.19870   1.21721   1.23044
 Alpha virt. eigenvalues --    1.23918   1.24624   1.26615   1.28516   1.29823
 Alpha virt. eigenvalues --    1.30239   1.32381   1.35293   1.37614   1.39125
 Alpha virt. eigenvalues --    1.40729   1.41190   1.41648   1.42776   1.44331
 Alpha virt. eigenvalues --    1.45409   1.46763   1.49325   1.51893   1.53113
 Alpha virt. eigenvalues --    1.54061   1.55468   1.57510   1.58484   1.59772
 Alpha virt. eigenvalues --    1.62679   1.64859   1.66379   1.67342   1.69326
 Alpha virt. eigenvalues --    1.71148   1.74528   1.75925   1.76392   1.79056
 Alpha virt. eigenvalues --    1.79792   1.82675   1.83288   1.85434   1.87184
 Alpha virt. eigenvalues --    1.88496   1.88611   1.90229   1.93139   1.93705
 Alpha virt. eigenvalues --    1.95971   1.96344   1.99100   2.00072   2.02126
 Alpha virt. eigenvalues --    2.03928   2.05410   2.05558   2.07657   2.09685
 Alpha virt. eigenvalues --    2.10546   2.11907   2.14771   2.15203   2.16494
 Alpha virt. eigenvalues --    2.17823   2.19322   2.20181   2.24048   2.25884
 Alpha virt. eigenvalues --    2.27957   2.30205   2.33033   2.34252   2.35959
 Alpha virt. eigenvalues --    2.37226   2.37708   2.39973   2.41770   2.45993
 Alpha virt. eigenvalues --    2.46469   2.48086   2.49080   2.51456   2.52099
 Alpha virt. eigenvalues --    2.54183   2.55301   2.58146   2.58692   2.60291
 Alpha virt. eigenvalues --    2.61676   2.63814   2.65259   2.67463   2.68898
 Alpha virt. eigenvalues --    2.70162   2.72526   2.74620   2.77041   2.79736
 Alpha virt. eigenvalues --    2.81118   2.82903   2.84983   2.87059   2.88709
 Alpha virt. eigenvalues --    2.91969   2.93472   2.95143   2.98066   2.99709
 Alpha virt. eigenvalues --    3.01382   3.03858   3.05832   3.08104   3.09440
 Alpha virt. eigenvalues --    3.13529   3.17892   3.18349   3.20813   3.24805
 Alpha virt. eigenvalues --    3.28895   3.29440   3.31241   3.36426   3.41863
 Alpha virt. eigenvalues --    3.43943   3.50022   3.59972   3.69742   3.71368
 Alpha virt. eigenvalues --    3.85597   3.86503   3.89038   3.90237   3.94022
 Alpha virt. eigenvalues --    3.97826   4.00551   4.02428   4.09390   4.12655
 Alpha virt. eigenvalues --    4.18002   4.33231   4.35557   4.49732   4.76834
 Alpha virt. eigenvalues --    5.27960   5.32565   5.35076   5.35133   5.36924
 Alpha virt. eigenvalues --    5.38162   5.38738   5.44251   5.49441   5.52254
          Condensed to atoms (all electrons):
 Mulliken charges:
               1
     1  C    0.388438
     2  C    0.606581
     3  F   -0.976541
     4  H   -0.149217
     5  C    0.667411
     6  H    0.014988
     7  H   -0.061486
     8  H    0.121213
     9  N   -0.605828
    10  H    0.024407
    11  H    0.261041
    12  N    0.677495
    13  O   -0.857628
    14  O   -0.902466
    15  C    0.697488
    16  H   -0.054957
    17  H    0.027133
    18  H    0.085671
    19  F   -0.963742
 Sum of Mulliken charges =  -1.00000
 Mulliken charges with hydrogens summed into heavy atoms:
               1
     1  C    0.388438
     2  C    0.457363
     3  F   -0.976541
     5  C    0.742126
     9  N   -0.320379
    12  N    0.677495
    13  O   -0.857628
    14  O   -0.902466
    15  C    0.755335
    19  F   -0.963742
 Electronic spatial extent (au):  <R**2>=           1705.3931
 Charge=             -1.0000 electrons
 Dipole moment (field-independent basis, Debye):
    X=              5.4330    Y=              4.1849    Z=              1.5967  Tot=              7.0413
 Unable to Open any file for archive entry.
 1\1\GINC-SE060\Stability\RHF\Aug-CC-pVDZ\C4H9F2N2O2\OHZDE\09-Apr-2025\
 0\\#t hf aug-cc-pvdz symm=none int=(grid=ultrafine) guess=(read,tcheck
 ) stable=(opt,rrhf)\\title\\-1,1\C,0,-0.003207,0.00605,0.009198\C,0,-0
 .471264,-0.100123,-1.470385\F,0,1.406655,-0.084703,-0.004404\H,0,-1.54
 6907,-0.318905,-1.359309\C,0,-0.40876,1.343653,0.588184\H,0,0.082545,2
 .173814,0.078279\H,0,-0.119147,1.342094,1.640562\H,0,-1.496797,1.38778
 9,0.497362\N,0,-0.532688,-1.022982,0.848081\H,0,-0.346293,-1.917557,0.
 405161\H,0,-1.558477,-0.858706,0.740363\N,0,0.204886,-1.282575,-2.0769
 \O,0,1.133197,-1.098896,-2.868319\O,0,-0.181231,-2.403962,-1.733337\C,
 0,-0.209045,1.123202,-2.322915\H,0,-0.415016,0.90901,-3.373828\H,0,-0.
 88086,1.919318,-2.001101\H,0,0.826675,1.457331,-2.24105\F,0,-2.875291,
 -0.119023,-0.07759\\Version=ES64L-G16RevC.01\HF=-614.2135227\RMSD=3.66
 2e-09\Dipole=1.6731258,1.0477362,-1.0268824\Quadrupole=-11.8700106,7.6
 070476,4.262963,0.5478872,3.7643812,-4.8815556\PG=Unknown\\@
 The archive entry for this job was punched.


 PICNIC:  A SNACK IN THE GRASS.
 Job cpu time:       0 days  0 hours 27 minutes 33.4 seconds.
 Elapsed time:       0 days  0 hours  1 minutes 57.1 seconds.
 File lengths (MBytes):  RWF=    465 Int=      0 D2E=      0 Chk=     13 Scr=      1
 Normal termination of Gaussian 16 at Wed Apr  9 02:54:08 2025.
 Initial command:
 /arc/software/Gaussian/g16.c01/l1.exe "/tmp/slurm/4859778/Gau-2285156.inp" -scrdir="/tmp/slurm/4859778/"
 Entering Link 1 = /arc/software/Gaussian/g16.c01/l1.exe PID=   2285758.
  
 Copyright (c) 1988-2019, Gaussian, Inc.  All Rights Reserved.
  
 This is part of the Gaussian(R) 16 program.  It is based on
 the Gaussian(R) 09 system (copyright 2009, Gaussian, Inc.),
 the Gaussian(R) 03 system (copyright 2003, Gaussian, Inc.),
 the Gaussian(R) 98 system (copyright 1998, Gaussian, Inc.),
 the Gaussian(R) 94 system (copyright 1995, Gaussian, Inc.),
 the Gaussian 92(TM) system (copyright 1992, Gaussian, Inc.),
 the Gaussian 90(TM) system (copyright 1990, Gaussian, Inc.),
 the Gaussian 88(TM) system (copyright 1988, Gaussian, Inc.),
 the Gaussian 86(TM) system (copyright 1986, Carnegie Mellon
 University), and the Gaussian 82(TM) system (copyright 1983,
 Carnegie Mellon University). Gaussian is a federally registered
 trademark of Gaussian, Inc.
  
 This software contains proprietary and confidential information,
 including trade secrets, belonging to Gaussian, Inc.
  
 This software is provided under written license and may be
 used, copied, transmitted, or stored only in accord with that
 written license.
  
 The following legend is applicable only to US Government
 contracts under FAR:
  
                    RESTRICTED RIGHTS LEGEND
  
 Use, reproduction and disclosure by the US Government is
 subject to restrictions as set forth in subparagraphs (a)
 and (c) of the Commercial Computer Software - Restricted
 Rights clause in FAR 52.227-19.
  
 Gaussian, Inc.
 340 Quinnipiac St., Bldg. 40, Wallingford CT 06492
  
  
 ---------------------------------------------------------------
 Warning -- This program may not be used in any manner that
 competes with the business of Gaussian, Inc. or will provide
 assistance to any competitor of Gaussian, Inc.  The licensee
 of this program is prohibited from giving any competitor of
 Gaussian, Inc. access to this program.  By using this program,
 the user acknowledges that Gaussian, Inc. is engaged in the
 business of creating and licensing software in the field of
 computational chemistry and represents and warrants to the
 licensee that it is not a competitor of Gaussian, Inc. and that
 it will not use this program in any manner prohibited above.
 ---------------------------------------------------------------
  

 Cite this work as:
 Gaussian 16, Revision C.01,
 M. J. Frisch, G. W. Trucks, H. B. Schlegel, G. E. Scuseria, 
 M. A. Robb, J. R. Cheeseman, G. Scalmani, V. Barone, 
 G. A. Petersson, H. Nakatsuji, X. Li, M. Caricato, A. V. Marenich, 
 J. Bloino, B. G. Janesko, R. Gomperts, B. Mennucci, H. P. Hratchian, 
 J. V. Ortiz, A. F. Izmaylov, J. L. Sonnenberg, D. Williams-Young, 
 F. Ding, F. Lipparini, F. Egidi, J. Goings, B. Peng, A. Petrone, 
 T. Henderson, D. Ranasinghe, V. G. Zakrzewski, J. Gao, N. Rega, 
 G. Zheng, W. Liang, M. Hada, M. Ehara, K. Toyota, R. Fukuda, 
 J. Hasegawa, M. Ishida, T. Nakajima, Y. Honda, O. Kitao, H. Nakai, 
 T. Vreven, K. Throssell, J. A. Montgomery, Jr., J. E. Peralta, 
 F. Ogliaro, M. J. Bearpark, J. J. Heyd, E. N. Brothers, K. N. Kudin, 
 V. N. Staroverov, T. A. Keith, R. Kobayashi, J. Normand, 
 K. Raghavachari, A. P. Rendell, J. C. Burant, S. S. Iyengar, 
 J. Tomasi, M. Cossi, J. M. Millam, M. Klene, C. Adamo, R. Cammi, 
 J. W. Ochterski, R. L. Martin, K. Morokuma, O. Farkas, 
 J. B. Foresman, and D. J. Fox, Gaussian, Inc., Wallingford CT, 2019.
 
 ******************************************
 Gaussian 16:  ES64L-G16RevC.01  3-Jul-2019
                 9-Apr-2025 
 ******************************************
 %nprocs=16
 Will use up to   16 processors via shared memory.
 %mem=30GB
 %chk=E2SN2_359_mol2.chk
 ----------------------------------------------------------------------
 #t hf aug-cc-pvdz iop(5/13=1,5/36=2,99/5=2) pseudo=read geom=check gue
 ss=(read,tcheck) scf=(maxcycle=1)
 ----------------------------------------------------------------------
 -----
 title
 -----
 Structure from the checkpoint file:  "E2SN2_359_mol2.chk"
 Charge = -1 Multiplicity = 1
 Z-Matrix found in chk file.
 C,0,-0.003207,0.00605,0.009198
 C,0,-0.471264,-0.100123,-1.470385
 F,0,1.406655,-0.084703,-0.004404
 H,0,-1.546907,-0.318905,-1.359309
 C,0,-0.40876,1.343653,0.588184
 H,0,0.082545,2.173814,0.078279
 H,0,-0.119147,1.342094,1.640562
 H,0,-1.496797,1.387789,0.497362
 N,0,-0.532688,-1.022982,0.848081
 H,0,-0.346293,-1.917557,0.405161
 H,0,-1.558477,-0.858706,0.740363
 N,0,0.204886,-1.282575,-2.0769
 O,0,1.133197,-1.098896,-2.868319
 O,0,-0.181231,-2.403962,-1.733337
 C,0,-0.209045,1.123202,-2.322915
 H,0,-0.415016,0.90901,-3.373828
 H,0,-0.88086,1.919318,-2.001101
 H,0,0.826675,1.457331,-2.24105
 F,0,-2.875291,-0.119023,-0.07759
 Recover connectivity data from disk.
                    Distance matrix (angstroms):
                    1          2          3          4          5
     1  C    0.000000
     2  C    1.555479   0.000000
     3  F    1.412845   2.382418   0.000000
     4  H    2.088401   1.103273   3.257936   0.000000
     5  C    1.512904   2.515174   2.384763   2.802179   0.000000
     6  H    2.170559   2.806395   2.619352   3.306875   1.091124
     7  H    2.111825   3.447023   2.658897   3.714383   1.091502
     8  H    2.092443   2.671634   3.293939   2.522408   1.092713
     9  N    1.429329   2.496142   2.316927   2.529216   2.384086
    10  H    1.993680   2.614643   2.569032   2.666555   3.266939
    11  H    1.923868   2.577768   3.153691   2.167981   2.489055
    12  N    2.460825   1.491051   2.678504   2.124235   3.791610
    13  O    3.285182   2.350758   3.050471   3.173083   4.504563
    14  O    2.979308   2.336865   3.299932   2.520403   4.414278
    15  C    2.594060   1.513965   3.073274   2.190453   2.926257
    16  H    3.525590   2.155135   3.957141   2.616723   3.985786
    17  H    2.910699   2.127809   3.638080   2.421809   2.694191
    18  H    2.803308   2.168924   2.777918   3.092955   3.089302
    19  F    2.876116   2.778413   4.282709   1.856707   2.943884
                    6          7          8          9         10
     6  H    0.000000
     7  H    1.781338   0.000000
     8  H    1.813226   1.790786   0.000000
     9  N    3.345237   2.528364   2.619986   0.000000
    10  H    4.126751   3.493299   3.501067   1.015473   0.000000
    11  H    3.511052   2.779487   2.260441   1.044429   1.644055
    12  N    4.075094   4.562171   4.080857   3.027692   2.620616
    13  O    4.527355   5.277955   4.942497   4.073397   3.684395
    14  O    4.930270   5.041824   4.591743   2.948618   2.199320
    15  C    2.637147   3.970535   3.111635   3.842664   4.087475
    16  H    3.710032   5.041746   4.047912   4.644454   4.719636
    17  H    2.305805   3.764984   2.627588   4.110498   4.560424
    18  H    2.538969   3.996845   3.591971   4.188383   4.446139
    19  F    3.745690   3.561354   2.121626   2.676153   3.140638
                   11         12         13         14         15
    11  H    0.000000
    12  N    3.350535   0.000000
    13  O    4.508368   1.233630   0.000000
    14  O    3.225494   1.234759   2.172350   0.000000
    15  C    3.890064   2.453492   2.652696   3.576208   0.000000
    16  H    4.621568   2.620944   2.585380   3.704275   1.092117
    17  H    3.961339   3.381820   3.730698   4.387702   1.090275
    18  H    4.465624   2.814365   2.649853   4.022839   1.091357
    19  F    1.717608   3.852088   4.981596   3.901334   3.700470
                   16         17         18         19
    16  H    0.000000
    17  H    1.766950   0.000000
    18  H    1.767948   1.785128   0.000000
    19  F    4.239692   3.439838   4.568370   0.000000
 Framework group  C1[X(C4H9F2N2O2)]
 Deg. of freedom    51
                         Standard orientation:                         
 ---------------------------------------------------------------------
 Center     Atomic      Atomic             Coordinates (Angstroms)
 Number     Number       Type             X           Y           Z
 ---------------------------------------------------------------------
      1          6           0       -0.675926   -0.413012   -0.564708
      2          6           0        0.245347   -0.019190    0.625114
      3          9           0        0.094405   -1.232906   -1.419398
      4          1           0       -0.301148    0.828550    1.072204
      5          6           0       -1.866288   -1.200102   -0.062306
      6          1           0       -1.567131   -2.148494    0.386702
      7          1           0       -2.512372   -1.393114   -0.920618
      8          1           0       -2.373664   -0.546193    0.651133
      9          7           0       -1.162258    0.710130   -1.302959
     10          1           0       -0.367575    1.290704   -1.553156
     11          1           0       -1.673876    1.231768   -0.556653
     12          7           0        1.532099    0.477018    0.058297
     13          8           0        2.531447   -0.243146    0.125458
     14          8           0        1.531214    1.586543   -0.483536
     15          6           0        0.525779   -1.124024    1.621502
     16          1           0        1.301534   -0.816589    2.326064
     17          1           0       -0.386244   -1.320398    2.185730
     18          1           0        0.859015   -2.038050    1.126961
     19          9           0       -2.032425    1.498749    1.101763
 ---------------------------------------------------------------------
 Rotational constants (GHZ):           1.5781313           1.0449630           0.9697804
 ======================================================================================================
                                       Pseudopotential Parameters
 ======================================================================================================
  Center     Atomic      Valence      Angular      Power
  Number     Number     Electrons     Momentum     of R      Exponent        Coefficient   SO-Coeffient
 ======================================================================================================
    1          6            6
                                      G and up 
                                                     0        0.0000010       -0.00011185    0.00000000
                                                     2        0.1200000       -0.02301220    0.00000000
                                                     2        0.1400000        0.13317600    0.00000000
                                                     2        0.1600000       -0.19690668    0.00000000
                                                     2        0.2200000        0.23163694    0.00000000
                                                     2        0.3000000       -0.36920489    0.00000000
                                                     2        0.4000000        0.36389709    0.00000000
                                                     2        0.7000000       -0.38862160    0.00000000
                                                     2        1.3000000        0.80803421    0.00000000
                                      S - G
                                                     0        0.0000010        0.00312304    0.00000000
                                                     2        0.1200000       -0.00632892    0.00000000
                                                     2        0.2200000       -0.03780897    0.00000000
                                                     2        0.4000000        0.26269560    0.00000000
                                                     2        0.9000000       -0.28209514    0.00000000
                                                     2        1.5000000       -0.72686737    0.00000000
                                      P - G
                                                     0        0.0000010       -0.01465594    0.00000000
                                                     2        0.1200000        0.07908409    0.00000000
                                                     2        0.1800000       -0.30615861    0.00000000
                                                     2        0.2600000        0.41506950    0.00000000
                                                     2        0.5000000       -0.36252345    0.00000000
                                                     2        0.9000000        0.15124193    0.00000000
                                                     2        3.0000000       -0.80425677    0.00000000
                                      D - G
                                                     0        0.0000010        0.01149631    0.00000000
                                                     2        0.1200000       -0.04713561    0.00000000
                                                     2        0.1600000        0.10865096    0.00000000
                                                     2        0.2800000       -0.15816701    0.00000000
                                                     2        0.7000000        0.65478804    0.00000000
                                                     2        1.3000000       -1.73816624    0.00000000
                                      F - G
                                                     0        0.0000010        0.00481868    0.00000000
                                                     2        0.1200000       -0.04746842    0.00000000
                                                     2        0.1600000        0.09327889    0.00000000
                                                     2        0.4000000       -0.19693326    0.00000000
                                                     2        0.9000000        0.34938253    0.00000000
    2          6            6
                                      G and up 
                                                     0        0.0000010       -0.00011185    0.00000000
                                                     2        0.1200000       -0.02301220    0.00000000
                                                     2        0.1400000        0.13317600    0.00000000
                                                     2        0.1600000       -0.19690668    0.00000000
                                                     2        0.2200000        0.23163694    0.00000000
                                                     2        0.3000000       -0.36920489    0.00000000
                                                     2        0.4000000        0.36389709    0.00000000
                                                     2        0.7000000       -0.38862160    0.00000000
                                                     2        1.3000000        0.80803421    0.00000000
                                      S - G
                                                     0        0.0000010        0.00312304    0.00000000
                                                     2        0.1200000       -0.00632892    0.00000000
                                                     2        0.2200000       -0.03780897    0.00000000
                                                     2        0.4000000        0.26269560    0.00000000
                                                     2        0.9000000       -0.28209514    0.00000000
                                                     2        1.5000000       -0.72686737    0.00000000
                                      P - G
                                                     0        0.0000010       -0.01465594    0.00000000
                                                     2        0.1200000        0.07908409    0.00000000
                                                     2        0.1800000       -0.30615861    0.00000000
                                                     2        0.2600000        0.41506950    0.00000000
                                                     2        0.5000000       -0.36252345    0.00000000
                                                     2        0.9000000        0.15124193    0.00000000
                                                     2        3.0000000       -0.80425677    0.00000000
                                      D - G
                                                     0        0.0000010        0.01149631    0.00000000
                                                     2        0.1200000       -0.04713561    0.00000000
                                                     2        0.1600000        0.10865096    0.00000000
                                                     2        0.2800000       -0.15816701    0.00000000
                                                     2        0.7000000        0.65478804    0.00000000
                                                     2        1.3000000       -1.73816624    0.00000000
                                      F - G
                                                     0        0.0000010        0.00481868    0.00000000
                                                     2        0.1200000       -0.04746842    0.00000000
                                                     2        0.1600000        0.09327889    0.00000000
                                                     2        0.4000000       -0.19693326    0.00000000
                                                     2        0.9000000        0.34938253    0.00000000
    3          9            9
                                      G and up 
                                                     0        0.0000010        0.00013061    0.00000000
                                                     2        0.1200000        0.06713281    0.00000000
                                                     2        0.1400000       -0.24167382    0.00000000
                                                     2        0.1800000        0.63223557    0.00000000
                                                     2        0.2200000       -0.82578269    0.00000000
                                                     2        0.3000000        0.62544157    0.00000000
                                                     2        0.5000000       -0.74972011    0.00000000
                                                     2        0.8000000        1.07821461    0.00000000
                                                     2        2.5000000       -1.10703579    0.00000000
                                      S - G
                                                     0        0.0000010        0.01584301    0.00000000
                                                     2        0.1200000        0.08016155    0.00000000
                                                     2        0.1800000       -0.34633115    0.00000000
                                                     2        0.3000000        0.65132194    0.00000000
                                                     2        2.5000000       -2.36634383    0.00000000
                                      P - G
                                                     0        0.0000010        0.01590244    0.00000000
                                                     2        0.1200000       -0.11156199    0.00000000
                                                     2        0.1600000        0.22434929    0.00000000
                                                     2        0.3000000       -0.27751209    0.00000000
                                      D - G
                                                     0        0.0000010       -0.03628923    0.00000000
                                                     2        0.1200000        0.04690238    0.00000000
                                                     2        0.2600000       -0.08720270    0.00000000
                                      F - G
                                                     0        0.0000010        0.01127523    0.00000000
                                                     2        0.1400000       -0.04328550    0.00000000
                                                     2        0.2400000        0.03116441    0.00000000
                                                     2        0.4000000        0.20516616    0.00000000
    4          1            1
                                      F and up 
                                                     0        0.0000010       -0.00000699    0.00000000
                                                     2        0.1200000        0.00123686    0.00000000
                                                     2        0.1800000       -0.00752022    0.00000000
                                                     2        0.2600000        0.02503380    0.00000000
                                                     2        0.4000000       -0.08702670    0.00000000
                                                     2        0.6000000        0.30134159    0.00000000
                                                     2        0.8000000       -0.50204959    0.00000000
                                                     2        1.2000000        0.52208372    0.00000000
                                      S - F
                                                     0        0.0000010       -0.01618346    0.00000000
                                                     2        0.1200000       -0.07880581    0.00000000
                                                     2        0.1600000        0.32040539    0.00000000
                                                     2        0.2400000       -0.47500956    0.00000000
                                                     2        0.5000000        0.54013668    0.00000000
                                                     2        1.5000000       -1.40434292    0.00000000
                                                     2        3.0000000        1.46283806    0.00000000
                                      P - F
                                                     0        0.0000010        0.00612970    0.00000000
                                                     2        0.1200000        0.02254406    0.00000000
                                                     2        0.1800000       -0.13874529    0.00000000
                                                     2        0.3000000        0.38299049    0.00000000
                                                     2        0.5000000       -0.57923512    0.00000000
                                                     2        1.0000000        0.63021625    0.00000000
                                                     2        2.0000000       -0.79201034    0.00000000
                                      D - F
                                                     0        0.0000010       -0.00296226    0.00000000
                                                     2        0.1200000       -0.00547344    0.00000000
                                                     2        0.1400000        0.01837884    0.00000000
                                                     2        0.2400000       -0.05565704    0.00000000
                                                     2        0.4000000        0.15376597    0.00000000
                                                     2        0.8000000       -0.32464795    0.00000000
    5          6            6
                                      G and up 
                                                     0        0.0000010       -0.00011185    0.00000000
                                                     2        0.1200000       -0.02301220    0.00000000
                                                     2        0.1400000        0.13317600    0.00000000
                                                     2        0.1600000       -0.19690668    0.00000000
                                                     2        0.2200000        0.23163694    0.00000000
                                                     2        0.3000000       -0.36920489    0.00000000
                                                     2        0.4000000        0.36389709    0.00000000
                                                     2        0.7000000       -0.38862160    0.00000000
                                                     2        1.3000000        0.80803421    0.00000000
                                      S - G
                                                     0        0.0000010        0.00312304    0.00000000
                                                     2        0.1200000       -0.00632892    0.00000000
                                                     2        0.2200000       -0.03780897    0.00000000
                                                     2        0.4000000        0.26269560    0.00000000
                                                     2        0.9000000       -0.28209514    0.00000000
                                                     2        1.5000000       -0.72686737    0.00000000
                                      P - G
                                                     0        0.0000010       -0.01465594    0.00000000
                                                     2        0.1200000        0.07908409    0.00000000
                                                     2        0.1800000       -0.30615861    0.00000000
                                                     2        0.2600000        0.41506950    0.00000000
                                                     2        0.5000000       -0.36252345    0.00000000
                                                     2        0.9000000        0.15124193    0.00000000
                                                     2        3.0000000       -0.80425677    0.00000000
                                      D - G
                                                     0        0.0000010        0.01149631    0.00000000
                                                     2        0.1200000       -0.04713561    0.00000000
                                                     2        0.1600000        0.10865096    0.00000000
                                                     2        0.2800000       -0.15816701    0.00000000
                                                     2        0.7000000        0.65478804    0.00000000
                                                     2        1.3000000       -1.73816624    0.00000000
                                      F - G
                                                     0        0.0000010        0.00481868    0.00000000
                                                     2        0.1200000       -0.04746842    0.00000000
                                                     2        0.1600000        0.09327889    0.00000000
                                                     2        0.4000000       -0.19693326    0.00000000
                                                     2        0.9000000        0.34938253    0.00000000
    6          1            1
                                      F and up 
                                                     0        0.0000010       -0.00000699    0.00000000
                                                     2        0.1200000        0.00123686    0.00000000
                                                     2        0.1800000       -0.00752022    0.00000000
                                                     2        0.2600000        0.02503380    0.00000000
                                                     2        0.4000000       -0.08702670    0.00000000
                                                     2        0.6000000        0.30134159    0.00000000
                                                     2        0.8000000       -0.50204959    0.00000000
                                                     2        1.2000000        0.52208372    0.00000000
                                      S - F
                                                     0        0.0000010       -0.01618346    0.00000000
                                                     2        0.1200000       -0.07880581    0.00000000
                                                     2        0.1600000        0.32040539    0.00000000
                                                     2        0.2400000       -0.47500956    0.00000000
                                                     2        0.5000000        0.54013668    0.00000000
                                                     2        1.5000000       -1.40434292    0.00000000
                                                     2        3.0000000        1.46283806    0.00000000
                                      P - F
                                                     0        0.0000010        0.00612970    0.00000000
                                                     2        0.1200000        0.02254406    0.00000000
                                                     2        0.1800000       -0.13874529    0.00000000
                                                     2        0.3000000        0.38299049    0.00000000
                                                     2        0.5000000       -0.57923512    0.00000000
                                                     2        1.0000000        0.63021625    0.00000000
                                                     2        2.0000000       -0.79201034    0.00000000
                                      D - F
                                                     0        0.0000010       -0.00296226    0.00000000
                                                     2        0.1200000       -0.00547344    0.00000000
                                                     2        0.1400000        0.01837884    0.00000000
                                                     2        0.2400000       -0.05565704    0.00000000
                                                     2        0.4000000        0.15376597    0.00000000
                                                     2        0.8000000       -0.32464795    0.00000000
    7          1            1
                                      F and up 
                                                     0        0.0000010       -0.00000699    0.00000000
                                                     2        0.1200000        0.00123686    0.00000000
                                                     2        0.1800000       -0.00752022    0.00000000
                                                     2        0.2600000        0.02503380    0.00000000
                                                     2        0.4000000       -0.08702670    0.00000000
                                                     2        0.6000000        0.30134159    0.00000000
                                                     2        0.8000000       -0.50204959    0.00000000
                                                     2        1.2000000        0.52208372    0.00000000
                                      S - F
                                                     0        0.0000010       -0.01618346    0.00000000
                                                     2        0.1200000       -0.07880581    0.00000000
                                                     2        0.1600000        0.32040539    0.00000000
                                                     2        0.2400000       -0.47500956    0.00000000
                                                     2        0.5000000        0.54013668    0.00000000
                                                     2        1.5000000       -1.40434292    0.00000000
                                                     2        3.0000000        1.46283806    0.00000000
                                      P - F
                                                     0        0.0000010        0.00612970    0.00000000
                                                     2        0.1200000        0.02254406    0.00000000
                                                     2        0.1800000       -0.13874529    0.00000000
                                                     2        0.3000000        0.38299049    0.00000000
                                                     2        0.5000000       -0.57923512    0.00000000
                                                     2        1.0000000        0.63021625    0.00000000
                                                     2        2.0000000       -0.79201034    0.00000000
                                      D - F
                                                     0        0.0000010       -0.00296226    0.00000000
                                                     2        0.1200000       -0.00547344    0.00000000
                                                     2        0.1400000        0.01837884    0.00000000
                                                     2        0.2400000       -0.05565704    0.00000000
                                                     2        0.4000000        0.15376597    0.00000000
                                                     2        0.8000000       -0.32464795    0.00000000
    8          1            1
                                      F and up 
                                                     0        0.0000010       -0.00000699    0.00000000
                                                     2        0.1200000        0.00123686    0.00000000
                                                     2        0.1800000       -0.00752022    0.00000000
                                                     2        0.2600000        0.02503380    0.00000000
                                                     2        0.4000000       -0.08702670    0.00000000
                                                     2        0.6000000        0.30134159    0.00000000
                                                     2        0.8000000       -0.50204959    0.00000000
                                                     2        1.2000000        0.52208372    0.00000000
                                      S - F
                                                     0        0.0000010       -0.01618346    0.00000000
                                                     2        0.1200000       -0.07880581    0.00000000
                                                     2        0.1600000        0.32040539    0.00000000
                                                     2        0.2400000       -0.47500956    0.00000000
                                                     2        0.5000000        0.54013668    0.00000000
                                                     2        1.5000000       -1.40434292    0.00000000
                                                     2        3.0000000        1.46283806    0.00000000
                                      P - F
                                                     0        0.0000010        0.00612970    0.00000000
                                                     2        0.1200000        0.02254406    0.00000000
                                                     2        0.1800000       -0.13874529    0.00000000
                                                     2        0.3000000        0.38299049    0.00000000
                                                     2        0.5000000       -0.57923512    0.00000000
                                                     2        1.0000000        0.63021625    0.00000000
                                                     2        2.0000000       -0.79201034    0.00000000
                                      D - F
                                                     0        0.0000010       -0.00296226    0.00000000
                                                     2        0.1200000       -0.00547344    0.00000000
                                                     2        0.1400000        0.01837884    0.00000000
                                                     2        0.2400000       -0.05565704    0.00000000
                                                     2        0.4000000        0.15376597    0.00000000
                                                     2        0.8000000       -0.32464795    0.00000000
    9          7            7
                                      G and up 
                                                     0        0.0000010       -0.00000022    0.00000000
                                                     2        0.1200000       -0.00992020    0.00000000
                                                     2        0.1400000        0.02578711    0.00000000
                                                     2        0.2200000       -0.10543517    0.00000000
                                                     2        0.3000000        0.23013665    0.00000000
                                                     2        0.5000000       -0.60834094    0.00000000
                                                     2        0.8000000        1.81436815    0.00000000
                                                     2        1.2000000       -3.87539738    0.00000000
                                                     2        2.0000000        2.94656640    0.00000000
                                      S - G
                                                     0        0.0000010       -0.00223566    0.00000000
                                                     2        0.1200000        0.45247937    0.00000000
                                                     2        0.1600000       -0.78978304    0.00000000
                                                     2        0.4000000        0.84956595    0.00000000
                                                     2        3.0000000       -0.75910174    0.00000000
                                      P - G
                                                     0        0.0000010       -0.25576737    0.00000000
                                                     2        0.1200000       -0.19992277    0.00000000
                                                     2        0.1600000        0.88518512    0.00000000
                                                     2        0.2400000       -1.33293917    0.00000000
                                                     2        0.4000000        1.33451776    0.00000000
                                                     2        0.9000000       -0.55709210    0.00000000
                                                     2        2.5000000        2.48506502    0.00000000
                                      D - G
                                                     0        0.0000010        0.26143746    0.00000000
                                                     2        0.1200000       -0.04492212    0.00000000
                                                     2        0.1400000       -0.18274021    0.00000000
                                                     2        0.2400000        0.53490004    0.00000000
                                                     2        0.4000000       -0.74136473    0.00000000
                                                     2        1.3000000        1.71401021    0.00000000
                                      F - G
                                                     0        0.0000010       -0.07169988    0.00000000
                                                     2        0.1200000        0.04480029    0.00000000
                                                     2        0.2600000       -0.08050831    0.00000000
                                                     2        0.5000000        0.31290809    0.00000000
                                                     2        1.0000000       -0.45253098    0.00000000
   10          1            1
                                      F and up 
                                                     0        0.0000010       -0.00000699    0.00000000
                                                     2        0.1200000        0.00123686    0.00000000
                                                     2        0.1800000       -0.00752022    0.00000000
                                                     2        0.2600000        0.02503380    0.00000000
                                                     2        0.4000000       -0.08702670    0.00000000
                                                     2        0.6000000        0.30134159    0.00000000
                                                     2        0.8000000       -0.50204959    0.00000000
                                                     2        1.2000000        0.52208372    0.00000000
                                      S - F
                                                     0        0.0000010       -0.01618346    0.00000000
                                                     2        0.1200000       -0.07880581    0.00000000
                                                     2        0.1600000        0.32040539    0.00000000
                                                     2        0.2400000       -0.47500956    0.00000000
                                                     2        0.5000000        0.54013668    0.00000000
                                                     2        1.5000000       -1.40434292    0.00000000
                                                     2        3.0000000        1.46283806    0.00000000
                                      P - F
                                                     0        0.0000010        0.00612970    0.00000000
                                                     2        0.1200000        0.02254406    0.00000000
                                                     2        0.1800000       -0.13874529    0.00000000
                                                     2        0.3000000        0.38299049    0.00000000
                                                     2        0.5000000       -0.57923512    0.00000000
                                                     2        1.0000000        0.63021625    0.00000000
                                                     2        2.0000000       -0.79201034    0.00000000
                                      D - F
                                                     0        0.0000010       -0.00296226    0.00000000
                                                     2        0.1200000       -0.00547344    0.00000000
                                                     2        0.1400000        0.01837884    0.00000000
                                                     2        0.2400000       -0.05565704    0.00000000
                                                     2        0.4000000        0.15376597    0.00000000
                                                     2        0.8000000       -0.32464795    0.00000000
   11          1            1
                                      F and up 
                                                     0        0.0000010       -0.00000699    0.00000000
                                                     2        0.1200000        0.00123686    0.00000000
                                                     2        0.1800000       -0.00752022    0.00000000
                                                     2        0.2600000        0.02503380    0.00000000
                                                     2        0.4000000       -0.08702670    0.00000000
                                                     2        0.6000000        0.30134159    0.00000000
                                                     2        0.8000000       -0.50204959    0.00000000
                                                     2        1.2000000        0.52208372    0.00000000
                                      S - F
                                                     0        0.0000010       -0.01618346    0.00000000
                                                     2        0.1200000       -0.07880581    0.00000000
                                                     2        0.1600000        0.32040539    0.00000000
                                                     2        0.2400000       -0.47500956    0.00000000
                                                     2        0.5000000        0.54013668    0.00000000
                                                     2        1.5000000       -1.40434292    0.00000000
                                                     2        3.0000000        1.46283806    0.00000000
                                      P - F
                                                     0        0.0000010        0.00612970    0.00000000
                                                     2        0.1200000        0.02254406    0.00000000
                                                     2        0.1800000       -0.13874529    0.00000000
                                                     2        0.3000000        0.38299049    0.00000000
                                                     2        0.5000000       -0.57923512    0.00000000
                                                     2        1.0000000        0.63021625    0.00000000
                                                     2        2.0000000       -0.79201034    0.00000000
                                      D - F
                                                     0        0.0000010       -0.00296226    0.00000000
                                                     2        0.1200000       -0.00547344    0.00000000
                                                     2        0.1400000        0.01837884    0.00000000
                                                     2        0.2400000       -0.05565704    0.00000000
                                                     2        0.4000000        0.15376597    0.00000000
                                                     2        0.8000000       -0.32464795    0.00000000
   12          7            7
                                      G and up 
                                                     0        0.0000010       -0.00000022    0.00000000
                                                     2        0.1200000       -0.00992020    0.00000000
                                                     2        0.1400000        0.02578711    0.00000000
                                                     2        0.2200000       -0.10543517    0.00000000
                                                     2        0.3000000        0.23013665    0.00000000
                                                     2        0.5000000       -0.60834094    0.00000000
                                                     2        0.8000000        1.81436815    0.00000000
                                                     2        1.2000000       -3.87539738    0.00000000
                                                     2        2.0000000        2.94656640    0.00000000
                                      S - G
                                                     0        0.0000010       -0.00223566    0.00000000
                                                     2        0.1200000        0.45247937    0.00000000
                                                     2        0.1600000       -0.78978304    0.00000000
                                                     2        0.4000000        0.84956595    0.00000000
                                                     2        3.0000000       -0.75910174    0.00000000
                                      P - G
                                                     0        0.0000010       -0.25576737    0.00000000
                                                     2        0.1200000       -0.19992277    0.00000000
                                                     2        0.1600000        0.88518512    0.00000000
                                                     2        0.2400000       -1.33293917    0.00000000
                                                     2        0.4000000        1.33451776    0.00000000
                                                     2        0.9000000       -0.55709210    0.00000000
                                                     2        2.5000000        2.48506502    0.00000000
                                      D - G
                                                     0        0.0000010        0.26143746    0.00000000
                                                     2        0.1200000       -0.04492212    0.00000000
                                                     2        0.1400000       -0.18274021    0.00000000
                                                     2        0.2400000        0.53490004    0.00000000
                                                     2        0.4000000       -0.74136473    0.00000000
                                                     2        1.3000000        1.71401021    0.00000000
                                      F - G
                                                     0        0.0000010       -0.07169988    0.00000000
                                                     2        0.1200000        0.04480029    0.00000000
                                                     2        0.2600000       -0.08050831    0.00000000
                                                     2        0.5000000        0.31290809    0.00000000
                                                     2        1.0000000       -0.45253098    0.00000000
   13          8            8
                                      G and up 
                                                     0        0.0000010        0.00001165    0.00000000
                                                     2        0.1200000       -0.01744018    0.00000000
                                                     2        0.1400000        0.05401326    0.00000000
                                                     2        0.1800000       -0.08231208    0.00000000
                                                     2        0.2600000        0.11570222    0.00000000
                                                     2        0.4000000       -0.20630360    0.00000000
                                                     2        0.7000000        0.38074319    0.00000000
                                                     2        1.2000000       -0.17045091    0.00000000
                                                     2        2.0000000       -1.45433187    0.00000000
                                      S - G
                                                     0        0.0000010       -0.00117944    0.00000000
                                                     2        0.1400000        0.04368312    0.00000000
                                                     2        0.3000000       -0.33477926    0.00000000
                                                     2        0.6000000        1.52630657    0.00000000
                                                     2        1.5000000       -2.50804716    0.00000000
                                                     2        3.0000000        2.89751681    0.00000000
                                      P - G
                                                     0        0.0000010        0.06576007    0.00000000
                                                     2        0.1200000       -0.10329304    0.00000000
                                                     2        0.2000000        0.24891756    0.00000000
                                                     2        0.4000000       -0.50800022    0.00000000
                                                     2        0.9000000        0.81480796    0.00000000
                                      D - G
                                                     0        0.0000010       -0.14101855    0.00000000
                                                     2        0.1200000        0.22105937    0.00000000
                                                     2        0.1800000       -0.45814988    0.00000000
                                                     2        0.3000000        0.46029282    0.00000000
                                      F - G
                                                     0        0.0000010        0.07483044    0.00000000
                                                     2        0.1200000       -0.09134252    0.00000000
                                                     2        0.1400000        0.04125459    0.00000000
                                                     2        0.3000000        0.37914837    0.00000000
                                                     2        0.5000000       -0.86881279    0.00000000
   14          8            8
                                      G and up 
                                                     0        0.0000010        0.00001165    0.00000000
                                                     2        0.1200000       -0.01744018    0.00000000
                                                     2        0.1400000        0.05401326    0.00000000
                                                     2        0.1800000       -0.08231208    0.00000000
                                                     2        0.2600000        0.11570222    0.00000000
                                                     2        0.4000000       -0.20630360    0.00000000
                                                     2        0.7000000        0.38074319    0.00000000
                                                     2        1.2000000       -0.17045091    0.00000000
                                                     2        2.0000000       -1.45433187    0.00000000
                                      S - G
                                                     0        0.0000010       -0.00117944    0.00000000
                                                     2        0.1400000        0.04368312    0.00000000
                                                     2        0.3000000       -0.33477926    0.00000000
                                                     2        0.6000000        1.52630657    0.00000000
                                                     2        1.5000000       -2.50804716    0.00000000
                                                     2        3.0000000        2.89751681    0.00000000
                                      P - G
                                                     0        0.0000010        0.06576007    0.00000000
                                                     2        0.1200000       -0.10329304    0.00000000
[...]
                                                     2        0.2400000       -0.05565704    0.00000000
                                                     2        0.4000000        0.15376597    0.00000000
                                                     2        0.8000000       -0.32464795    0.00000000
   17          1            1
                                      F and up 
                                                     0        0.0000010       -0.00000699    0.00000000
                                                     2        0.1200000        0.00123686    0.00000000
                                                     2        0.1800000       -0.00752022    0.00000000
                                                     2        0.2600000        0.02503380    0.00000000
                                                     2        0.4000000       -0.08702670    0.00000000
                                                     2        0.6000000        0.30134159    0.00000000
                                                     2        0.8000000       -0.50204959    0.00000000
                                                     2        1.2000000        0.52208372    0.00000000
                                      S - F
                                                     0        0.0000010       -0.01618346    0.00000000
                                                     2        0.1200000       -0.07880581    0.00000000
                                                     2        0.1600000        0.32040539    0.00000000
                                                     2        0.2400000       -0.47500956    0.00000000
                                                     2        0.5000000        0.54013668    0.00000000
                                                     2        1.5000000       -1.40434292    0.00000000
                                                     2        3.0000000        1.46283806    0.00000000
                                      P - F
                                                     0        0.0000010        0.00612970    0.00000000
                                                     2        0.1200000        0.02254406    0.00000000
                                                     2        0.1800000       -0.13874529    0.00000000
                                                     2        0.3000000        0.38299049    0.00000000
                                                     2        0.5000000       -0.57923512    0.00000000
                                                     2        1.0000000        0.63021625    0.00000000
                                                     2        2.0000000       -0.79201034    0.00000000
                                      D - F
                                                     0        0.0000010       -0.00296226    0.00000000
                                                     2        0.1200000       -0.00547344    0.00000000
                                                     2        0.1400000        0.01837884    0.00000000
                                                     2        0.2400000       -0.05565704    0.00000000
                                                     2        0.4000000        0.15376597    0.00000000
                                                     2        0.8000000       -0.32464795    0.00000000
   18          1            1
                                      F and up 
                                                     0        0.0000010       -0.00000699    0.00000000
                                                     2        0.1200000        0.00123686    0.00000000
                                                     2        0.1800000       -0.00752022    0.00000000
                                                     2        0.2600000        0.02503380    0.00000000
                                                     2        0.4000000       -0.08702670    0.00000000
                                                     2        0.6000000        0.30134159    0.00000000
                                                     2        0.8000000       -0.50204959    0.00000000
                                                     2        1.2000000        0.52208372    0.00000000
                                      S - F
                                                     0        0.0000010       -0.01618346    0.00000000
                                                     2        0.1200000       -0.07880581    0.00000000
                                                     2        0.1600000        0.32040539    0.00000000
                                                     2        0.2400000       -0.47500956    0.00000000
                                                     2        0.5000000        0.54013668    0.00000000
                                                     2        1.5000000       -1.40434292    0.00000000
                                                     2        3.0000000        1.46283806    0.00000000
                                      P - F
                                                     0        0.0000010        0.00612970    0.00000000
                                                     2        0.1200000        0.02254406    0.00000000
                                                     2        0.1800000       -0.13874529    0.00000000
                                                     2        0.3000000        0.38299049    0.00000000
                                                     2        0.5000000       -0.57923512    0.00000000
                                                     2        1.0000000        0.63021625    0.00000000
                                                     2        2.0000000       -0.79201034    0.00000000
                                      D - F
                                                     0        0.0000010       -0.00296226    0.00000000
                                                     2        0.1200000       -0.00547344    0.00000000
                                                     2        0.1400000        0.01837884    0.00000000
                                                     2        0.2400000       -0.05565704    0.00000000
                                                     2        0.4000000        0.15376597    0.00000000
                                                     2        0.8000000       -0.32464795    0.00000000
   19          9            9
                                      G and up 
                                                     0        0.0000010        0.00013061    0.00000000
                                                     2        0.1200000        0.06713281    0.00000000
                                                     2        0.1400000       -0.24167382    0.00000000
                                                     2        0.1800000        0.63223557    0.00000000
                                                     2        0.2200000       -0.82578269    0.00000000
                                                     2        0.3000000        0.62544157    0.00000000
                                                     2        0.5000000       -0.74972011    0.00000000
                                                     2        0.8000000        1.07821461    0.00000000
                                                     2        2.5000000       -1.10703579    0.00000000
                                      S - G
                                                     0        0.0000010        0.01584301    0.00000000
                                                     2        0.1200000        0.08016155    0.00000000
                                                     2        0.1800000       -0.34633115    0.00000000
                                                     2        0.3000000        0.65132194    0.00000000
                                                     2        2.5000000       -2.36634383    0.00000000
                                      P - G
                                                     0        0.0000010        0.01590244    0.00000000
                                                     2        0.1200000       -0.11156199    0.00000000
                                                     2        0.1600000        0.22434929    0.00000000
                                                     2        0.3000000       -0.27751209    0.00000000
                                      D - G
                                                     0        0.0000010       -0.03628923    0.00000000
                                                     2        0.1200000        0.04690238    0.00000000
                                                     2        0.2600000       -0.08720270    0.00000000
                                      F - G
                                                     0        0.0000010        0.01127523    0.00000000
                                                     2        0.1400000       -0.04328550    0.00000000
                                                     2        0.2400000        0.03116441    0.00000000
                                                     2        0.4000000        0.20516616    0.00000000
 ======================================================================================================
   311 basis functions,   529 primitive gaussians,   331 cartesian basis functions
    41 alpha electrons       41 beta electrons
       nuclear repulsion energy       621.7970319491 Hartrees.
 NAtoms=   19 NActive=   19 NUniq=   19 SFac= 1.00D+00 NAtFMM=   60 NAOKFM=F Big=F
   1 Symmetry operations used in ECPInt.
 ECPInt:  NShTT=    9180 NPrTT=   43548 LenC2=    9139 LenP2D=   32153.
 LDataN:  DoStor=T MaxTD1= 6 Len=  172
 Initial guess from the checkpoint file:  "E2SN2_359_mol2.chk"
 B after Tr=    -1.256415   -0.775257   -1.064804
         Rot=   -0.143838    0.857758   -0.302787   -0.389719 Ang= 196.54 deg.
 >>>>>>>>>> Convergence criterion not met.
 SCF Done:  E(RHF) =  -614.403518962     A.U. after    2 cycles
            NFock=  1  Conv=0.78D-02     -V/T= 1.9948

 **********************************************************************

            Population analysis using the SCF Density.

 **********************************************************************

 Orbital symmetries:
       Occupied  (A) (A) (A) (A) (A) (A) (A) (A) (A) (A) (A) (A)
                 (A) (A) (A) (A) (A) (A) (A) (A) (A) (A) (A) (A)
                 (A) (A) (A) (A) (A) (A) (A) (A) (A) (A) (A) (A)
                 (A) (A) (A) (A) (A)
       Virtual   (A) (A) (A) (A) (A) (A) (A) (A) (A) (A) (A) (A)
                 (A) (A) (A) (A) (A) (A) (A) (A) (A) (A) (A) (A)
                 (A) (A) (A) (A) (A) (A) (A) (A) (A) (A) (A) (A)
                 (A) (A) (A) (A) (A) (A) (A) (A) (A) (A) (A) (A)
                 (A) (A) (A) (A) (A) (A) (A) (A) (A) (A) (A) (A)
                 (A) (A) (A) (A) (A) (A) (A) (A) (A) (A) (A) (A)
                 (A) (A) (A) (A) (A) (A) (A) (A) (A) (A) (A) (A)
                 (A) (A) (A) (A) (A) (A) (A) (A) (A) (A) (A) (A)
                 (A) (A) (A) (A) (A) (A) (A) (A) (A) (A) (A) (A)
                 (A) (A) (A) (A) (A) (A) (A) (A) (A) (A) (A) (A)
                 (A) (A) (A) (A) (A) (A) (A) (A) (A) (A) (A) (A)
                 (A) (A) (A) (A) (A) (A) (A) (A) (A) (A) (A) (A)
                 (A) (A) (A) (A) (A) (A) (A) (A) (A) (A) (A) (A)
                 (A) (A) (A) (A) (A) (A) (A) (A) (A) (A) (A) (A)
                 (A) (A) (A) (A) (A) (A) (A) (A) (A) (A) (A) (A)
                 (A) (A) (A) (A) (A) (A) (A) (A) (A) (A) (A) (A)
                 (A) (A) (A) (A) (A) (A) (A) (A) (A) (A) (A) (A)
                 (A) (A) (A) (A) (A) (A) (A) (A) (A) (A) (A) (A)
                 (A) (A) (A) (A) (A) (A) (A) (A) (A) (A) (A) (A)
                 (A) (A) (A) (A) (A) (A) (A) (A) (A) (A) (A) (A)
                 (A) (A) (A) (A) (A) (A) (A) (A) (A) (A) (A) (A)
                 (A) (A) (A) (A) (A) (A) (A) (A) (A) (A) (A) (A)
                 (A) (A) (A) (A) (A) (A)
 The electronic state is 1-A.
 Alpha  occ. eigenvalues --  -25.96925 -25.75907 -20.49018 -20.48757 -15.77915
 Alpha  occ. eigenvalues --  -15.44647 -11.22462 -11.15910 -11.12031 -11.09005
 Alpha  occ. eigenvalues --   -1.50217  -1.40939  -1.24868  -1.22558  -1.04245
 Alpha  occ. eigenvalues --   -0.96342  -0.85912  -0.82266  -0.73157  -0.68818
 Alpha  occ. eigenvalues --   -0.63605  -0.62168  -0.60669  -0.59142  -0.56462
 Alpha  occ. eigenvalues --   -0.54008  -0.48782  -0.47079  -0.46040  -0.43486
 Alpha  occ. eigenvalues --   -0.42739  -0.41712  -0.39503  -0.39162  -0.37569
 Alpha  occ. eigenvalues --   -0.35899  -0.34509  -0.34166  -0.33401  -0.32920
 Alpha  occ. eigenvalues --   -0.25257
 Alpha virt. eigenvalues --    0.12505   0.13166   0.14781   0.14892   0.16020
 Alpha virt. eigenvalues --    0.16890   0.17984   0.18645   0.19339   0.20692
 Alpha virt. eigenvalues --    0.20884   0.22719   0.24068   0.24615   0.25441
 Alpha virt. eigenvalues --    0.25975   0.26548   0.26995   0.28037   0.28636
 Alpha virt. eigenvalues --    0.29055   0.30096   0.30665   0.32074   0.32212
 Alpha virt. eigenvalues --    0.33378   0.34690   0.35789   0.37060   0.38209
 Alpha virt. eigenvalues --    0.38710   0.39240   0.40069   0.41211   0.41831
 Alpha virt. eigenvalues --    0.42713   0.43983   0.44558   0.44816   0.45882
 Alpha virt. eigenvalues --    0.46154   0.48100   0.48161   0.48312   0.50307
 Alpha virt. eigenvalues --    0.51524   0.52047   0.52660   0.53576   0.54013
 Alpha virt. eigenvalues --    0.54717   0.55070   0.55310   0.55679   0.56857
 Alpha virt. eigenvalues --    0.58060   0.58314   0.59018   0.59149   0.59667
 Alpha virt. eigenvalues --    0.60948   0.61231   0.62090   0.62851   0.64137
 Alpha virt. eigenvalues --    0.64556   0.65458   0.66430   0.67904   0.68067
 Alpha virt. eigenvalues --    0.69754   0.70738   0.71087   0.71408   0.72381
 Alpha virt. eigenvalues --    0.72947   0.74134   0.74737   0.75445   0.75881
 Alpha virt. eigenvalues --    0.77686   0.78668   0.79254   0.80849   0.81638
 Alpha virt. eigenvalues --    0.82236   0.83791   0.85115   0.85554   0.86783
 Alpha virt. eigenvalues --    0.87649   0.88171   0.89263   0.89531   0.92147
 Alpha virt. eigenvalues --    0.92943   0.93884   0.94274   0.96115   0.97422
 Alpha virt. eigenvalues --    0.99239   1.00199   1.00833   1.01790   1.02735
 Alpha virt. eigenvalues --    1.03561   1.04252   1.05623   1.06078   1.06908
 Alpha virt. eigenvalues --    1.09417   1.11197   1.13068   1.14266   1.17192
 Alpha virt. eigenvalues --    1.17618   1.18103   1.19626   1.21438   1.22967
 Alpha virt. eigenvalues --    1.23981   1.24635   1.26429   1.28617   1.29501
 Alpha virt. eigenvalues --    1.30129   1.32444   1.35029   1.37678   1.39045
 Alpha virt. eigenvalues --    1.40355   1.41132   1.41505   1.42399   1.43704
 Alpha virt. eigenvalues --    1.44944   1.46597   1.48778   1.51481   1.52923
 Alpha virt. eigenvalues --    1.53813   1.55571   1.57038   1.58014   1.59094
 Alpha virt. eigenvalues --    1.62147   1.64268   1.66021   1.66828   1.68857
 Alpha virt. eigenvalues --    1.70708   1.74056   1.75671   1.76093   1.78759
 Alpha virt. eigenvalues --    1.79611   1.82495   1.82893   1.84891   1.86633
 Alpha virt. eigenvalues --    1.88132   1.88360   1.89851   1.92430   1.93648
 Alpha virt. eigenvalues --    1.95258   1.95548   1.98171   1.99118   2.01508
 Alpha virt. eigenvalues --    2.02271   2.04067   2.04235   2.06928   2.09070
 Alpha virt. eigenvalues --    2.09255   2.11082   2.14102   2.14504   2.15270
 Alpha virt. eigenvalues --    2.16383   2.17627   2.19356   2.22779   2.24339
 Alpha virt. eigenvalues --    2.25884   2.29131   2.31313   2.32532   2.34752
 Alpha virt. eigenvalues --    2.35210   2.36573   2.38809   2.40256   2.44549
 Alpha virt. eigenvalues --    2.45292   2.47575   2.48264   2.50135   2.51112
 Alpha virt. eigenvalues --    2.53152   2.54621   2.57918   2.58629   2.59673
 Alpha virt. eigenvalues --    2.60850   2.63182   2.65753   2.67925   2.69090
 Alpha virt. eigenvalues --    2.70080   2.72787   2.75702   2.79052   2.79529
 Alpha virt. eigenvalues --    2.80030   2.83838   2.85695   2.87895   2.89868
 Alpha virt. eigenvalues --    2.92140   2.93190   2.96150   2.98984   3.00352
 Alpha virt. eigenvalues --    3.03125   3.04113   3.05827   3.07797   3.11432
 Alpha virt. eigenvalues --    3.14598   3.17657   3.18363   3.23354   3.26125
 Alpha virt. eigenvalues --    3.28090   3.30584   3.31977   3.39112   3.43741
 Alpha virt. eigenvalues --    3.45375   3.50357   3.60713   3.65692   3.70590
 Alpha virt. eigenvalues --    3.72835   3.74009   3.77388   3.78150   3.83929
 Alpha virt. eigenvalues --    3.84246   3.91000   3.99233   4.02634   4.04497
 Alpha virt. eigenvalues --    4.17120   4.24155   4.27390   4.48120   4.76568
 Alpha virt. eigenvalues --    5.26095   5.30596   5.33141   5.33494   5.34983
 Alpha virt. eigenvalues --    5.36294   5.36885   5.42473   5.47602   5.50390
          Condensed to atoms (all electrons):
 Mulliken charges:
               1
     1  C   -0.098483
     2  C    0.784400
     3  F   -0.546317
     4  H   -0.167152
     5  C    0.638854
     6  H    0.011556
     7  H   -0.050398
     8  H    0.103781
     9  N   -0.541222
    10  H    0.031674
    11  H    0.226831
    12  N    0.222204
    13  O   -0.616022
    14  O   -0.640137
    15  C    0.539719
    16  H   -0.036391
    17  H    0.028301
    18  H    0.106557
    19  F   -0.997755
 Sum of Mulliken charges =  -1.00000
 Mulliken charges with hydrogens summed into heavy atoms:
               1
     1  C   -0.098483
     2  C    0.617248
     3  F   -0.546317
     5  C    0.703793
     9  N   -0.282717
    12  N    0.222204
    13  O   -0.616022
    14  O   -0.640137
    15  C    0.638186
    19  F   -0.997755
 Electronic spatial extent (au):  <R**2>=           1432.5272
 Charge=             -1.0000 electrons
 Dipole moment (field-independent basis, Debye):
    X=              2.8435    Y=             -4.6834    Z=              0.6907  Tot=              5.5224

 Test job not archived.
 1\1\GINC-SE060\SP\RHF\Aug-CC-pVDZ\C4H9F2N2O2(1-)\OHZDE\09-Apr-2025\0\\
 #t hf aug-cc-pvdz iop(5/13=1,5/36=2,99/5=2) pseudo=read geom=check gue
 ss=(read,tcheck) scf=(maxcycle=1)\\title\\-1,1\C,0,-0.003207,0.00605,0
 .009198\C,0,-0.471264,-0.100123,-1.470385\F,0,1.406655,-0.084703,-0.00
 4404\H,0,-1.546907,-0.318905,-1.359309\C,0,-0.40876,1.343653,0.588184\
 H,0,0.082545,2.173814,0.078279\H,0,-0.119147,1.342094,1.640562\H,0,-1.
 496797,1.387789,0.497362\N,0,-0.532688,-1.022982,0.848081\H,0,-0.34629
 3,-1.917557,0.405161\H,0,-1.558477,-0.858706,0.740363\N,0,0.204886,-1.
 282575,-2.0769\O,0,1.133197,-1.098896,-2.868319\O,0,-0.181231,-2.40396
 2,-1.733337\C,0,-0.209045,1.123202,-2.322915\H,0,-0.415016,0.90901,-3.
 373828\H,0,-0.88086,1.919318,-2.001101\H,0,0.826675,1.457331,-2.24105\
 F,0,-2.875291,-0.119023,-0.07759\\Version=ES64L-G16RevC.01\State=1-A\H
 F=-614.403519\RMSD=7.776e-03\Dipole=1.5794426,1.1040037,-1.0035371\Qua
 drupole=-11.193322,8.3215061,2.8718159,2.3116963,6.9294906,-2.8608425\
 PG=C01 [X(C4H9F2N2O2)]\\@


 WE MIGHT AS WELL ATTEMPT TO INTRODUCE A NEW PLANET 
 INTO THE SOLAR SYSTEM, OR TO ANNIHILATE ONE ALREADYIN EXISTENCE, 
 AS TO CREATE OR DESTROY A PARTICLE OF HYDROGEN.
 ALL THE CHANGES WE CAN PRODUCE CONSIST IN SEPARATING PARTICLES
 THAT ARE IN A STATE OF ... COMBINATION, AND JOINING 
 THOSE THAT WERE PREVIOUSLY AT A DISTANCE.

                                    -- JOHN DALTON, 1810
 Job cpu time:       0 days  0 hours  2 minutes 29.6 seconds.
 Elapsed time:       0 days  0 hours  0 minutes 10.8 seconds.
 File lengths (MBytes):  RWF=     18 Int=      0 D2E=      0 Chk=     13 Scr=      1
 Normal termination of Gaussian 16 at Wed Apr  9 02:54:19 2025.
