 Entering Gaussian System, Link 0=g16
 Input=E2SN2_373_mol1.gjf
 Output=E2SN2_373_mol1.log
 Initial command:
 /arc/software/Gaussian/g16.c01/l1.exe "/tmp/slurm/4859858/Gau-1544195.inp" -scrdir="/tmp/slurm/4859858/"
 Entering Link 1 = /arc/software/Gaussian/g16.c01/l1.exe PID=   1544199.
  
 Copyright (c) 1988-2019, Gaussian, Inc.  All Rights Reserved.
  
 This is part of the Gaussian(R) 16 program.  It is based on
 the Gaussian(R) 09 system (copyright 2009, Gaussian, Inc.),
 the Gaussian(R) 03 system (copyright 2003, Gaussian, Inc.),
 the Gaussian(R) 98 system (copyright 1998, Gaussian, Inc.),
 the Gaussian(R) 94 system (copyright 1995, Gaussian, Inc.),
 the Gaussian 92(TM) system (copyright 1992, Gaussian, Inc.),
 the Gaussian 90(TM) system (copyright 1990, Gaussian, Inc.),
 the Gaussian 88(TM) system (copyright 1988, Gaussian, Inc.),
 the Gaussian 86(TM) system (copyright 1986, Carnegie Mellon
 University), and the Gaussian 82(TM) system (copyright 1983,
 Carnegie Mellon University). Gaussian is a federally registered
 trademark of Gaussian, Inc.
  
 This software contains proprietary and confidential information,
 including trade secrets, belonging to Gaussian, Inc.
  
 This software is provided under written license and may be
 used, copied, transmitted, or stored only in accord with that
 written license.
  
 The following legend is applicable only to US Government
 contracts under FAR:
  
                    RESTRICTED RIGHTS LEGEND
  
 Use, reproduction and disclosure by the US Government is
 subject to restrictions as set forth in subparagraphs (a)
 and (c) of the Commercial Computer Software - Restricted
 Rights clause in FAR 52.227-19.
  
 Gaussian, Inc.
 340 Quinnipiac St., Bldg. 40, Wallingford CT 06492
  
  
 ---------------------------------------------------------------
 Warning -- This program may not be used in any manner that
 competes with the business of Gaussian, Inc. or will provide
 assistance to any competitor of Gaussian, Inc.  The licensee
 of this program is prohibited from giving any competitor of
 Gaussian, Inc. access to this program.  By using this program,
 the user acknowledges that Gaussian, Inc. is engaged in the
 business of creating and licensing software in the field of
 computational chemistry and represents and warrants to the
 licensee that it is not a competitor of Gaussian, Inc. and that
 it will not use this program in any manner prohibited above.
 ---------------------------------------------------------------
  

 Cite this work as:
 Gaussian 16, Revision C.01,
 M. J. Frisch, G. W. Trucks, H. B. Schlegel, G. E. Scuseria, 
 M. A. Robb, J. R. Cheeseman, G. Scalmani, V. Barone, 
 G. A. Petersson, H. Nakatsuji, X. Li, M. Caricato, A. V. Marenich, 
 J. Bloino, B. G. Janesko, R. Gomperts, B. Mennucci, H. P. Hratchian, 
 J. V. Ortiz, A. F. Izmaylov, J. L. Sonnenberg, D. Williams-Young, 
 F. Ding, F. Lipparini, F. Egidi, J. Goings, B. Peng, A. Petrone, 
 T. Henderson, D. Ranasinghe, V. G. Zakrzewski, J. Gao, N. Rega, 
 G. Zheng, W. Liang, M. Hada, M. Ehara, K. Toyota, R. Fukuda, 
 J. Hasegawa, M. Ishida, T. Nakajima, Y. Honda, O. Kitao, H. Nakai, 
 T. Vreven, K. Throssell, J. A. Montgomery, Jr., J. E. Peralta, 
 F. Ogliaro, M. J. Bearpark, J. J. Heyd, E. N. Brothers, K. N. Kudin, 
 V. N. Staroverov, T. A. Keith, R. Kobayashi, J. Normand, 
 K. Raghavachari, A. P. Rendell, J. C. Burant, S. S. Iyengar, 
 J. Tomasi, M. Cossi, J. M. Millam, M. Klene, C. Adamo, R. Cammi, 
 J. W. Ochterski, R. L. Martin, K. Morokuma, O. Farkas, 
 J. B. Foresman, and D. J. Fox, Gaussian, Inc., Wallingford CT, 2019.
 
 ******************************************
 Gaussian 16:  ES64L-G16RevC.01  3-Jul-2019
                 9-Apr-2025 
 ******************************************
 %nprocs=16
 Will use up to   16 processors via shared memory.
 %mem=30GB
 %chk=E2SN2_373_mol1.chk
 ----------------------------------------------------------------------
 #t hf aug-cc-pvdz symm=none int=(grid=ultrafine) guess=(read,tcheck) s
 table=(opt,rrhf)
 ----------------------------------------------------------------------
 -----
 title
 -----
 Symbolic Z-matrix:
 Charge = -1 Multiplicity = 1
 C                     0.72517  -0.04245  -0.03926 
 H                     1.61154   1.86906  -0.29742 
 F                    -1.30847  -0.10003  -0.11104 
 Cl                    2.83707  -0.19029   0.61475 
 C                     0.61383   1.46976  -0.09465 
 H                     0.46524  -0.54117   0.87581 
 N                     0.81405  -0.7097   -1.2764 
 H                    -0.16097  -0.71801  -1.57399 
 H                     1.11329  -1.66227  -1.11 
 C                     0.09435   2.01098   1.23346 
 H                    -0.89425   1.58409   1.39023 
 H                     0.77282   1.69948   2.03124 
 H                     0.0416    3.10287   1.22356 
 C                    -0.23178   1.91097  -1.20957 
 N                    -0.82227   2.3776   -2.11087 
 
                    Distance matrix (angstroms):
                    1          2          3          4          5
     1  C    0.000000
     2  H    2.122773   0.000000
     3  F    2.035723   3.526822   0.000000
     4  Cl   2.215787   2.564157   4.209568   0.000000
     5  C    1.517317   1.093605   2.481883   2.863880   0.000000
     6  H    1.074070   2.915418   2.077144   2.411818   2.237790
     7  N    1.408418   2.871296   2.496972   2.817597   2.487298
     8  H    1.896584   3.385899   1.959306   3.749312   2.752290
     9  H    1.980138   3.657708   3.050154   2.848325   3.330169
    10  C    2.496859   2.159996   2.869132   3.570838   1.525333
    11  H    2.703997   3.034523   2.293833   4.203870   2.119492
    12  H    2.706204   2.480898   3.487025   3.136686   2.144163
    13  H    3.457605   2.510059   3.723222   4.362365   2.175356
    14  C    2.470070   2.057085   2.531822   4.142620   1.467235
    15  N    3.541581   3.077440   3.220916   5.235824   2.636608
                    6          7          8          9         10
     6  H    0.000000
     7  N    2.186798   0.000000
     8  H    2.534744   1.019460   0.000000
     9  H    2.370713   1.012243   1.652467   0.000000
    10  C    2.603636   3.770864   3.923558   4.474683   0.000000
    11  H    2.574794   3.910331   3.824133   4.562920   1.088178
    12  H    2.539710   4.092223   4.440031   4.613531   1.092612
    13  H    3.685026   4.624083   4.739877   5.413004   1.093210
    14  C    3.293573   2.822430   2.655058   3.819316   2.466728
    15  N    4.370024   3.592390   3.210659   4.590062   3.486992
                   11         12         13         14         15
    11  H    0.000000
    12  H    1.789775   0.000000
    13  H    1.791720   1.776662   0.000000
    14  C    2.702720   3.399526   2.723140   0.000000
    15  N    3.590619   4.490120   3.520042   1.174206   0.000000
 Symmetry turned off by external request.
 Rotational constants (GHZ):           2.2986229           1.0592217           0.9796769
   251 basis functions,   459 primitive gaussians,   267 cartesian basis functions
    36 alpha electrons       36 beta electrons
       nuclear repulsion energy       440.9242909652 Hartrees.
 NAtoms=   15 NActive=   15 NUniq=   15 SFac= 1.00D+00 NAtFMM=   60 NAOKFM=F Big=F
 ExpMin= 2.97D-02 ExpMax= 1.28D+05 ExpMxC= 1.24D+03 IAcc=3 IRadAn=         5 AccDes= 0.00D+00
 Harris functional with IExCor=  205 and IRadAn=       5 diagonalized for initial guess.
 HarFok:  IExCor=  205 AccDes= 0.00D+00 IRadAn=         5 IDoV= 1 UseB2=F ITyADJ=14
 ICtDFT=  3500011 ScaDFX=  1.000000  1.000000  1.000000  1.000000
 FoFCou: FMM=F IPFlag=           0 FMFlag=      100000 FMFlg1=           0
         NFxFlg=           0 DoJE=T BraDBF=F KetDBF=T FulRan=T
         wScrn=  0.000000 ICntrl=       500 IOpCl=  0 I1Cent=   200000004 NGrid=           0
         NMat0=    1 NMatS0=      1 NMatT0=    0 NMatD0=    1 NMtDS0=    0 NMtDT0=    0
 Symmetry not used in FoFCou.
 SCF Done:  E(RHF) =  -823.439846931     A.U. after   16 cycles
            NFock= 16  Conv=0.32D-08     -V/T= 2.0006

 **********************************************************************

            Population analysis using the SCF Density.

 **********************************************************************

 Alpha  occ. eigenvalues -- -104.61290 -25.98034 -15.44068 -15.43373 -11.23648
 Alpha  occ. eigenvalues --  -11.15567 -11.15392 -11.10975 -10.33903  -7.80567
 Alpha  occ. eigenvalues --   -7.80440  -7.80428  -1.24215  -1.09575  -1.07000
 Alpha  occ. eigenvalues --   -0.96140  -0.86539  -0.78682  -0.71553  -0.56560
 Alpha  occ. eigenvalues --   -0.56014  -0.53088  -0.49356  -0.44591  -0.41452
 Alpha  occ. eigenvalues --   -0.40853  -0.40236  -0.35127  -0.34017  -0.32716
 Alpha  occ. eigenvalues --   -0.31594  -0.30209  -0.29056  -0.25814  -0.25508
 Alpha  occ. eigenvalues --   -0.24579
 Alpha virt. eigenvalues --    0.12866   0.14040   0.14816   0.15495   0.16596
 Alpha virt. eigenvalues --    0.16861   0.18417   0.20003   0.21244   0.22610
 Alpha virt. eigenvalues --    0.24170   0.24917   0.25429   0.26420   0.26759
 Alpha virt. eigenvalues --    0.27617   0.27910   0.28810   0.29375   0.29780
 Alpha virt. eigenvalues --    0.30559   0.31282   0.31804   0.31923   0.32721
 Alpha virt. eigenvalues --    0.33139   0.33715   0.34600   0.36180   0.37235
 Alpha virt. eigenvalues --    0.37900   0.39867   0.41732   0.42010   0.43138
 Alpha virt. eigenvalues --    0.44584   0.45653   0.46379   0.48467   0.49254
 Alpha virt. eigenvalues --    0.49972   0.50277   0.51705   0.52387   0.53478
 Alpha virt. eigenvalues --    0.53806   0.54976   0.56277   0.56768   0.58176
 Alpha virt. eigenvalues --    0.58919   0.59532   0.60373   0.61383   0.62094
 Alpha virt. eigenvalues --    0.63754   0.64234   0.65286   0.65945   0.66985
 Alpha virt. eigenvalues --    0.68738   0.69250   0.70450   0.71263   0.72636
 Alpha virt. eigenvalues --    0.73311   0.73771   0.75397   0.75822   0.76548
 Alpha virt. eigenvalues --    0.77182   0.77999   0.79573   0.80820   0.81407
 Alpha virt. eigenvalues --    0.81544   0.83489   0.84105   0.84677   0.85668
 Alpha virt. eigenvalues --    0.86837   0.87422   0.90329   0.91736   0.92641
 Alpha virt. eigenvalues --    0.93473   0.93727   0.95099   0.96417   0.97880
 Alpha virt. eigenvalues --    0.99289   1.00800   1.02263   1.02806   1.03468
 Alpha virt. eigenvalues --    1.05299   1.07744   1.08366   1.10402   1.11555
 Alpha virt. eigenvalues --    1.12946   1.13852   1.15302   1.17200   1.19390
 Alpha virt. eigenvalues --    1.19981   1.22197   1.23917   1.25449   1.26965
 Alpha virt. eigenvalues --    1.28321   1.30400   1.31260   1.31772   1.35663
 Alpha virt. eigenvalues --    1.36677   1.38836   1.40536   1.44653   1.46741
 Alpha virt. eigenvalues --    1.50119   1.50500   1.52556   1.54316   1.58752
 Alpha virt. eigenvalues --    1.60238   1.65282   1.66355   1.67444   1.68906
 Alpha virt. eigenvalues --    1.71065   1.71803   1.72879   1.76196   1.76381
 Alpha virt. eigenvalues --    1.78773   1.81489   1.82544   1.85157   1.85692
 Alpha virt. eigenvalues --    1.87998   1.89921   1.92255   1.93510   1.94359
 Alpha virt. eigenvalues --    1.96440   1.97616   1.99793   2.01700   2.02463
 Alpha virt. eigenvalues --    2.03190   2.06462   2.08540   2.10448   2.10769
 Alpha virt. eigenvalues --    2.13966   2.17669   2.20316   2.22690   2.23985
 Alpha virt. eigenvalues --    2.27011   2.27905   2.30367   2.32938   2.33791
 Alpha virt. eigenvalues --    2.37420   2.37725   2.42056   2.45212   2.46975
 Alpha virt. eigenvalues --    2.47778   2.50627   2.51322   2.54455   2.55476
 Alpha virt. eigenvalues --    2.59891   2.63406   2.64532   2.66229   2.67933
 Alpha virt. eigenvalues --    2.69790   2.72072   2.75225   2.77330   2.79802
 Alpha virt. eigenvalues --    2.82476   2.83572   2.85160   2.88364   2.90793
 Alpha virt. eigenvalues --    2.91696   3.00959   3.04827   3.07049   3.12717
 Alpha virt. eigenvalues --    3.13433   3.16178   3.21067   3.26229   3.31676
 Alpha virt. eigenvalues --    3.33187   3.39576   3.40783   3.53045   3.57831
 Alpha virt. eigenvalues --    3.60771   3.66263   3.82404   3.96920   4.17487
 Alpha virt. eigenvalues --    5.32669   5.41153   5.42871   5.45526   5.49407
          Condensed to atoms (all electrons):
 Mulliken charges:
               1
     1  C    0.666730
     2  H   -0.003038
     3  F   -0.871577
     4  Cl  -0.637209
     5  C    0.305328
     6  H   -0.151698
     7  N   -0.488064
     8  H    0.164953
     9  H    0.029679
    10  C    0.643408
    11  H    0.155374
    12  H   -0.011790
    13  H   -0.114541
    14  C   -0.224210
    15  N   -0.463343
 Sum of Mulliken charges =  -1.00000
 Mulliken charges with hydrogens summed into heavy atoms:
               1
     1  C    0.515032
     3  F   -0.871577
     4  Cl  -0.637209
     5  C    0.302290
     7  N   -0.293432
    10  C    0.672450
    14  C   -0.224210
    15  N   -0.463343
 Electronic spatial extent (au):  <R**2>=           1514.1493
 Charge=             -1.0000 electrons
 Dipole moment (field-independent basis, Debye):
    X=             -1.8228    Y=             -2.6178    Z=              2.7670  Tot=              4.2228
 NROrb=    251 NOA=    36 NOB=    36 NVA=   215 NVB=   215

 **** Warning!!: The largest alpha MO coefficient is  0.86275354D+02

    12 initial guesses have been made.
 Iteration     1 Dimension    12 NMult     0 NNew     12
 New state      1 was old state      5
 Iteration     2 Dimension    24 NMult    12 NNew     12
 Iteration     3 Dimension    27 NMult    24 NNew      3
 Iteration     4 Dimension    30 NMult    27 NNew      3
 Iteration     5 Dimension    33 NMult    30 NNew      3
 Iteration     6 Dimension    36 NMult    33 NNew      3
 Iteration     7 Dimension    39 NMult    36 NNew      3
 Iteration     8 Dimension    42 NMult    39 NNew      3
 New state      1 was old state      2
 Iteration     9 Dimension    45 NMult    42 NNew      3
 Iteration    10 Dimension    48 NMult    45 NNew      3
 Iteration    11 Dimension    51 NMult    48 NNew      3
 Iteration    12 Dimension    54 NMult    51 NNew      3
 New state      1 was old state      2
 Iteration    13 Dimension    57 NMult    54 NNew      3
 Iteration    14 Dimension    60 NMult    57 NNew      3
 Iteration    15 Dimension    63 NMult    60 NNew      3
 ***********************************************************************
 Stability analysis using <AA,BB:AA,BB> singles matrix:
 ***********************************************************************
 Ground to excited state transition densities written to RWF  633

 Eigenvectors of the stability matrix:
 
 Excited state symmetry could not be determined.
 Eigenvector   1:      Singlet-?Sym  Eigenvalue= 0.2142153  <S**2>=0.000
      29 -> 62        -0.10289
      31 -> 58         0.10926
      31 -> 59        -0.11100
      31 -> 63        -0.27003
      31 -> 70        -0.12085
      31 -> 71        -0.11207
      32 -> 54        -0.11303
      32 -> 60         0.11562
      32 -> 62        -0.22755
      32 -> 64         0.14326
      32 -> 71         0.10985
 The wavefunction is stable under the perturbations considered.
 The wavefunction is already stable.

 **********************************************************************

            Population analysis using the SCF Density.

 **********************************************************************

 Alpha  occ. eigenvalues -- -104.61290 -25.98034 -15.44068 -15.43373 -11.23648
 Alpha  occ. eigenvalues --  -11.15567 -11.15392 -11.10975 -10.33903  -7.80567
 Alpha  occ. eigenvalues --   -7.80440  -7.80428  -1.24215  -1.09575  -1.07000
 Alpha  occ. eigenvalues --   -0.96140  -0.86539  -0.78682  -0.71553  -0.56560
 Alpha  occ. eigenvalues --   -0.56014  -0.53088  -0.49356  -0.44591  -0.41452
 Alpha  occ. eigenvalues --   -0.40853  -0.40236  -0.35127  -0.34017  -0.32716
 Alpha  occ. eigenvalues --   -0.31594  -0.30209  -0.29056  -0.25814  -0.25508
 Alpha  occ. eigenvalues --   -0.24579
 Alpha virt. eigenvalues --    0.12866   0.14040   0.14816   0.15495   0.16596
 Alpha virt. eigenvalues --    0.16861   0.18417   0.20003   0.21244   0.22610
 Alpha virt. eigenvalues --    0.24170   0.24917   0.25429   0.26420   0.26759
 Alpha virt. eigenvalues --    0.27617   0.27910   0.28810   0.29375   0.29780
 Alpha virt. eigenvalues --    0.30559   0.31282   0.31804   0.31923   0.32721
 Alpha virt. eigenvalues --    0.33139   0.33715   0.34600   0.36180   0.37235
 Alpha virt. eigenvalues --    0.37900   0.39867   0.41732   0.42010   0.43138
 Alpha virt. eigenvalues --    0.44584   0.45653   0.46379   0.48467   0.49254
 Alpha virt. eigenvalues --    0.49972   0.50277   0.51705   0.52387   0.53478
 Alpha virt. eigenvalues --    0.53806   0.54976   0.56277   0.56768   0.58176
 Alpha virt. eigenvalues --    0.58919   0.59532   0.60373   0.61383   0.62094
 Alpha virt. eigenvalues --    0.63754   0.64234   0.65286   0.65945   0.66985
 Alpha virt. eigenvalues --    0.68738   0.69250   0.70450   0.71263   0.72636
 Alpha virt. eigenvalues --    0.73311   0.73771   0.75397   0.75822   0.76548
 Alpha virt. eigenvalues --    0.77182   0.77999   0.79573   0.80820   0.81407
 Alpha virt. eigenvalues --    0.81544   0.83489   0.84105   0.84677   0.85668
 Alpha virt. eigenvalues --    0.86837   0.87422   0.90329   0.91736   0.92641
 Alpha virt. eigenvalues --    0.93473   0.93727   0.95099   0.96417   0.97880
 Alpha virt. eigenvalues --    0.99289   1.00800   1.02263   1.02806   1.03468
 Alpha virt. eigenvalues --    1.05299   1.07744   1.08366   1.10402   1.11555
 Alpha virt. eigenvalues --    1.12946   1.13852   1.15302   1.17200   1.19390
 Alpha virt. eigenvalues --    1.19981   1.22197   1.23917   1.25449   1.26965
 Alpha virt. eigenvalues --    1.28321   1.30400   1.31260   1.31772   1.35663
 Alpha virt. eigenvalues --    1.36677   1.38836   1.40536   1.44653   1.46741
 Alpha virt. eigenvalues --    1.50119   1.50500   1.52556   1.54316   1.58752
 Alpha virt. eigenvalues --    1.60238   1.65282   1.66355   1.67444   1.68906
 Alpha virt. eigenvalues --    1.71065   1.71803   1.72879   1.76196   1.76381
 Alpha virt. eigenvalues --    1.78773   1.81489   1.82544   1.85157   1.85692
 Alpha virt. eigenvalues --    1.87998   1.89921   1.92255   1.93510   1.94359
 Alpha virt. eigenvalues --    1.96440   1.97616   1.99793   2.01700   2.02463
 Alpha virt. eigenvalues --    2.03190   2.06462   2.08540   2.10448   2.10769
 Alpha virt. eigenvalues --    2.13966   2.17669   2.20316   2.22690   2.23985
 Alpha virt. eigenvalues --    2.27011   2.27905   2.30367   2.32938   2.33791
 Alpha virt. eigenvalues --    2.37420   2.37725   2.42056   2.45212   2.46975
 Alpha virt. eigenvalues --    2.47778   2.50627   2.51322   2.54455   2.55476
 Alpha virt. eigenvalues --    2.59891   2.63406   2.64532   2.66229   2.67933
 Alpha virt. eigenvalues --    2.69790   2.72072   2.75225   2.77330   2.79802
 Alpha virt. eigenvalues --    2.82476   2.83572   2.85160   2.88364   2.90793
 Alpha virt. eigenvalues --    2.91696   3.00959   3.04827   3.07049   3.12717
 Alpha virt. eigenvalues --    3.13433   3.16178   3.21067   3.26229   3.31676
 Alpha virt. eigenvalues --    3.33187   3.39576   3.40783   3.53045   3.57831
 Alpha virt. eigenvalues --    3.60771   3.66263   3.82404   3.96920   4.17487
 Alpha virt. eigenvalues --    5.32669   5.41153   5.42871   5.45526   5.49407
          Condensed to atoms (all electrons):
 Mulliken charges:
               1
     1  C    0.666730
     2  H   -0.003038
     3  F   -0.871577
     4  Cl  -0.637209
     5  C    0.305328
     6  H   -0.151698
     7  N   -0.488064
     8  H    0.164953
     9  H    0.029679
    10  C    0.643408
    11  H    0.155374
    12  H   -0.011790
    13  H   -0.114541
    14  C   -0.224210
    15  N   -0.463343
 Sum of Mulliken charges =  -1.00000
 Mulliken charges with hydrogens summed into heavy atoms:
               1
     1  C    0.515032
     3  F   -0.871577
     4  Cl  -0.637209
     5  C    0.302290
     7  N   -0.293432
    10  C    0.672450
    14  C   -0.224210
    15  N   -0.463343
 Electronic spatial extent (au):  <R**2>=           1514.1493
 Charge=             -1.0000 electrons
 Dipole moment (field-independent basis, Debye):
    X=             -1.8228    Y=             -2.6178    Z=              2.7670  Tot=              4.2228
 Unable to Open any file for archive entry.
 1\1\GINC-SE364\Stability\RHF\Aug-CC-pVDZ\C4H7Cl1F1N2\OHZDE\09-Apr-2025
 \0\\#t hf aug-cc-pvdz symm=none int=(grid=ultrafine) guess=(read,tchec
 k) stable=(opt,rrhf)\\title\\-1,1\C,0,0.72517013,-0.04245266,-0.039255
 19\H,0,1.61153761,1.86905627,-0.2974221\F,0,-1.30847158,-0.10002537,-0
 .11104219\Cl,0,2.83707195,-0.1902882,0.61475475\C,0,0.61383179,1.46976
 009,-0.09464925\H,0,0.46523691,-0.54116822,0.87581017\N,0,0.81405363,-
 0.70969546,-1.27640035\H,0,-0.16096907,-0.7180095,-1.57398968\H,0,1.11
 328544,-1.66227405,-1.10999821\C,0,0.09435047,2.01097849,1.23345532\H,
 0,-0.894245,1.58409391,1.39023366\H,0,0.77281718,1.69948197,2.03123564
 \H,0,0.04159502,3.10287041,1.22355837\C,0,-0.23178111,1.91096731,-1.20
 957204\N,0,-0.82227338,2.37759503,-2.1108689\\Version=ES64L-G16RevC.01
 \HF=-823.4398469\RMSD=3.217e-09\Dipole=0.5219548,0.1669685,0.7590953\Q
 uadrupole=-11.8186379,8.2533352,3.5653028,4.2722969,-5.7154153,8.32472
 71\PG=Unknown\\@
 The archive entry for this job was punched.


 EVERY WORD THAT YOU WRITE IS A BLOW THAT SMITES THE DEVIL.
     -- ST. BERNARD OF CLAIRVAUX
 Job cpu time:       0 days  0 hours 13 minutes 45.7 seconds.
 Elapsed time:       0 days  0 hours  0 minutes 57.7 seconds.
 File lengths (MBytes):  RWF=    338 Int=      0 D2E=      0 Chk=      9 Scr=      1
 Normal termination of Gaussian 16 at Wed Apr  9 02:54:17 2025.
 Initial command:
 /arc/software/Gaussian/g16.c01/l1.exe "/tmp/slurm/4859858/Gau-1544195.inp" -scrdir="/tmp/slurm/4859858/"
 Entering Link 1 = /arc/software/Gaussian/g16.c01/l1.exe PID=   1544425.
  
 Copyright (c) 1988-2019, Gaussian, Inc.  All Rights Reserved.
  
 This is part of the Gaussian(R) 16 program.  It is based on
 the Gaussian(R) 09 system (copyright 2009, Gaussian, Inc.),
 the Gaussian(R) 03 system (copyright 2003, Gaussian, Inc.),
 the Gaussian(R) 98 system (copyright 1998, Gaussian, Inc.),
 the Gaussian(R) 94 system (copyright 1995, Gaussian, Inc.),
 the Gaussian 92(TM) system (copyright 1992, Gaussian, Inc.),
 the Gaussian 90(TM) system (copyright 1990, Gaussian, Inc.),
 the Gaussian 88(TM) system (copyright 1988, Gaussian, Inc.),
 the Gaussian 86(TM) system (copyright 1986, Carnegie Mellon
 University), and the Gaussian 82(TM) system (copyright 1983,
 Carnegie Mellon University). Gaussian is a federally registered
 trademark of Gaussian, Inc.
  
 This software contains proprietary and confidential information,
 including trade secrets, belonging to Gaussian, Inc.
  
 This software is provided under written license and may be
 used, copied, transmitted, or stored only in accord with that
 written license.
  
 The following legend is applicable only to US Government
 contracts under FAR:
  
                    RESTRICTED RIGHTS LEGEND
  
 Use, reproduction and disclosure by the US Government is
 subject to restrictions as set forth in subparagraphs (a)
 and (c) of the Commercial Computer Software - Restricted
 Rights clause in FAR 52.227-19.
  
 Gaussian, Inc.
 340 Quinnipiac St., Bldg. 40, Wallingford CT 06492
  
  
 ---------------------------------------------------------------
 Warning -- This program may not be used in any manner that
 competes with the business of Gaussian, Inc. or will provide
 assistance to any competitor of Gaussian, Inc.  The licensee
 of this program is prohibited from giving any competitor of
 Gaussian, Inc. access to this program.  By using this program,
 the user acknowledges that Gaussian, Inc. is engaged in the
 business of creating and licensing software in the field of
 computational chemistry and represents and warrants to the
 licensee that it is not a competitor of Gaussian, Inc. and that
 it will not use this program in any manner prohibited above.
 ---------------------------------------------------------------
  

 Cite this work as:
 Gaussian 16, Revision C.01,
 M. J. Frisch, G. W. Trucks, H. B. Schlegel, G. E. Scuseria, 
 M. A. Robb, J. R. Cheeseman, G. Scalmani, V. Barone, 
 G. A. Petersson, H. Nakatsuji, X. Li, M. Caricato, A. V. Marenich, 
 J. Bloino, B. G. Janesko, R. Gomperts, B. Mennucci, H. P. Hratchian, 
 J. V. Ortiz, A. F. Izmaylov, J. L. Sonnenberg, D. Williams-Young, 
 F. Ding, F. Lipparini, F. Egidi, J. Goings, B. Peng, A. Petrone, 
 T. Henderson, D. Ranasinghe, V. G. Zakrzewski, J. Gao, N. Rega, 
 G. Zheng, W. Liang, M. Hada, M. Ehara, K. Toyota, R. Fukuda, 
 J. Hasegawa, M. Ishida, T. Nakajima, Y. Honda, O. Kitao, H. Nakai, 
 T. Vreven, K. Throssell, J. A. Montgomery, Jr., J. E. Peralta, 
 F. Ogliaro, M. J. Bearpark, J. J. Heyd, E. N. Brothers, K. N. Kudin, 
 V. N. Staroverov, T. A. Keith, R. Kobayashi, J. Normand, 
 K. Raghavachari, A. P. Rendell, J. C. Burant, S. S. Iyengar, 
 J. Tomasi, M. Cossi, J. M. Millam, M. Klene, C. Adamo, R. Cammi, 
 J. W. Ochterski, R. L. Martin, K. Morokuma, O. Farkas, 
 J. B. Foresman, and D. J. Fox, Gaussian, Inc., Wallingford CT, 2019.
 
 ******************************************
 Gaussian 16:  ES64L-G16RevC.01  3-Jul-2019
                 9-Apr-2025 
 ******************************************
 %nprocs=16
 Will use up to   16 processors via shared memory.
 %mem=30GB
 %chk=E2SN2_373_mol1.chk
 ----------------------------------------------------------------------
 #t hf aug-cc-pvdz iop(5/13=1,5/36=2,99/5=2) pseudo=read geom=check gue
 ss=(read,tcheck) scf=(maxcycle=1)
 ----------------------------------------------------------------------
 -----
 title
 -----
 Structure from the checkpoint file:  "E2SN2_373_mol1.chk"
 Charge = -1 Multiplicity = 1
 Z-Matrix found in chk file.
 C,0,0.72517013,-0.04245266,-0.03925519
 H,0,1.61153761,1.86905627,-0.2974221
 F,0,-1.30847158,-0.10002537,-0.11104219
 Cl,0,2.83707195,-0.1902882,0.61475475
 C,0,0.61383179,1.46976009,-0.09464925
 H,0,0.46523691,-0.54116822,0.87581017
 N,0,0.81405363,-0.70969546,-1.27640035
 H,0,-0.16096907,-0.7180095,-1.57398968
 H,0,1.11328544,-1.66227405,-1.10999821
 C,0,0.09435047,2.01097849,1.23345532
 H,0,-0.894245,1.58409391,1.39023366
 H,0,0.77281718,1.69948197,2.03123564
 H,0,0.04159502,3.10287041,1.22355837
 C,0,-0.23178111,1.91096731,-1.20957204
 N,0,-0.82227338,2.37759503,-2.1108689
 Recover connectivity data from disk.
                    Distance matrix (angstroms):
                    1          2          3          4          5
     1  C    0.000000
     2  H    2.122773   0.000000
     3  F    2.035723   3.526822   0.000000
     4  Cl   2.215787   2.564157   4.209568   0.000000
     5  C    1.517317   1.093605   2.481883   2.863880   0.000000
     6  H    1.074070   2.915418   2.077144   2.411818   2.237790
     7  N    1.408418   2.871296   2.496972   2.817597   2.487298
     8  H    1.896584   3.385899   1.959306   3.749312   2.752290
     9  H    1.980138   3.657708   3.050154   2.848325   3.330169
    10  C    2.496859   2.159996   2.869132   3.570838   1.525333
    11  H    2.703997   3.034523   2.293833   4.203870   2.119492
    12  H    2.706204   2.480898   3.487025   3.136686   2.144163
    13  H    3.457605   2.510059   3.723222   4.362365   2.175356
    14  C    2.470070   2.057085   2.531822   4.142620   1.467235
    15  N    3.541581   3.077440   3.220916   5.235824   2.636608
                    6          7          8          9         10
     6  H    0.000000
     7  N    2.186798   0.000000
     8  H    2.534744   1.019460   0.000000
     9  H    2.370713   1.012243   1.652467   0.000000
    10  C    2.603636   3.770864   3.923558   4.474683   0.000000
    11  H    2.574794   3.910331   3.824133   4.562920   1.088178
    12  H    2.539710   4.092223   4.440031   4.613531   1.092612
    13  H    3.685026   4.624083   4.739877   5.413004   1.093210
    14  C    3.293573   2.822430   2.655058   3.819316   2.466728
    15  N    4.370024   3.592390   3.210659   4.590062   3.486992
                   11         12         13         14         15
    11  H    0.000000
    12  H    1.789775   0.000000
    13  H    1.791720   1.776662   0.000000
    14  C    2.702720   3.399526   2.723140   0.000000
    15  N    3.590619   4.490120   3.520042   1.174206   0.000000
 Framework group  C1[X(C4H7ClFN2)]
 Deg. of freedom    39
                         Standard orientation:                         
 ---------------------------------------------------------------------
 Center     Atomic      Atomic             Coordinates (Angstroms)
 Number     Number       Type             X           Y           Z
 ---------------------------------------------------------------------
      1          6           0        0.421633   -0.430977    0.341043
      2          1           0        0.146438    1.058386   -1.146314
      3          9           0       -1.215876   -0.886361    1.461469
      4         17           0        2.429383    0.230170   -0.323440
      5          6           0       -0.396818    0.690276   -0.271477
      6          1           0        0.777431   -0.313392    1.347626
      7          7           0        0.357753   -1.679528   -0.307556
      8          1           0       -0.531726   -2.041622    0.034517
      9          1           0        1.105538   -2.265122    0.042491
     10          6           0       -0.587853    1.818008    0.737664
     11          1           0       -1.127503    1.402369    1.586282
     12          1           0        0.393776    2.179802    1.052800
     13          1           0       -1.145644    2.650757    0.301192
     14          6           0       -1.688795    0.207755   -0.772223
     15          7           0       -2.709746   -0.080073   -1.275783
 ---------------------------------------------------------------------
 Rotational constants (GHZ):           2.2986229           1.0592217           0.9796769
 ======================================================================================================
                                       Pseudopotential Parameters
 ======================================================================================================
  Center     Atomic      Valence      Angular      Power
  Number     Number     Electrons     Momentum     of R      Exponent        Coefficient   SO-Coeffient
 ======================================================================================================
    1          6            6
                                      G and up 
                                                     0        0.0000010       -0.00011185    0.00000000
                                                     2        0.1200000       -0.02301220    0.00000000
                                                     2        0.1400000        0.13317600    0.00000000
                                                     2        0.1600000       -0.19690668    0.00000000
                                                     2        0.2200000        0.23163694    0.00000000
                                                     2        0.3000000       -0.36920489    0.00000000
                                                     2        0.4000000        0.36389709    0.00000000
                                                     2        0.7000000       -0.38862160    0.00000000
                                                     2        1.3000000        0.80803421    0.00000000
                                      S - G
                                                     0        0.0000010        0.00312304    0.00000000
                                                     2        0.1200000       -0.00632892    0.00000000
                                                     2        0.2200000       -0.03780897    0.00000000
                                                     2        0.4000000        0.26269560    0.00000000
                                                     2        0.9000000       -0.28209514    0.00000000
                                                     2        1.5000000       -0.72686737    0.00000000
                                      P - G
                                                     0        0.0000010       -0.01465594    0.00000000
                                                     2        0.1200000        0.07908409    0.00000000
                                                     2        0.1800000       -0.30615861    0.00000000
                                                     2        0.2600000        0.41506950    0.00000000
                                                     2        0.5000000       -0.36252345    0.00000000
                                                     2        0.9000000        0.15124193    0.00000000
                                                     2        3.0000000       -0.80425677    0.00000000
                                      D - G
                                                     0        0.0000010        0.01149631    0.00000000
                                                     2        0.1200000       -0.04713561    0.00000000
                                                     2        0.1600000        0.10865096    0.00000000
                                                     2        0.2800000       -0.15816701    0.00000000
                                                     2        0.7000000        0.65478804    0.00000000
                                                     2        1.3000000       -1.73816624    0.00000000
                                      F - G
                                                     0        0.0000010        0.00481868    0.00000000
                                                     2        0.1200000       -0.04746842    0.00000000
                                                     2        0.1600000        0.09327889    0.00000000
                                                     2        0.4000000       -0.19693326    0.00000000
                                                     2        0.9000000        0.34938253    0.00000000
    2          1            1
                                      F and up 
                                                     0        0.0000010       -0.00000699    0.00000000
                                                     2        0.1200000        0.00123686    0.00000000
                                                     2        0.1800000       -0.00752022    0.00000000
                                                     2        0.2600000        0.02503380    0.00000000
                                                     2        0.4000000       -0.08702670    0.00000000
                                                     2        0.6000000        0.30134159    0.00000000
                                                     2        0.8000000       -0.50204959    0.00000000
                                                     2        1.2000000        0.52208372    0.00000000
                                      S - F
                                                     0        0.0000010       -0.01618346    0.00000000
                                                     2        0.1200000       -0.07880581    0.00000000
                                                     2        0.1600000        0.32040539    0.00000000
                                                     2        0.2400000       -0.47500956    0.00000000
                                                     2        0.5000000        0.54013668    0.00000000
                                                     2        1.5000000       -1.40434292    0.00000000
                                                     2        3.0000000        1.46283806    0.00000000
                                      P - F
                                                     0        0.0000010        0.00612970    0.00000000
                                                     2        0.1200000        0.02254406    0.00000000
                                                     2        0.1800000       -0.13874529    0.00000000
                                                     2        0.3000000        0.38299049    0.00000000
                                                     2        0.5000000       -0.57923512    0.00000000
                                                     2        1.0000000        0.63021625    0.00000000
                                                     2        2.0000000       -0.79201034    0.00000000
                                      D - F
                                                     0        0.0000010       -0.00296226    0.00000000
                                                     2        0.1200000       -0.00547344    0.00000000
                                                     2        0.1400000        0.01837884    0.00000000
                                                     2        0.2400000       -0.05565704    0.00000000
                                                     2        0.4000000        0.15376597    0.00000000
                                                     2        0.8000000       -0.32464795    0.00000000
    3          9            9
                                      G and up 
                                                     0        0.0000010        0.00013061    0.00000000
                                                     2        0.1200000        0.06713281    0.00000000
                                                     2        0.1400000       -0.24167382    0.00000000
                                                     2        0.1800000        0.63223557    0.00000000
                                                     2        0.2200000       -0.82578269    0.00000000
                                                     2        0.3000000        0.62544157    0.00000000
                                                     2        0.5000000       -0.74972011    0.00000000
                                                     2        0.8000000        1.07821461    0.00000000
                                                     2        2.5000000       -1.10703579    0.00000000
                                      S - G
                                                     0        0.0000010        0.01584301    0.00000000
                                                     2        0.1200000        0.08016155    0.00000000
                                                     2        0.1800000       -0.34633115    0.00000000
                                                     2        0.3000000        0.65132194    0.00000000
                                                     2        2.5000000       -2.36634383    0.00000000
                                      P - G
                                                     0        0.0000010        0.01590244    0.00000000
                                                     2        0.1200000       -0.11156199    0.00000000
                                                     2        0.1600000        0.22434929    0.00000000
                                                     2        0.3000000       -0.27751209    0.00000000
                                      D - G
                                                     0        0.0000010       -0.03628923    0.00000000
                                                     2        0.1200000        0.04690238    0.00000000
                                                     2        0.2600000       -0.08720270    0.00000000
                                      F - G
                                                     0        0.0000010        0.01127523    0.00000000
                                                     2        0.1400000       -0.04328550    0.00000000
                                                     2        0.2400000        0.03116441    0.00000000
                                                     2        0.4000000        0.20516616    0.00000000
    4         17           17
                                      G and up 
                                                     0        0.0000010       -0.00005841    0.00000000
                                                     2        0.1200000       -0.00031502    0.00000000
                                                     2        0.1400000        0.00458821    0.00000000
                                                     2        0.2600000       -0.03604686    0.00000000
                                                     2        0.4000000        0.03832573    0.00000000
                                                     2        1.1000000       -0.21042623    0.00000000
                                      S - G
                                                     0        0.0000010        0.00274387    0.00000000
                                                     2        0.1800000        0.09962839    0.00000000
                                                     2        0.4000000       -0.20830181    0.00000000
                                      P - G
                                                     0        0.0000010       -0.01867126    0.00000000
                                                     2        0.1200000        0.19610675    0.00000000
                                                     2        0.1600000       -0.37005054    0.00000000
                                                     2        0.3000000        0.29573883    0.00000000
                                      D - G
                                                     0        0.0000010        0.06766179    0.00000000
                                                     2        0.1200000       -0.07333140    0.00000000
                                                     2        0.2200000        0.05439691    0.00000000
                                      F - G
                                                     0        0.0000010       -0.02719671    0.00000000
                                                     2        0.1200000       -0.06013675    0.00000000
                                                     2        0.2000000        0.35339430    0.00000000
                                                     2        0.4000000       -0.66518555    0.00000000
    5          6            6
                                      G and up 
                                                     0        0.0000010       -0.00011185    0.00000000
                                                     2        0.1200000       -0.02301220    0.00000000
                                                     2        0.1400000        0.13317600    0.00000000
                                                     2        0.1600000       -0.19690668    0.00000000
                                                     2        0.2200000        0.23163694    0.00000000
                                                     2        0.3000000       -0.36920489    0.00000000
                                                     2        0.4000000        0.36389709    0.00000000
                                                     2        0.7000000       -0.38862160    0.00000000
                                                     2        1.3000000        0.80803421    0.00000000
                                      S - G
                                                     0        0.0000010        0.00312304    0.00000000
                                                     2        0.1200000       -0.00632892    0.00000000
                                                     2        0.2200000       -0.03780897    0.00000000
                                                     2        0.4000000        0.26269560    0.00000000
                                                     2        0.9000000       -0.28209514    0.00000000
                                                     2        1.5000000       -0.72686737    0.00000000
                                      P - G
                                                     0        0.0000010       -0.01465594    0.00000000
                                                     2        0.1200000        0.07908409    0.00000000
                                                     2        0.1800000       -0.30615861    0.00000000
                                                     2        0.2600000        0.41506950    0.00000000
                                                     2        0.5000000       -0.36252345    0.00000000
                                                     2        0.9000000        0.15124193    0.00000000
                                                     2        3.0000000       -0.80425677    0.00000000
                                      D - G
                                                     0        0.0000010        0.01149631    0.00000000
                                                     2        0.1200000       -0.04713561    0.00000000
                                                     2        0.1600000        0.10865096    0.00000000
                                                     2        0.2800000       -0.15816701    0.00000000
                                                     2        0.7000000        0.65478804    0.00000000
                                                     2        1.3000000       -1.73816624    0.00000000
                                      F - G
                                                     0        0.0000010        0.00481868    0.00000000
                                                     2        0.1200000       -0.04746842    0.00000000
                                                     2        0.1600000        0.09327889    0.00000000
                                                     2        0.4000000       -0.19693326    0.00000000
                                                     2        0.9000000        0.34938253    0.00000000
    6          1            1
                                      F and up 
                                                     0        0.0000010       -0.00000699    0.00000000
                                                     2        0.1200000        0.00123686    0.00000000
                                                     2        0.1800000       -0.00752022    0.00000000
                                                     2        0.2600000        0.02503380    0.00000000
                                                     2        0.4000000       -0.08702670    0.00000000
                                                     2        0.6000000        0.30134159    0.00000000
                                                     2        0.8000000       -0.50204959    0.00000000
                                                     2        1.2000000        0.52208372    0.00000000
                                      S - F
                                                     0        0.0000010       -0.01618346    0.00000000
                                                     2        0.1200000       -0.07880581    0.00000000
                                                     2        0.1600000        0.32040539    0.00000000
                                                     2        0.2400000       -0.47500956    0.00000000
                                                     2        0.5000000        0.54013668    0.00000000
                                                     2        1.5000000       -1.40434292    0.00000000
                                                     2        3.0000000        1.46283806    0.00000000
                                      P - F
                                                     0        0.0000010        0.00612970    0.00000000
                                                     2        0.1200000        0.02254406    0.00000000
                                                     2        0.1800000       -0.13874529    0.00000000
                                                     2        0.3000000        0.38299049    0.00000000
                                                     2        0.5000000       -0.57923512    0.00000000
                                                     2        1.0000000        0.63021625    0.00000000
                                                     2        2.0000000       -0.79201034    0.00000000
                                      D - F
                                                     0        0.0000010       -0.00296226    0.00000000
                                                     2        0.1200000       -0.00547344    0.00000000
                                                     2        0.1400000        0.01837884    0.00000000
                                                     2        0.2400000       -0.05565704    0.00000000
                                                     2        0.4000000        0.15376597    0.00000000
                                                     2        0.8000000       -0.32464795    0.00000000
    7          7            7
                                      G and up 
                                                     0        0.0000010       -0.00000022    0.00000000
                                                     2        0.1200000       -0.00992020    0.00000000
                                                     2        0.1400000        0.02578711    0.00000000
                                                     2        0.2200000       -0.10543517    0.00000000
                                                     2        0.3000000        0.23013665    0.00000000
                                                     2        0.5000000       -0.60834094    0.00000000
                                                     2        0.8000000        1.81436815    0.00000000
                                                     2        1.2000000       -3.87539738    0.00000000
                                                     2        2.0000000        2.94656640    0.00000000
                                      S - G
                                                     0        0.0000010       -0.00223566    0.00000000
                                                     2        0.1200000        0.45247937    0.00000000
                                                     2        0.1600000       -0.78978304    0.00000000
                                                     2        0.4000000        0.84956595    0.00000000
                                                     2        3.0000000       -0.75910174    0.00000000
                                      P - G
                                                     0        0.0000010       -0.25576737    0.00000000
                                                     2        0.1200000       -0.19992277    0.00000000
                                                     2        0.1600000        0.88518512    0.00000000
                                                     2        0.2400000       -1.33293917    0.00000000
                                                     2        0.4000000        1.33451776    0.00000000
                                                     2        0.9000000       -0.55709210    0.00000000
                                                     2        2.5000000        2.48506502    0.00000000
                                      D - G
                                                     0        0.0000010        0.26143746    0.00000000
                                                     2        0.1200000       -0.04492212    0.00000000
                                                     2        0.1400000       -0.18274021    0.00000000
                                                     2        0.2400000        0.53490004    0.00000000
                                                     2        0.4000000       -0.74136473    0.00000000
                                                     2        1.3000000        1.71401021    0.00000000
                                      F - G
                                                     0        0.0000010       -0.07169988    0.00000000
                                                     2        0.1200000        0.04480029    0.00000000
                                                     2        0.2600000       -0.08050831    0.00000000
                                                     2        0.5000000        0.31290809    0.00000000
                                                     2        1.0000000       -0.45253098    0.00000000
    8          1            1
                                      F and up 
                                                     0        0.0000010       -0.00000699    0.00000000
                                                     2        0.1200000        0.00123686    0.00000000
                                                     2        0.1800000       -0.00752022    0.00000000
                                                     2        0.2600000        0.02503380    0.00000000
                                                     2        0.4000000       -0.08702670    0.00000000
                                                     2        0.6000000        0.30134159    0.00000000
                                                     2        0.8000000       -0.50204959    0.00000000
                                                     2        1.2000000        0.52208372    0.00000000
                                      S - F
                                                     0        0.0000010       -0.01618346    0.00000000
                                                     2        0.1200000       -0.07880581    0.00000000
                                                     2        0.1600000        0.32040539    0.00000000
                                                     2        0.2400000       -0.47500956    0.00000000
                                                     2        0.5000000        0.54013668    0.00000000
                                                     2        1.5000000       -1.40434292    0.00000000
                                                     2        3.0000000        1.46283806    0.00000000
                                      P - F
                                                     0        0.0000010        0.00612970    0.00000000
                                                     2        0.1200000        0.02254406    0.00000000
                                                     2        0.1800000       -0.13874529    0.00000000
                                                     2        0.3000000        0.38299049    0.00000000
                                                     2        0.5000000       -0.57923512    0.00000000
                                                     2        1.0000000        0.63021625    0.00000000
                                                     2        2.0000000       -0.79201034    0.00000000
                                      D - F
                                                     0        0.0000010       -0.00296226    0.00000000
                                                     2        0.1200000       -0.00547344    0.00000000
                                                     2        0.1400000        0.01837884    0.00000000
                                                     2        0.2400000       -0.05565704    0.00000000
                                                     2        0.4000000        0.15376597    0.00000000
                                                     2        0.8000000       -0.32464795    0.00000000
    9          1            1
                                      F and up 
                                                     0        0.0000010       -0.00000699    0.00000000
                                                     2        0.1200000        0.00123686    0.00000000
                                                     2        0.1800000       -0.00752022    0.00000000
                                                     2        0.2600000        0.02503380    0.00000000
                                                     2        0.4000000       -0.08702670    0.00000000
                                                     2        0.6000000        0.30134159    0.00000000
                                                     2        0.8000000       -0.50204959    0.00000000
                                                     2        1.2000000        0.52208372    0.00000000
                                      S - F
                                                     0        0.0000010       -0.01618346    0.00000000
                                                     2        0.1200000       -0.07880581    0.00000000
                                                     2        0.1600000        0.32040539    0.00000000
                                                     2        0.2400000       -0.47500956    0.00000000
                                                     2        0.5000000        0.54013668    0.00000000
                                                     2        1.5000000       -1.40434292    0.00000000
                                                     2        3.0000000        1.46283806    0.00000000
                                      P - F
                                                     0        0.0000010        0.00612970    0.00000000
                                                     2        0.1200000        0.02254406    0.00000000
                                                     2        0.1800000       -0.13874529    0.00000000
                                                     2        0.3000000        0.38299049    0.00000000
                                                     2        0.5000000       -0.57923512    0.00000000
                                                     2        1.0000000        0.63021625    0.00000000
                                                     2        2.0000000       -0.79201034    0.00000000
                                      D - F
                                                     0        0.0000010       -0.00296226    0.00000000
                                                     2        0.1200000       -0.00547344    0.00000000
                                                     2        0.1400000        0.01837884    0.00000000
                                                     2        0.2400000       -0.05565704    0.00000000
                                                     2        0.4000000        0.15376597    0.00000000
                                                     2        0.8000000       -0.32464795    0.00000000
   10          6            6
                                      G and up 
                                                     0        0.0000010       -0.00011185    0.00000000
                                                     2        0.1200000       -0.02301220    0.00000000
                                                     2        0.1400000        0.13317600    0.00000000
                                                     2        0.1600000       -0.19690668    0.00000000
                                                     2        0.2200000        0.23163694    0.00000000
                                                     2        0.3000000       -0.36920489    0.00000000
                                                     2        0.4000000        0.36389709    0.00000000
                                                     2        0.7000000       -0.38862160    0.00000000
                                                     2        1.3000000        0.80803421    0.00000000
                                      S - G
                                                     0        0.0000010        0.00312304    0.00000000
                                                     2        0.1200000       -0.00632892    0.00000000
                                                     2        0.2200000       -0.03780897    0.00000000
                                                     2        0.4000000        0.26269560    0.00000000
                                                     2        0.9000000       -0.28209514    0.00000000
                                                     2        1.5000000       -0.72686737    0.00000000
                                      P - G
                                                     0        0.0000010       -0.01465594    0.00000000
                                                     2        0.1200000        0.07908409    0.00000000
                                                     2        0.1800000       -0.30615861    0.00000000
                                                     2        0.2600000        0.41506950    0.00000000
                                                     2        0.5000000       -0.36252345    0.00000000
                                                     2        0.9000000        0.15124193    0.00000000
                                                     2        3.0000000       -0.80425677    0.00000000
                                      D - G
                                                     0        0.0000010        0.01149631    0.00000000
                                                     2        0.1200000       -0.04713561    0.00000000
                                                     2        0.1600000        0.10865096    0.00000000
                                                     2        0.2800000       -0.15816701    0.00000000
                                                     2        0.7000000        0.65478804    0.00000000
                                                     2        1.3000000       -1.73816624    0.00000000
                                      F - G
                                                     0        0.0000010        0.00481868    0.00000000
                                                     2        0.1200000       -0.04746842    0.00000000
                                                     2        0.1600000        0.09327889    0.00000000
                                                     2        0.4000000       -0.19693326    0.00000000
                                                     2        0.9000000        0.34938253    0.00000000
   11          1            1
                                      F and up 
                                                     0        0.0000010       -0.00000699    0.00000000
                                                     2        0.1200000        0.00123686    0.00000000
                                                     2        0.1800000       -0.00752022    0.00000000
                                                     2        0.2600000        0.02503380    0.00000000
                                                     2        0.4000000       -0.08702670    0.00000000
                                                     2        0.6000000        0.30134159    0.00000000
                                                     2        0.8000000       -0.50204959    0.00000000
                                                     2        1.2000000        0.52208372    0.00000000
                                      S - F
                                                     0        0.0000010       -0.01618346    0.00000000
                                                     2        0.1200000       -0.07880581    0.00000000
                                                     2        0.1600000        0.32040539    0.00000000
                                                     2        0.2400000       -0.47500956    0.00000000
                                                     2        0.5000000        0.54013668    0.00000000
                                                     2        1.5000000       -1.40434292    0.00000000
                                                     2        3.0000000        1.46283806    0.00000000
                                      P - F
                                                     0        0.0000010        0.00612970    0.00000000
                                                     2        0.1200000        0.02254406    0.00000000
                                                     2        0.1800000       -0.13874529    0.00000000
                                                     2        0.3000000        0.38299049    0.00000000
                                                     2        0.5000000       -0.57923512    0.00000000
                                                     2        1.0000000        0.63021625    0.00000000
                                                     2        2.0000000       -0.79201034    0.00000000
                                      D - F
                                                     0        0.0000010       -0.00296226    0.00000000
                                                     2        0.1200000       -0.00547344    0.00000000
                                                     2        0.1400000        0.01837884    0.00000000
                                                     2        0.2400000       -0.05565704    0.00000000
                                                     2        0.4000000        0.15376597    0.00000000
                                                     2        0.8000000       -0.32464795    0.00000000
   12          1            1
                                      F and up 
                                                     0        0.0000010       -0.00000699    0.00000000
                                                     2        0.1200000        0.00123686    0.00000000
                                                     2        0.1800000       -0.00752022    0.00000000
                                                     2        0.2600000        0.02503380    0.00000000
                                                     2        0.4000000       -0.08702670    0.00000000
                                                     2        0.6000000        0.30134159    0.00000000
                                                     2        0.8000000       -0.50204959    0.00000000
                                                     2        1.2000000        0.52208372    0.00000000
                                      S - F
                                                     0        0.0000010       -0.01618346    0.00000000
                                                     2        0.1200000       -0.07880581    0.00000000
                                                     2        0.1600000        0.32040539    0.00000000
                                                     2        0.2400000       -0.47500956    0.00000000
                                                     2        0.5000000        0.54013668    0.00000000
                                                     2        1.5000000       -1.40434292    0.00000000
                                                     2        3.0000000        1.46283806    0.00000000
                                      P - F
                                                     0        0.0000010        0.00612970    0.00000000
                                                     2        0.1200000        0.02254406    0.00000000
                                                     2        0.1800000       -0.13874529    0.00000000
                                                     2        0.3000000        0.38299049    0.00000000
                                                     2        0.5000000       -0.57923512    0.00000000
                                                     2        1.0000000        0.63021625    0.00000000
                                                     2        2.0000000       -0.79201034    0.00000000
                                      D - F
                                                     0        0.0000010       -0.00296226    0.00000000
                                                     2        0.1200000       -0.00547344    0.00000000
                                                     2        0.1400000        0.01837884    0.00000000
                                                     2        0.2400000       -0.05565704    0.00000000
                                                     2        0.4000000        0.15376597    0.00000000
                                                     2        0.8000000       -0.32464795    0.00000000
   13          1            1
                                      F and up 
                                                     0        0.0000010       -0.00000699    0.00000000
                                                     2        0.1200000        0.00123686    0.00000000
                                                     2        0.1800000       -0.00752022    0.00000000
                                                     2        0.2600000        0.02503380    0.00000000
                                                     2        0.4000000       -0.08702670    0.00000000
                                                     2        0.6000000        0.30134159    0.00000000
                                                     2        0.8000000       -0.50204959    0.00000000
                                                     2        1.2000000        0.52208372    0.00000000
                                      S - F
                                                     0        0.0000010       -0.01618346    0.00000000
                                                     2        0.1200000       -0.07880581    0.00000000
                                                     2        0.1600000        0.32040539    0.00000000
                                                     2        0.2400000       -0.47500956    0.00000000
                                                     2        0.5000000        0.54013668    0.00000000
                                                     2        1.5000000       -1.40434292    0.00000000
                                                     2        3.0000000        1.46283806    0.00000000
                                      P - F
                                                     0        0.0000010        0.00612970    0.00000000
                                                     2        0.1200000        0.02254406    0.00000000
                                                     2        0.1800000       -0.13874529    0.00000000
                                                     2        0.3000000        0.38299049    0.00000000
                                                     2        0.5000000       -0.57923512    0.00000000
                                                     2        1.0000000        0.63021625    0.00000000
                                                     2        2.0000000       -0.79201034    0.00000000
                                      D - F
                                                     0        0.0000010       -0.00296226    0.00000000
                                                     2        0.1200000       -0.00547344    0.00000000
                                                     2        0.1400000        0.01837884    0.00000000
                                                     2        0.2400000       -0.05565704    0.00000000
                                                     2        0.4000000        0.15376597    0.00000000
                                                     2        0.8000000       -0.32464795    0.00000000
   14          6            6
                                      G and up 
                                                     0        0.0000010       -0.00011185    0.00000000
                                                     2        0.1200000       -0.02301220    0.00000000
                                                     2        0.1400000        0.13317600    0.00000000
                                                     2        0.1600000       -0.19690668    0.00000000
                                                     2        0.2200000        0.23163694    0.00000000
                                                     2        0.3000000       -0.36920489    0.00000000
                                                     2        0.4000000        0.36389709    0.00000000
                                                     2        0.7000000       -0.38862160    0.00000000
                                                     2        1.3000000        0.80803421    0.00000000
                                      S - G
                                                     0        0.0000010        0.00312304    0.00000000
                                                     2        0.1200000       -0.00632892    0.00000000
                                                     2        0.2200000       -0.03780897    0.00000000
                                                     2        0.4000000        0.26269560    0.00000000
                                                     2        0.9000000       -0.28209514    0.00000000
                                                     2        1.5000000       -0.72686737    0.00000000
                                      P - G
                                                     0        0.0000010       -0.01465594    0.00000000
                                                     2        0.1200000        0.07908409    0.00000000
                                                     2        0.1800000       -0.30615861    0.00000000
                                                     2        0.2600000        0.41506950    0.00000000
                                                     2        0.5000000       -0.36252345    0.00000000
                                                     2        0.9000000        0.15124193    0.00000000
                                                     2        3.0000000       -0.80425677    0.00000000
                                      D - G
                                                     0        0.0000010        0.01149631    0.00000000
                                                     2        0.1200000       -0.04713561    0.00000000
                                                     2        0.1600000        0.10865096    0.00000000
                                                     2        0.2800000       -0.15816701    0.00000000
                                                     2        0.7000000        0.65478804    0.00000000
                                                     2        1.3000000       -1.73816624    0.00000000
                                      F - G
                                                     0        0.0000010        0.00481868    0.00000000
                                                     2        0.1200000       -0.04746842    0.00000000
                                                     2        0.1600000        0.09327889    0.00000000
                                                     2        0.4000000       -0.19693326    0.00000000
                                                     2        0.9000000        0.34938253    0.00000000
   15          7            7
                                      G and up 
                                                     0        0.0000010       -0.00000022    0.00000000
                                                     2        0.1200000       -0.00992020    0.00000000
                                                     2        0.1400000        0.02578711    0.00000000
                                                     2        0.2200000       -0.10543517    0.00000000
                                                     2        0.3000000        0.23013665    0.00000000
                                                     2        0.5000000       -0.60834094    0.00000000
                                                     2        0.8000000        1.81436815    0.00000000
                                                     2        1.2000000       -3.87539738    0.00000000
                                                     2        2.0000000        2.94656640    0.00000000
                                      S - G
                                                     0        0.0000010       -0.00223566    0.00000000
                                                     2        0.1200000        0.45247937    0.00000000
                                                     2        0.1600000       -0.78978304    0.00000000
                                                     2        0.4000000        0.84956595    0.00000000
                                                     2        3.0000000       -0.75910174    0.00000000
                                      P - G
                                                     0        0.0000010       -0.25576737    0.00000000
                                                     2        0.1200000       -0.19992277    0.00000000
                                                     2        0.1600000        0.88518512    0.00000000
                                                     2        0.2400000       -1.33293917    0.00000000
                                                     2        0.4000000        1.33451776    0.00000000
                                                     2        0.9000000       -0.55709210    0.00000000
                                                     2        2.5000000        2.48506502    0.00000000
                                      D - G
                                                     0        0.0000010        0.26143746    0.00000000
                                                     2        0.1200000       -0.04492212    0.00000000
                                                     2        0.1400000       -0.18274021    0.00000000
                                                     2        0.2400000        0.53490004    0.00000000
                                                     2        0.4000000       -0.74136473    0.00000000
                                                     2        1.3000000        1.71401021    0.00000000
                                      F - G
                                                     0        0.0000010       -0.07169988    0.00000000
                                                     2        0.1200000        0.04480029    0.00000000
                                                     2        0.2600000       -0.08050831    0.00000000
                                                     2        0.5000000        0.31290809    0.00000000
                                                     2        1.0000000       -0.45253098    0.00000000
 ======================================================================================================
   251 basis functions,   459 primitive gaussians,   267 cartesian basis functions
    36 alpha electrons       36 beta electrons
       nuclear repulsion energy       440.9242909652 Hartrees.
 NAtoms=   15 NActive=   15 NUniq=   15 SFac= 1.00D+00 NAtFMM=   60 NAOKFM=F Big=F
   1 Symmetry operations used in ECPInt.
 ECPInt:  NShTT=    5995 NPrTT=   32589 LenC2=    5968 LenP2D=   23708.
 LDataN:  DoStor=T MaxTD1= 6 Len=  172
 Initial guess from the checkpoint file:  "E2SN2_373_mol1.chk"
 B after Tr=    -0.318045   -0.954902    1.436508
         Rot=    0.907347    0.282075   -0.255249   -0.178894 Ang=  49.72 deg.
 >>>>>>>>>> Convergence criterion not met.
 SCF Done:  E(RHF) =  -823.562581525     A.U. after    2 cycles
            NFock=  1  Conv=0.76D-02     -V/T= 1.9975

 **********************************************************************

            Population analysis using the SCF Density.

 **********************************************************************

 Orbital symmetries:
       Occupied  (A) (A) (A) (A) (A) (A) (A) (A) (A) (A) (A) (A)
                 (A) (A) (A) (A) (A) (A) (A) (A) (A) (A) (A) (A)
                 (A) (A) (A) (A) (A) (A) (A) (A) (A) (A) (A) (A)
       Virtual   (A) (A) (A) (A) (A) (A) (A) (A) (A) (A) (A) (A)
                 (A) (A) (A) (A) (A) (A) (A) (A) (A) (A) (A) (A)
                 (A) (A) (A) (A) (A) (A) (A) (A) (A) (A) (A) (A)
                 (A) (A) (A) (A) (A) (A) (A) (A) (A) (A) (A) (A)
                 (A) (A) (A) (A) (A) (A) (A) (A) (A) (A) (A) (A)
                 (A) (A) (A) (A) (A) (A) (A) (A) (A) (A) (A) (A)
                 (A) (A) (A) (A) (A) (A) (A) (A) (A) (A) (A) (A)
                 (A) (A) (A) (A) (A) (A) (A) (A) (A) (A) (A) (A)
                 (A) (A) (A) (A) (A) (A) (A) (A) (A) (A) (A) (A)
                 (A) (A) (A) (A) (A) (A) (A) (A) (A) (A) (A) (A)
                 (A) (A) (A) (A) (A) (A) (A) (A) (A) (A) (A) (A)
                 (A) (A) (A) (A) (A) (A) (A) (A) (A) (A) (A) (A)
                 (A) (A) (A) (A) (A) (A) (A) (A) (A) (A) (A) (A)
                 (A) (A) (A) (A) (A) (A) (A) (A) (A) (A) (A) (A)
                 (A) (A) (A) (A) (A) (A) (A) (A) (A) (A) (A) (A)
                 (A) (A) (A) (A) (A) (A) (A) (A) (A) (A) (A) (A)
                 (A) (A) (A) (A) (A) (A) (A) (A) (A) (A) (A) (A)
                 (A) (A) (A) (A) (A) (A) (A) (A) (A) (A) (A)
 The electronic state is 1-A.
 Alpha  occ. eigenvalues -- -103.43968 -25.79257 -15.49804 -15.49036 -11.24055
 Alpha  occ. eigenvalues --  -11.15943 -11.15822 -11.11322 -10.47270  -8.12907
 Alpha  occ. eigenvalues --   -8.12779  -8.12767  -1.29007  -1.06870  -1.03792
 Alpha  occ. eigenvalues --   -0.95000  -0.90405  -0.78490  -0.71633  -0.56897
 Alpha  occ. eigenvalues --   -0.56180  -0.53266  -0.49927  -0.44468  -0.41665
 Alpha  occ. eigenvalues --   -0.41252  -0.40530  -0.38578  -0.38041  -0.37804
 Alpha  occ. eigenvalues --   -0.31706  -0.31078  -0.30398  -0.26966  -0.26714
 Alpha  occ. eigenvalues --   -0.25649
 Alpha virt. eigenvalues --    0.12742   0.13915   0.14767   0.15402   0.16562
 Alpha virt. eigenvalues --    0.16882   0.18431   0.20051   0.21284   0.22541
 Alpha virt. eigenvalues --    0.24014   0.25030   0.25256   0.26300   0.26654
 Alpha virt. eigenvalues --    0.27628   0.27925   0.28550   0.29434   0.29682
 Alpha virt. eigenvalues --    0.30561   0.31260   0.31782   0.31871   0.32635
 Alpha virt. eigenvalues --    0.33098   0.33657   0.34632   0.36010   0.37206
 Alpha virt. eigenvalues --    0.37854   0.39711   0.41642   0.41928   0.43110
 Alpha virt. eigenvalues --    0.44486   0.45578   0.46255   0.48391   0.49189
 Alpha virt. eigenvalues --    0.49818   0.50200   0.51671   0.52294   0.53315
 Alpha virt. eigenvalues --    0.53629   0.54808   0.56015   0.56677   0.57990
 Alpha virt. eigenvalues --    0.58659   0.59422   0.60202   0.61299   0.61809
 Alpha virt. eigenvalues --    0.63615   0.64185   0.65008   0.65862   0.66898
 Alpha virt. eigenvalues --    0.68726   0.69138   0.70280   0.71024   0.72363
 Alpha virt. eigenvalues --    0.73225   0.73537   0.75193   0.75673   0.76327
 Alpha virt. eigenvalues --    0.76985   0.77702   0.79335   0.80602   0.81252
 Alpha virt. eigenvalues --    0.81512   0.83201   0.84002   0.84692   0.85511
 Alpha virt. eigenvalues --    0.86797   0.87289   0.90129   0.91545   0.92650
 Alpha virt. eigenvalues --    0.93394   0.93670   0.94910   0.96402   0.97814
 Alpha virt. eigenvalues --    0.99280   1.00698   1.02278   1.02772   1.03450
 Alpha virt. eigenvalues --    1.05229   1.07681   1.08256   1.10359   1.11350
 Alpha virt. eigenvalues --    1.12730   1.13847   1.15395   1.17170   1.19201
 Alpha virt. eigenvalues --    1.19956   1.22014   1.23242   1.24946   1.26527
 Alpha virt. eigenvalues --    1.27706   1.29936   1.30704   1.31145   1.35097
 Alpha virt. eigenvalues --    1.36061   1.37324   1.40229   1.44177   1.46003
 Alpha virt. eigenvalues --    1.49514   1.50373   1.52021   1.53797   1.58104
 Alpha virt. eigenvalues --    1.59699   1.64506   1.65900   1.66591   1.68569
 Alpha virt. eigenvalues --    1.70866   1.70924   1.72189   1.75465   1.75587
 Alpha virt. eigenvalues --    1.78361   1.81156   1.81869   1.84591   1.85080
 Alpha virt. eigenvalues --    1.87305   1.88994   1.91279   1.92398   1.93860
 Alpha virt. eigenvalues --    1.95422   1.96889   1.98982   2.00672   2.01797
 Alpha virt. eigenvalues --    2.02102   2.06044   2.07752   2.08990   2.09725
 Alpha virt. eigenvalues --    2.13227   2.17514   2.19168   2.21192   2.23229
 Alpha virt. eigenvalues --    2.25583   2.27074   2.29594   2.31659   2.32963
 Alpha virt. eigenvalues --    2.36385   2.36867   2.42199   2.44794   2.46160
 Alpha virt. eigenvalues --    2.47753   2.49981   2.51273   2.54743   2.56559
 Alpha virt. eigenvalues --    2.59478   2.62359   2.63408   2.67005   2.68369
 Alpha virt. eigenvalues --    2.69644   2.73058   2.75202   2.78504   2.81529
 Alpha virt. eigenvalues --    2.84142   2.87078   2.89304   2.92027   2.94130
 Alpha virt. eigenvalues --    2.95301   3.01315   3.08115   3.11426   3.12882
 Alpha virt. eigenvalues --    3.14888   3.20721   3.28467   3.29486   3.31337
 Alpha virt. eigenvalues --    3.37332   3.41748   3.44486   3.54416   3.59276
 Alpha virt. eigenvalues --    3.64722   3.69292   3.84686   4.04433   4.17112
 Alpha virt. eigenvalues --    5.31046   5.39387   5.41082   5.43664   5.47541
          Condensed to atoms (all electrons):
 Mulliken charges:
               1
     1  C    0.781670
     2  H   -0.014431
     3  F   -0.871318
     4  Cl  -0.615087
     5  C    0.147830
     6  H   -0.164518
     7  N   -0.456978
     8  H    0.171082
     9  H    0.040095
    10  C    0.544846
    11  H    0.140482
    12  H   -0.004951
    13  H   -0.113733
    14  C   -0.242366
    15  N   -0.342622
 Sum of Mulliken charges =  -1.00000
 Mulliken charges with hydrogens summed into heavy atoms:
               1
     1  C    0.617152
     3  F   -0.871318
     4  Cl  -0.615087
     5  C    0.133399
     7  N   -0.245801
    10  C    0.566644
    14  C   -0.242366
    15  N   -0.342622
 Electronic spatial extent (au):  <R**2>=           1291.8093
 Charge=             -1.0000 electrons
 Dipole moment (field-independent basis, Debye):
    X=              1.5437    Y=              1.7163    Z=              0.2984  Tot=              2.3276

 Test job not archived.
 1\1\GINC-SE364\SP\RHF\Aug-CC-pVDZ\C4H7Cl1F1N2(1-)\OHZDE\09-Apr-2025\0\
 \#t hf aug-cc-pvdz iop(5/13=1,5/36=2,99/5=2) pseudo=read geom=check gu
 ess=(read,tcheck) scf=(maxcycle=1)\\title\\-1,1\C,0,0.72517013,-0.0424
 5266,-0.03925519\H,0,1.61153761,1.86905627,-0.2974221\F,0,-1.30847158,
 -0.10002537,-0.11104219\Cl,0,2.83707195,-0.1902882,0.61475475\C,0,0.61
 383179,1.46976009,-0.09464925\H,0,0.46523691,-0.54116822,0.87581017\N,
 0,0.81405363,-0.70969546,-1.27640035\H,0,-0.16096907,-0.7180095,-1.573
 98968\H,0,1.11328544,-1.66227405,-1.10999821\C,0,0.09435047,2.01097849
 ,1.23345532\H,0,-0.894245,1.58409391,1.39023366\H,0,0.77281718,1.69948
 197,2.03123564\H,0,0.04159502,3.10287041,1.22355837\C,0,-0.23178111,1.
 91096731,-1.20957204\N,0,-0.82227338,2.37759503,-2.1108689\\Version=ES
 64L-G16RevC.01\State=1-A\HF=-823.5625815\RMSD=7.644e-03\Dipole=0.54507
 21,0.1905906,0.7107607\Quadrupole=-12.396309,8.7316302,3.6646788,4.790
 7318,-6.7906969,6.973542\PG=C01 [X(C4H7Cl1F1N2)]\\@


 REALITY IS FOR PEOPLE WHO CAN'T FACE SCIENCE FICTION.
 Job cpu time:       0 days  0 hours  1 minutes 22.2 seconds.
 Elapsed time:       0 days  0 hours  0 minutes  6.0 seconds.
 File lengths (MBytes):  RWF=     14 Int=      0 D2E=      0 Chk=      9 Scr=      1
 Normal termination of Gaussian 16 at Wed Apr  9 02:54:23 2025.
