 Entering Gaussian System, Link 0=g16
 Input=E2SN2_252_mol1.gjf
 Output=E2SN2_252_mol1.log
 Initial command:
 /arc/software/Gaussian/g16.c01/l1.exe "/tmp/slurm/4859005/Gau-216378.inp" -scrdir="/tmp/slurm/4859005/"
 Entering Link 1 = /arc/software/Gaussian/g16.c01/l1.exe PID=    216379.
  
 Copyright (c) 1988-2019, Gaussian, Inc.  All Rights Reserved.
  
 This is part of the Gaussian(R) 16 program.  It is based on
 the Gaussian(R) 09 system (copyright 2009, Gaussian, Inc.),
 the Gaussian(R) 03 system (copyright 2003, Gaussian, Inc.),
 the Gaussian(R) 98 system (copyright 1998, Gaussian, Inc.),
 the Gaussian(R) 94 system (copyright 1995, Gaussian, Inc.),
 the Gaussian 92(TM) system (copyright 1992, Gaussian, Inc.),
 the Gaussian 90(TM) system (copyright 1990, Gaussian, Inc.),
 the Gaussian 88(TM) system (copyright 1988, Gaussian, Inc.),
 the Gaussian 86(TM) system (copyright 1986, Carnegie Mellon
 University), and the Gaussian 82(TM) system (copyright 1983,
 Carnegie Mellon University). Gaussian is a federally registered
 trademark of Gaussian, Inc.
  
 This software contains proprietary and confidential information,
 including trade secrets, belonging to Gaussian, Inc.
  
 This software is provided under written license and may be
 used, copied, transmitted, or stored only in accord with that
 written license.
  
 The following legend is applicable only to US Government
 contracts under FAR:
  
                    RESTRICTED RIGHTS LEGEND
  
 Use, reproduction and disclosure by the US Government is
 subject to restrictions as set forth in subparagraphs (a)
 and (c) of the Commercial Computer Software - Restricted
 Rights clause in FAR 52.227-19.
  
 Gaussian, Inc.
 340 Quinnipiac St., Bldg. 40, Wallingford CT 06492
  
  
 ---------------------------------------------------------------
 Warning -- This program may not be used in any manner that
 competes with the business of Gaussian, Inc. or will provide
 assistance to any competitor of Gaussian, Inc.  The licensee
 of this program is prohibited from giving any competitor of
 Gaussian, Inc. access to this program.  By using this program,
 the user acknowledges that Gaussian, Inc. is engaged in the
 business of creating and licensing software in the field of
 computational chemistry and represents and warrants to the
 licensee that it is not a competitor of Gaussian, Inc. and that
 it will not use this program in any manner prohibited above.
 ---------------------------------------------------------------
  

 Cite this work as:
 Gaussian 16, Revision C.01,
 M. J. Frisch, G. W. Trucks, H. B. Schlegel, G. E. Scuseria, 
 M. A. Robb, J. R. Cheeseman, G. Scalmani, V. Barone, 
 G. A. Petersson, H. Nakatsuji, X. Li, M. Caricato, A. V. Marenich, 
 J. Bloino, B. G. Janesko, R. Gomperts, B. Mennucci, H. P. Hratchian, 
 J. V. Ortiz, A. F. Izmaylov, J. L. Sonnenberg, D. Williams-Young, 
 F. Ding, F. Lipparini, F. Egidi, J. Goings, B. Peng, A. Petrone, 
 T. Henderson, D. Ranasinghe, V. G. Zakrzewski, J. Gao, N. Rega, 
 G. Zheng, W. Liang, M. Hada, M. Ehara, K. Toyota, R. Fukuda, 
 J. Hasegawa, M. Ishida, T. Nakajima, Y. Honda, O. Kitao, H. Nakai, 
 T. Vreven, K. Throssell, J. A. Montgomery, Jr., J. E. Peralta, 
 F. Ogliaro, M. J. Bearpark, J. J. Heyd, E. N. Brothers, K. N. Kudin, 
 V. N. Staroverov, T. A. Keith, R. Kobayashi, J. Normand, 
 K. Raghavachari, A. P. Rendell, J. C. Burant, S. S. Iyengar, 
 J. Tomasi, M. Cossi, J. M. Millam, M. Klene, C. Adamo, R. Cammi, 
 J. W. Ochterski, R. L. Martin, K. Morokuma, O. Farkas, 
 J. B. Foresman, and D. J. Fox, Gaussian, Inc., Wallingford CT, 2019.
 
 ******************************************
 Gaussian 16:  ES64L-G16RevC.01  3-Jul-2019
                 9-Apr-2025 
 ******************************************
 %nprocs=16
 Will use up to   16 processors via shared memory.
 %mem=30GB
 %chk=E2SN2_252_mol1.chk
 ----------------------------------------------------------------------
 #t hf aug-cc-pvdz symm=none int=(grid=ultrafine) guess=(read,tcheck) s
 table=(opt,rrhf)
 ----------------------------------------------------------------------
 -----
 title
 -----
 Symbolic Z-matrix:
 Charge = -1 Multiplicity = 1
 C                     0.55996  -0.05423  -0.03984 
 H                     1.50622   1.83545  -0.44431 
 Cl                   -1.74753  -0.23402  -0.21254 
 Cl                    2.80095  -0.18849   0.55257 
 C                     0.55194   1.46405  -0.06997 
 H                     0.41492  -0.61838   0.85976 
 H                    -0.24891   1.81463  -0.72145 
 C                     0.77859  -0.73038  -1.28585 
 N                     0.96019  -1.23564  -2.33322 
 C                     0.33754   2.02657   1.25966 
 N                     0.16688   2.5217    2.30941 
 
                    Distance matrix (angstroms):
                    1          2          3          4          5
     1  C    0.000000
     2  H    2.151720   0.000000
     3  Cl   2.320920   3.863073   0.000000
     4  Cl   2.321854   2.601232   4.612609   0.000000
     5  C    1.518602   1.090290   2.862048   2.859460   0.000000
     6  H    1.071720   2.985437   2.444129   2.443834   2.284666
     7  H    2.147439   1.776997   2.588787   3.864871   1.090266
     8  C    1.434407   2.796625   2.789204   2.786280   2.518981
     9  N    2.610655   3.646604   3.582221   3.579479   3.546453
    10  C    2.463309   2.075060   3.409565   3.387460   1.459556
    11  N    3.508400   3.138111   4.197520   4.167725   2.632169
                    6          7          8          9         10
     6  H    0.000000
     7  H    2.976648   0.000000
     8  C    2.179095   2.802029   0.000000
     9  N    3.297495   3.655665   1.176968   0.000000
    10  C    2.676129   2.076926   3.778215   4.892699   0.000000
    11  N    3.467431   3.139891   4.886314   6.025025   1.173135
                   11
    11  N    0.000000
 Symmetry turned off by external request.
 Rotational constants (GHZ):           1.2950675           1.2277730           0.6960839
   219 basis functions,   453 primitive gaussians,   235 cartesian basis functions
    38 alpha electrons       38 beta electrons
       nuclear repulsion energy       440.4519929769 Hartrees.
 NAtoms=   11 NActive=   11 NUniq=   11 SFac= 1.00D+00 NAtFMM=   60 NAOKFM=F Big=F
 ExpMin= 2.97D-02 ExpMax= 1.28D+05 ExpMxC= 1.24D+03 IAcc=3 IRadAn=         5 AccDes= 0.00D+00
 Harris functional with IExCor=  205 and IRadAn=       5 diagonalized for initial guess.
 HarFok:  IExCor=  205 AccDes= 0.00D+00 IRadAn=         5 IDoV= 1 UseB2=F ITyADJ=14
 ICtDFT=  3500011 ScaDFX=  1.000000  1.000000  1.000000  1.000000
 FoFCou: FMM=F IPFlag=           0 FMFlag=      100000 FMFlg1=           0
         NFxFlg=           0 DoJE=T BraDBF=F KetDBF=T FulRan=T
         wScrn=  0.000000 ICntrl=       500 IOpCl=  0 I1Cent=   200000004 NGrid=           0
         NMat0=    1 NMatS0=      1 NMatT0=    0 NMatD0=    1 NMtDS0=    0 NMtDT0=    0
 Symmetry not used in FoFCou.
 SCF Done:  E(RHF) =  -1181.18264031     A.U. after   15 cycles
            NFock= 15  Conv=0.49D-08     -V/T= 2.0005

 **********************************************************************

            Population analysis using the SCF Density.

 **********************************************************************

 Alpha  occ. eigenvalues -- -104.62867-104.62829 -15.48419 -15.48273 -11.28241
 Alpha  occ. eigenvalues --  -11.19802 -11.19552 -11.19015 -10.35417 -10.35380
 Alpha  occ. eigenvalues --   -7.82081  -7.82044  -7.81942  -7.81936  -7.81905
 Alpha  occ. eigenvalues --   -7.81899  -1.11679  -1.10889  -1.01819  -0.88462
 Alpha  occ. eigenvalues --   -0.87551  -0.82822  -0.64672  -0.59218  -0.54241
 Alpha  occ. eigenvalues --   -0.52135  -0.45994  -0.45038  -0.40646  -0.36441
 Alpha  occ. eigenvalues --   -0.35223  -0.34902  -0.30905  -0.27429  -0.26989
 Alpha  occ. eigenvalues --   -0.26943  -0.26459  -0.23759
 Alpha virt. eigenvalues --    0.13395   0.14993   0.15419   0.17071   0.17116
 Alpha virt. eigenvalues --    0.18972   0.20662   0.21346   0.21952   0.23073
 Alpha virt. eigenvalues --    0.23957   0.24819   0.25684   0.26487   0.26994
 Alpha virt. eigenvalues --    0.27608   0.28089   0.28380   0.28627   0.29737
 Alpha virt. eigenvalues --    0.30440   0.30470   0.31790   0.31904   0.32786
 Alpha virt. eigenvalues --    0.34225   0.34727   0.35107   0.36599   0.36771
 Alpha virt. eigenvalues --    0.38078   0.39338   0.39611   0.40140   0.43564
 Alpha virt. eigenvalues --    0.43997   0.44887   0.47730   0.48875   0.49435
 Alpha virt. eigenvalues --    0.49814   0.49948   0.51619   0.53010   0.55523
 Alpha virt. eigenvalues --    0.55950   0.58149   0.60075   0.60801   0.61292
 Alpha virt. eigenvalues --    0.62052   0.62149   0.63680   0.64200   0.65563
 Alpha virt. eigenvalues --    0.67500   0.68786   0.70099   0.70147   0.72259
 Alpha virt. eigenvalues --    0.74102   0.75290   0.75363   0.75812   0.76684
 Alpha virt. eigenvalues --    0.77629   0.78613   0.79770   0.82550   0.84124
 Alpha virt. eigenvalues --    0.84392   0.84549   0.85653   0.87972   0.88576
 Alpha virt. eigenvalues --    0.89324   0.90420   0.90440   0.93219   0.93419
 Alpha virt. eigenvalues --    0.96536   0.98271   0.98987   0.99893   1.01467
 Alpha virt. eigenvalues --    1.05198   1.05638   1.07666   1.10446   1.10867
 Alpha virt. eigenvalues --    1.13136   1.13733   1.14076   1.14714   1.16965
 Alpha virt. eigenvalues --    1.17804   1.18541   1.19790   1.21320   1.24584
 Alpha virt. eigenvalues --    1.27183   1.29231   1.30798   1.34619   1.35408
 Alpha virt. eigenvalues --    1.36921   1.39412   1.42734   1.45781   1.47707
 Alpha virt. eigenvalues --    1.47923   1.50760   1.52759   1.53505   1.55302
 Alpha virt. eigenvalues --    1.61666   1.62631   1.63694   1.66218   1.66806
 Alpha virt. eigenvalues --    1.67444   1.69376   1.71182   1.71664   1.72899
 Alpha virt. eigenvalues --    1.75892   1.78902   1.79858   1.80537   1.82408
 Alpha virt. eigenvalues --    1.83030   1.83709   1.84883   1.88078   1.88874
 Alpha virt. eigenvalues --    1.90694   1.93638   1.94057   1.96730   1.96987
 Alpha virt. eigenvalues --    1.99247   2.00599   2.04581   2.11069   2.13146
 Alpha virt. eigenvalues --    2.17663   2.17996   2.19432   2.23989   2.28094
 Alpha virt. eigenvalues --    2.32983   2.37367   2.40330   2.44150   2.45825
 Alpha virt. eigenvalues --    2.46012   2.48053   2.51443   2.57548   2.67691
 Alpha virt. eigenvalues --    2.71055   2.72115   2.76286   2.76645   2.77037
 Alpha virt. eigenvalues --    2.78867   2.83894   2.91301   3.02889   3.07492
 Alpha virt. eigenvalues --    3.09469   3.12353   3.17411   3.21356   3.24304
 Alpha virt. eigenvalues --    3.40201   3.46746   3.53475   3.55790   3.66406
 Alpha virt. eigenvalues --    3.78240
          Condensed to atoms (all electrons):
 Mulliken charges:
               1
     1  C    0.853892
     2  H    0.061738
     3  Cl  -0.642951
     4  Cl  -0.643182
     5  C    0.799206
     6  H   -0.409847
     7  H    0.065437
     8  C   -0.374718
     9  N   -0.376650
    10  C    0.094040
    11  N   -0.426964
 Sum of Mulliken charges =  -1.00000
 Mulliken charges with hydrogens summed into heavy atoms:
               1
     1  C    0.444044
     3  Cl  -0.642951
     4  Cl  -0.643182
     5  C    0.926381
     8  C   -0.374718
     9  N   -0.376650
    10  C    0.094040
    11  N   -0.426964
 Electronic spatial extent (au):  <R**2>=           1650.8906
 Charge=             -1.0000 electrons
 Dipole moment (field-independent basis, Debye):
    X=             -2.4849    Y=              0.9296    Z=             -1.3569  Tot=              2.9799
 NROrb=    219 NOA=    38 NOB=    38 NVA=   181 NVB=   181

 **** Warning!!: The largest alpha MO coefficient is  0.80194768D+02

    12 initial guesses have been made.
 Iteration     1 Dimension    12 NMult     0 NNew     12
 New state      1 was old state      3
 Iteration     2 Dimension    24 NMult    12 NNew     12
 Iteration     3 Dimension    27 NMult    24 NNew      3
 Iteration     4 Dimension    30 NMult    27 NNew      3
 New state      1 was old state      2
 Iteration     5 Dimension    33 NMult    30 NNew      3
 Iteration     6 Dimension    36 NMult    33 NNew      3
 Iteration     7 Dimension    39 NMult    36 NNew      3
 Iteration     8 Dimension    42 NMult    39 NNew      3
 Iteration     9 Dimension    45 NMult    42 NNew      3
 Iteration    10 Dimension    48 NMult    45 NNew      3
 ***********************************************************************
 Stability analysis using <AA,BB:AA,BB> singles matrix:
 ***********************************************************************
 Ground to excited state transition densities written to RWF  633

 Eigenvectors of the stability matrix:
 
 Excited state symmetry could not be determined.
 Eigenvector   1:      Singlet-?Sym  Eigenvalue= 0.1844544  <S**2>=0.000
      29 -> 42         0.17301
      29 -> 68         0.10080
      30 -> 51        -0.10896
      30 -> 52         0.15076
      30 -> 58         0.10032
      32 -> 51        -0.12249
      32 -> 52         0.18068
      32 -> 58         0.11993
      33 -> 42         0.16385
      37 -> 42         0.37281
      37 -> 47        -0.13117
 The wavefunction is stable under the perturbations considered.
 The wavefunction is already stable.

 **********************************************************************

            Population analysis using the SCF Density.

 **********************************************************************

 Alpha  occ. eigenvalues -- -104.62867-104.62829 -15.48419 -15.48273 -11.28241
 Alpha  occ. eigenvalues --  -11.19802 -11.19552 -11.19015 -10.35417 -10.35380
 Alpha  occ. eigenvalues --   -7.82081  -7.82044  -7.81942  -7.81936  -7.81905
 Alpha  occ. eigenvalues --   -7.81899  -1.11679  -1.10889  -1.01819  -0.88462
 Alpha  occ. eigenvalues --   -0.87551  -0.82822  -0.64672  -0.59218  -0.54241
 Alpha  occ. eigenvalues --   -0.52135  -0.45994  -0.45038  -0.40646  -0.36441
 Alpha  occ. eigenvalues --   -0.35223  -0.34902  -0.30905  -0.27429  -0.26989
 Alpha  occ. eigenvalues --   -0.26943  -0.26459  -0.23759
 Alpha virt. eigenvalues --    0.13395   0.14993   0.15419   0.17071   0.17116
 Alpha virt. eigenvalues --    0.18972   0.20662   0.21346   0.21952   0.23073
 Alpha virt. eigenvalues --    0.23957   0.24819   0.25684   0.26487   0.26994
 Alpha virt. eigenvalues --    0.27608   0.28089   0.28380   0.28627   0.29737
 Alpha virt. eigenvalues --    0.30440   0.30470   0.31790   0.31904   0.32786
 Alpha virt. eigenvalues --    0.34225   0.34727   0.35107   0.36599   0.36771
 Alpha virt. eigenvalues --    0.38078   0.39338   0.39611   0.40140   0.43564
 Alpha virt. eigenvalues --    0.43997   0.44887   0.47730   0.48875   0.49435
 Alpha virt. eigenvalues --    0.49814   0.49948   0.51619   0.53010   0.55523
 Alpha virt. eigenvalues --    0.55950   0.58149   0.60075   0.60801   0.61292
 Alpha virt. eigenvalues --    0.62052   0.62149   0.63680   0.64200   0.65563
 Alpha virt. eigenvalues --    0.67500   0.68786   0.70099   0.70147   0.72259
 Alpha virt. eigenvalues --    0.74102   0.75290   0.75363   0.75812   0.76684
 Alpha virt. eigenvalues --    0.77629   0.78613   0.79770   0.82550   0.84124
 Alpha virt. eigenvalues --    0.84392   0.84549   0.85653   0.87972   0.88576
 Alpha virt. eigenvalues --    0.89324   0.90420   0.90440   0.93219   0.93419
 Alpha virt. eigenvalues --    0.96536   0.98271   0.98987   0.99893   1.01467
 Alpha virt. eigenvalues --    1.05198   1.05638   1.07666   1.10446   1.10867
 Alpha virt. eigenvalues --    1.13136   1.13733   1.14076   1.14714   1.16965
 Alpha virt. eigenvalues --    1.17804   1.18541   1.19790   1.21320   1.24584
 Alpha virt. eigenvalues --    1.27183   1.29231   1.30798   1.34619   1.35408
 Alpha virt. eigenvalues --    1.36921   1.39412   1.42734   1.45781   1.47707
 Alpha virt. eigenvalues --    1.47923   1.50760   1.52759   1.53505   1.55302
 Alpha virt. eigenvalues --    1.61666   1.62631   1.63694   1.66218   1.66806
 Alpha virt. eigenvalues --    1.67444   1.69376   1.71182   1.71664   1.72899
 Alpha virt. eigenvalues --    1.75892   1.78902   1.79858   1.80537   1.82408
 Alpha virt. eigenvalues --    1.83030   1.83709   1.84883   1.88078   1.88874
 Alpha virt. eigenvalues --    1.90694   1.93638   1.94057   1.96730   1.96987
 Alpha virt. eigenvalues --    1.99247   2.00599   2.04581   2.11069   2.13146
 Alpha virt. eigenvalues --    2.17663   2.17996   2.19432   2.23989   2.28094
 Alpha virt. eigenvalues --    2.32983   2.37367   2.40330   2.44150   2.45825
 Alpha virt. eigenvalues --    2.46012   2.48053   2.51443   2.57548   2.67691
 Alpha virt. eigenvalues --    2.71055   2.72115   2.76286   2.76645   2.77037
 Alpha virt. eigenvalues --    2.78867   2.83894   2.91301   3.02889   3.07492
 Alpha virt. eigenvalues --    3.09469   3.12353   3.17411   3.21356   3.24304
 Alpha virt. eigenvalues --    3.40201   3.46746   3.53475   3.55790   3.66406
 Alpha virt. eigenvalues --    3.78240
          Condensed to atoms (all electrons):
 Mulliken charges:
               1
     1  C    0.853892
     2  H    0.061738
     3  Cl  -0.642951
     4  Cl  -0.643182
     5  C    0.799206
     6  H   -0.409847
     7  H    0.065437
     8  C   -0.374718
     9  N   -0.376650
    10  C    0.094040
    11  N   -0.426964
 Sum of Mulliken charges =  -1.00000
 Mulliken charges with hydrogens summed into heavy atoms:
               1
     1  C    0.444044
     3  Cl  -0.642951
     4  Cl  -0.643182
     5  C    0.926381
     8  C   -0.374718
     9  N   -0.376650
    10  C    0.094040
    11  N   -0.426964
 Electronic spatial extent (au):  <R**2>=           1650.8906
 Charge=             -1.0000 electrons
 Dipole moment (field-independent basis, Debye):
    X=             -2.4849    Y=              0.9296    Z=             -1.3569  Tot=              2.9799
 Unable to Open any file for archive entry.
 1\1\GINC-SE366\Stability\RHF\Aug-CC-pVDZ\C4H3Cl2N2\OHZDE\09-Apr-2025\0
 \\#t hf aug-cc-pvdz symm=none int=(grid=ultrafine) guess=(read,tcheck)
  stable=(opt,rrhf)\\title\\-1,1\C,0,0.55996058,-0.05423102,-0.03983782
 \H,0,1.50622452,1.83544764,-0.44431066\Cl,0,-1.74753168,-0.23401771,-0
 .21254202\Cl,0,2.80095154,-0.1884911,0.55256536\C,0,0.55193671,1.46405
 123,-0.06996808\H,0,0.41491925,-0.6183811,0.85976323\H,0,-0.2489053,1.
 81462905,-0.7214483\C,0,0.77859057,-0.7303796,-1.28585012\N,0,0.960194
 71,-1.2356422,-2.33321968\C,0,0.33753633,2.02656857,1.25965963\N,0,0.1
 6688276,2.52169622,2.30940846\\Version=ES64L-G16RevC.01\HF=-1181.18264
 03\RMSD=4.897e-09\Dipole=0.0513523,0.8970663,-0.4206752\Quadrupole=-8.
 7229454,8.6430252,0.0799202,2.2012957,-1.874142,-12.2504919\PG=Unknown
 \\@
 The archive entry for this job was punched.


 The earth never tires,
 The earth is rude, silent, incomprehensible at first,
 Nature is rude and incomprehensible at first,
 Be not discouraged, keep on,
 There are divine things well envelop'd,
 I swear to you there are divine things more beautiful than words can tell.
                                 -- Walt Whitman
 Job cpu time:       0 days  0 hours  2 minutes 45.2 seconds.
 Elapsed time:       0 days  0 hours  0 minutes 20.0 seconds.
 File lengths (MBytes):  RWF=    300 Int=      0 D2E=      0 Chk=      8 Scr=      1
 Normal termination of Gaussian 16 at Wed Apr  9 02:42:32 2025.
 Initial command:
 /arc/software/Gaussian/g16.c01/l1.exe "/tmp/slurm/4859005/Gau-216378.inp" -scrdir="/tmp/slurm/4859005/"
 Entering Link 1 = /arc/software/Gaussian/g16.c01/l1.exe PID=    216593.
  
 Copyright (c) 1988-2019, Gaussian, Inc.  All Rights Reserved.
  
 This is part of the Gaussian(R) 16 program.  It is based on
 the Gaussian(R) 09 system (copyright 2009, Gaussian, Inc.),
 the Gaussian(R) 03 system (copyright 2003, Gaussian, Inc.),
 the Gaussian(R) 98 system (copyright 1998, Gaussian, Inc.),
 the Gaussian(R) 94 system (copyright 1995, Gaussian, Inc.),
 the Gaussian 92(TM) system (copyright 1992, Gaussian, Inc.),
 the Gaussian 90(TM) system (copyright 1990, Gaussian, Inc.),
 the Gaussian 88(TM) system (copyright 1988, Gaussian, Inc.),
 the Gaussian 86(TM) system (copyright 1986, Carnegie Mellon
 University), and the Gaussian 82(TM) system (copyright 1983,
 Carnegie Mellon University). Gaussian is a federally registered
 trademark of Gaussian, Inc.
  
 This software contains proprietary and confidential information,
 including trade secrets, belonging to Gaussian, Inc.
  
 This software is provided under written license and may be
 used, copied, transmitted, or stored only in accord with that
 written license.
  
 The following legend is applicable only to US Government
 contracts under FAR:
  
                    RESTRICTED RIGHTS LEGEND
  
 Use, reproduction and disclosure by the US Government is
 subject to restrictions as set forth in subparagraphs (a)
 and (c) of the Commercial Computer Software - Restricted
 Rights clause in FAR 52.227-19.
  
 Gaussian, Inc.
 340 Quinnipiac St., Bldg. 40, Wallingford CT 06492
  
  
 ---------------------------------------------------------------
 Warning -- This program may not be used in any manner that
 competes with the business of Gaussian, Inc. or will provide
 assistance to any competitor of Gaussian, Inc.  The licensee
 of this program is prohibited from giving any competitor of
 Gaussian, Inc. access to this program.  By using this program,
 the user acknowledges that Gaussian, Inc. is engaged in the
 business of creating and licensing software in the field of
 computational chemistry and represents and warrants to the
 licensee that it is not a competitor of Gaussian, Inc. and that
 it will not use this program in any manner prohibited above.
 ---------------------------------------------------------------
  

 Cite this work as:
 Gaussian 16, Revision C.01,
 M. J. Frisch, G. W. Trucks, H. B. Schlegel, G. E. Scuseria, 
 M. A. Robb, J. R. Cheeseman, G. Scalmani, V. Barone, 
 G. A. Petersson, H. Nakatsuji, X. Li, M. Caricato, A. V. Marenich, 
 J. Bloino, B. G. Janesko, R. Gomperts, B. Mennucci, H. P. Hratchian, 
 J. V. Ortiz, A. F. Izmaylov, J. L. Sonnenberg, D. Williams-Young, 
 F. Ding, F. Lipparini, F. Egidi, J. Goings, B. Peng, A. Petrone, 
 T. Henderson, D. Ranasinghe, V. G. Zakrzewski, J. Gao, N. Rega, 
 G. Zheng, W. Liang, M. Hada, M. Ehara, K. Toyota, R. Fukuda, 
 J. Hasegawa, M. Ishida, T. Nakajima, Y. Honda, O. Kitao, H. Nakai, 
 T. Vreven, K. Throssell, J. A. Montgomery, Jr., J. E. Peralta, 
 F. Ogliaro, M. J. Bearpark, J. J. Heyd, E. N. Brothers, K. N. Kudin, 
 V. N. Staroverov, T. A. Keith, R. Kobayashi, J. Normand, 
 K. Raghavachari, A. P. Rendell, J. C. Burant, S. S. Iyengar, 
 J. Tomasi, M. Cossi, J. M. Millam, M. Klene, C. Adamo, R. Cammi, 
 J. W. Ochterski, R. L. Martin, K. Morokuma, O. Farkas, 
 J. B. Foresman, and D. J. Fox, Gaussian, Inc., Wallingford CT, 2019.
 
 ******************************************
 Gaussian 16:  ES64L-G16RevC.01  3-Jul-2019
                 9-Apr-2025 
 ******************************************
 %nprocs=16
 Will use up to   16 processors via shared memory.
 %mem=30GB
 %chk=E2SN2_252_mol1.chk
 ----------------------------------------------------------------------
 #t hf aug-cc-pvdz iop(5/13=1,5/36=2,99/5=2) pseudo=read geom=check gue
 ss=(read,tcheck) scf=(maxcycle=1)
 ----------------------------------------------------------------------
 -----
 title
 -----
 Structure from the checkpoint file:  "E2SN2_252_mol1.chk"
 Charge = -1 Multiplicity = 1
 Z-Matrix found in chk file.
 C,0,0.55996058,-0.05423102,-0.03983782
 H,0,1.50622452,1.83544764,-0.44431066
 Cl,0,-1.74753168,-0.23401771,-0.21254202
 Cl,0,2.80095154,-0.1884911,0.55256536
 C,0,0.55193671,1.46405123,-0.06996808
 H,0,0.41491925,-0.6183811,0.85976323
 H,0,-0.2489053,1.81462905,-0.7214483
 C,0,0.77859057,-0.7303796,-1.28585012
 N,0,0.96019471,-1.2356422,-2.33321968
 C,0,0.33753633,2.02656857,1.25965963
 N,0,0.16688276,2.52169622,2.30940846
 Recover connectivity data from disk.
                    Distance matrix (angstroms):
                    1          2          3          4          5
     1  C    0.000000
     2  H    2.151720   0.000000
     3  Cl   2.320920   3.863073   0.000000
     4  Cl   2.321854   2.601232   4.612609   0.000000
     5  C    1.518602   1.090290   2.862048   2.859460   0.000000
     6  H    1.071720   2.985437   2.444129   2.443834   2.284666
     7  H    2.147439   1.776997   2.588787   3.864871   1.090266
     8  C    1.434407   2.796625   2.789204   2.786280   2.518981
     9  N    2.610655   3.646604   3.582221   3.579479   3.546453
    10  C    2.463309   2.075060   3.409565   3.387460   1.459556
    11  N    3.508400   3.138111   4.197520   4.167725   2.632169
                    6          7          8          9         10
     6  H    0.000000
     7  H    2.976648   0.000000
     8  C    2.179095   2.802029   0.000000
     9  N    3.297495   3.655665   1.176968   0.000000
    10  C    2.676129   2.076926   3.778215   4.892699   0.000000
    11  N    3.467431   3.139891   4.886314   6.025025   1.173135
                   11
    11  N    0.000000
 Framework group  C1[X(C4H3Cl2N2)]
 Deg. of freedom    27
                         Standard orientation:                         
 ---------------------------------------------------------------------
 Center     Atomic      Atomic             Coordinates (Angstroms)
 Number     Number       Type             X           Y           Z
 ---------------------------------------------------------------------
      1          6           0        0.042411   -0.304876   -0.167116
      2          1           0       -0.950258    0.509058    1.559737
      3         17           0        2.325955    0.018143   -0.427414
      4         17           0       -2.251783   -0.547964   -0.429018
      5          6           0       -0.088751    0.735718    0.931116
      6          1           0        0.011481   -0.056920   -1.209299
      7          1           0        0.811947    0.737423    1.545461
      8          6           0        0.208733   -1.669212    0.243306
      9          7           0        0.344547   -2.771507    0.632863
     10          6           0       -0.269109    2.076086    0.382310
     11          7           0       -0.415090    3.170234   -0.014899
 ---------------------------------------------------------------------
 Rotational constants (GHZ):           1.2950675           1.2277730           0.6960839
 ======================================================================================================
                                       Pseudopotential Parameters
 ======================================================================================================
  Center     Atomic      Valence      Angular      Power
  Number     Number     Electrons     Momentum     of R      Exponent        Coefficient   SO-Coeffient
 ======================================================================================================
    1          6            6
                                      G and up 
                                                     0        0.0000010       -0.00011185    0.00000000
                                                     2        0.1200000       -0.02301220    0.00000000
                                                     2        0.1400000        0.13317600    0.00000000
                                                     2        0.1600000       -0.19690668    0.00000000
                                                     2        0.2200000        0.23163694    0.00000000
                                                     2        0.3000000       -0.36920489    0.00000000
                                                     2        0.4000000        0.36389709    0.00000000
                                                     2        0.7000000       -0.38862160    0.00000000
                                                     2        1.3000000        0.80803421    0.00000000
                                      S - G
                                                     0        0.0000010        0.00312304    0.00000000
                                                     2        0.1200000       -0.00632892    0.00000000
                                                     2        0.2200000       -0.03780897    0.00000000
                                                     2        0.4000000        0.26269560    0.00000000
                                                     2        0.9000000       -0.28209514    0.00000000
                                                     2        1.5000000       -0.72686737    0.00000000
                                      P - G
                                                     0        0.0000010       -0.01465594    0.00000000
                                                     2        0.1200000        0.07908409    0.00000000
                                                     2        0.1800000       -0.30615861    0.00000000
                                                     2        0.2600000        0.41506950    0.00000000
                                                     2        0.5000000       -0.36252345    0.00000000
                                                     2        0.9000000        0.15124193    0.00000000
                                                     2        3.0000000       -0.80425677    0.00000000
                                      D - G
                                                     0        0.0000010        0.01149631    0.00000000
                                                     2        0.1200000       -0.04713561    0.00000000
                                                     2        0.1600000        0.10865096    0.00000000
                                                     2        0.2800000       -0.15816701    0.00000000
                                                     2        0.7000000        0.65478804    0.00000000
                                                     2        1.3000000       -1.73816624    0.00000000
                                      F - G
                                                     0        0.0000010        0.00481868    0.00000000
                                                     2        0.1200000       -0.04746842    0.00000000
                                                     2        0.1600000        0.09327889    0.00000000
                                                     2        0.4000000       -0.19693326    0.00000000
                                                     2        0.9000000        0.34938253    0.00000000
    2          1            1
                                      F and up 
                                                     0        0.0000010       -0.00000699    0.00000000
                                                     2        0.1200000        0.00123686    0.00000000
                                                     2        0.1800000       -0.00752022    0.00000000
                                                     2        0.2600000        0.02503380    0.00000000
                                                     2        0.4000000       -0.08702670    0.00000000
                                                     2        0.6000000        0.30134159    0.00000000
                                                     2        0.8000000       -0.50204959    0.00000000
                                                     2        1.2000000        0.52208372    0.00000000
                                      S - F
                                                     0        0.0000010       -0.01618346    0.00000000
                                                     2        0.1200000       -0.07880581    0.00000000
                                                     2        0.1600000        0.32040539    0.00000000
                                                     2        0.2400000       -0.47500956    0.00000000
                                                     2        0.5000000        0.54013668    0.00000000
                                                     2        1.5000000       -1.40434292    0.00000000
                                                     2        3.0000000        1.46283806    0.00000000
                                      P - F
                                                     0        0.0000010        0.00612970    0.00000000
                                                     2        0.1200000        0.02254406    0.00000000
                                                     2        0.1800000       -0.13874529    0.00000000
                                                     2        0.3000000        0.38299049    0.00000000
                                                     2        0.5000000       -0.57923512    0.00000000
                                                     2        1.0000000        0.63021625    0.00000000
                                                     2        2.0000000       -0.79201034    0.00000000
                                      D - F
                                                     0        0.0000010       -0.00296226    0.00000000
                                                     2        0.1200000       -0.00547344    0.00000000
                                                     2        0.1400000        0.01837884    0.00000000
                                                     2        0.2400000       -0.05565704    0.00000000
                                                     2        0.4000000        0.15376597    0.00000000
                                                     2        0.8000000       -0.32464795    0.00000000
    3         17           17
                                      G and up 
                                                     0        0.0000010       -0.00005841    0.00000000
                                                     2        0.1200000       -0.00031502    0.00000000
                                                     2        0.1400000        0.00458821    0.00000000
                                                     2        0.2600000       -0.03604686    0.00000000
                                                     2        0.4000000        0.03832573    0.00000000
                                                     2        1.1000000       -0.21042623    0.00000000
                                      S - G
                                                     0        0.0000010        0.00274387    0.00000000
                                                     2        0.1800000        0.09962839    0.00000000
                                                     2        0.4000000       -0.20830181    0.00000000
                                      P - G
                                                     0        0.0000010       -0.01867126    0.00000000
                                                     2        0.1200000        0.19610675    0.00000000
                                                     2        0.1600000       -0.37005054    0.00000000
                                                     2        0.3000000        0.29573883    0.00000000
                                      D - G
                                                     0        0.0000010        0.06766179    0.00000000
                                                     2        0.1200000       -0.07333140    0.00000000
                                                     2        0.2200000        0.05439691    0.00000000
                                      F - G
                                                     0        0.0000010       -0.02719671    0.00000000
                                                     2        0.1200000       -0.06013675    0.00000000
                                                     2        0.2000000        0.35339430    0.00000000
                                                     2        0.4000000       -0.66518555    0.00000000
    4         17           17
                                      G and up 
                                                     0        0.0000010       -0.00005841    0.00000000
                                                     2        0.1200000       -0.00031502    0.00000000
                                                     2        0.1400000        0.00458821    0.00000000
                                                     2        0.2600000       -0.03604686    0.00000000
                                                     2        0.4000000        0.03832573    0.00000000
                                                     2        1.1000000       -0.21042623    0.00000000
                                      S - G
                                                     0        0.0000010        0.00274387    0.00000000
                                                     2        0.1800000        0.09962839    0.00000000
                                                     2        0.4000000       -0.20830181    0.00000000
                                      P - G
                                                     0        0.0000010       -0.01867126    0.00000000
                                                     2        0.1200000        0.19610675    0.00000000
                                                     2        0.1600000       -0.37005054    0.00000000
                                                     2        0.3000000        0.29573883    0.00000000
                                      D - G
                                                     0        0.0000010        0.06766179    0.00000000
                                                     2        0.1200000       -0.07333140    0.00000000
                                                     2        0.2200000        0.05439691    0.00000000
                                      F - G
                                                     0        0.0000010       -0.02719671    0.00000000
                                                     2        0.1200000       -0.06013675    0.00000000
                                                     2        0.2000000        0.35339430    0.00000000
                                                     2        0.4000000       -0.66518555    0.00000000
    5          6            6
                                      G and up 
                                                     0        0.0000010       -0.00011185    0.00000000
                                                     2        0.1200000       -0.02301220    0.00000000
                                                     2        0.1400000        0.13317600    0.00000000
                                                     2        0.1600000       -0.19690668    0.00000000
                                                     2        0.2200000        0.23163694    0.00000000
                                                     2        0.3000000       -0.36920489    0.00000000
                                                     2        0.4000000        0.36389709    0.00000000
                                                     2        0.7000000       -0.38862160    0.00000000
                                                     2        1.3000000        0.80803421    0.00000000
                                      S - G
                                                     0        0.0000010        0.00312304    0.00000000
                                                     2        0.1200000       -0.00632892    0.00000000
                                                     2        0.2200000       -0.03780897    0.00000000
                                                     2        0.4000000        0.26269560    0.00000000
                                                     2        0.9000000       -0.28209514    0.00000000
                                                     2        1.5000000       -0.72686737    0.00000000
                                      P - G
                                                     0        0.0000010       -0.01465594    0.00000000
                                                     2        0.1200000        0.07908409    0.00000000
                                                     2        0.1800000       -0.30615861    0.00000000
                                                     2        0.2600000        0.41506950    0.00000000
                                                     2        0.5000000       -0.36252345    0.00000000
                                                     2        0.9000000        0.15124193    0.00000000
                                                     2        3.0000000       -0.80425677    0.00000000
                                      D - G
                                                     0        0.0000010        0.01149631    0.00000000
                                                     2        0.1200000       -0.04713561    0.00000000
                                                     2        0.1600000        0.10865096    0.00000000
                                                     2        0.2800000       -0.15816701    0.00000000
                                                     2        0.7000000        0.65478804    0.00000000
                                                     2        1.3000000       -1.73816624    0.00000000
                                      F - G
                                                     0        0.0000010        0.00481868    0.00000000
                                                     2        0.1200000       -0.04746842    0.00000000
                                                     2        0.1600000        0.09327889    0.00000000
                                                     2        0.4000000       -0.19693326    0.00000000
                                                     2        0.9000000        0.34938253    0.00000000
    6          1            1
                                      F and up 
                                                     0        0.0000010       -0.00000699    0.00000000
                                                     2        0.1200000        0.00123686    0.00000000
                                                     2        0.1800000       -0.00752022    0.00000000
                                                     2        0.2600000        0.02503380    0.00000000
                                                     2        0.4000000       -0.08702670    0.00000000
                                                     2        0.6000000        0.30134159    0.00000000
                                                     2        0.8000000       -0.50204959    0.00000000
                                                     2        1.2000000        0.52208372    0.00000000
                                      S - F
                                                     0        0.0000010       -0.01618346    0.00000000
                                                     2        0.1200000       -0.07880581    0.00000000
                                                     2        0.1600000        0.32040539    0.00000000
                                                     2        0.2400000       -0.47500956    0.00000000
                                                     2        0.5000000        0.54013668    0.00000000
                                                     2        1.5000000       -1.40434292    0.00000000
                                                     2        3.0000000        1.46283806    0.00000000
                                      P - F
                                                     0        0.0000010        0.00612970    0.00000000
                                                     2        0.1200000        0.02254406    0.00000000
                                                     2        0.1800000       -0.13874529    0.00000000
                                                     2        0.3000000        0.38299049    0.00000000
                                                     2        0.5000000       -0.57923512    0.00000000
                                                     2        1.0000000        0.63021625    0.00000000
                                                     2        2.0000000       -0.79201034    0.00000000
                                      D - F
                                                     0        0.0000010       -0.00296226    0.00000000
                                                     2        0.1200000       -0.00547344    0.00000000
                                                     2        0.1400000        0.01837884    0.00000000
                                                     2        0.2400000       -0.05565704    0.00000000
                                                     2        0.4000000        0.15376597    0.00000000
                                                     2        0.8000000       -0.32464795    0.00000000
    7          1            1
                                      F and up 
                                                     0        0.0000010       -0.00000699    0.00000000
                                                     2        0.1200000        0.00123686    0.00000000
                                                     2        0.1800000       -0.00752022    0.00000000
                                                     2        0.2600000        0.02503380    0.00000000
                                                     2        0.4000000       -0.08702670    0.00000000
                                                     2        0.6000000        0.30134159    0.00000000
                                                     2        0.8000000       -0.50204959    0.00000000
                                                     2        1.2000000        0.52208372    0.00000000
                                      S - F
                                                     0        0.0000010       -0.01618346    0.00000000
                                                     2        0.1200000       -0.07880581    0.00000000
                                                     2        0.1600000        0.32040539    0.00000000
                                                     2        0.2400000       -0.47500956    0.00000000
                                                     2        0.5000000        0.54013668    0.00000000
                                                     2        1.5000000       -1.40434292    0.00000000
                                                     2        3.0000000        1.46283806    0.00000000
                                      P - F
                                                     0        0.0000010        0.00612970    0.00000000
                                                     2        0.1200000        0.02254406    0.00000000
                                                     2        0.1800000       -0.13874529    0.00000000
                                                     2        0.3000000        0.38299049    0.00000000
                                                     2        0.5000000       -0.57923512    0.00000000
                                                     2        1.0000000        0.63021625    0.00000000
                                                     2        2.0000000       -0.79201034    0.00000000
                                      D - F
                                                     0        0.0000010       -0.00296226    0.00000000
                                                     2        0.1200000       -0.00547344    0.00000000
                                                     2        0.1400000        0.01837884    0.00000000
                                                     2        0.2400000       -0.05565704    0.00000000
                                                     2        0.4000000        0.15376597    0.00000000
                                                     2        0.8000000       -0.32464795    0.00000000
    8          6            6
                                      G and up 
                                                     0        0.0000010       -0.00011185    0.00000000
                                                     2        0.1200000       -0.02301220    0.00000000
                                                     2        0.1400000        0.13317600    0.00000000
                                                     2        0.1600000       -0.19690668    0.00000000
                                                     2        0.2200000        0.23163694    0.00000000
                                                     2        0.3000000       -0.36920489    0.00000000
                                                     2        0.4000000        0.36389709    0.00000000
                                                     2        0.7000000       -0.38862160    0.00000000
                                                     2        1.3000000        0.80803421    0.00000000
                                      S - G
                                                     0        0.0000010        0.00312304    0.00000000
                                                     2        0.1200000       -0.00632892    0.00000000
                                                     2        0.2200000       -0.03780897    0.00000000
                                                     2        0.4000000        0.26269560    0.00000000
                                                     2        0.9000000       -0.28209514    0.00000000
                                                     2        1.5000000       -0.72686737    0.00000000
                                      P - G
                                                     0        0.0000010       -0.01465594    0.00000000
                                                     2        0.1200000        0.07908409    0.00000000
                                                     2        0.1800000       -0.30615861    0.00000000
                                                     2        0.2600000        0.41506950    0.00000000
                                                     2        0.5000000       -0.36252345    0.00000000
                                                     2        0.9000000        0.15124193    0.00000000
                                                     2        3.0000000       -0.80425677    0.00000000
                                      D - G
                                                     0        0.0000010        0.01149631    0.00000000
                                                     2        0.1200000       -0.04713561    0.00000000
                                                     2        0.1600000        0.10865096    0.00000000
                                                     2        0.2800000       -0.15816701    0.00000000
                                                     2        0.7000000        0.65478804    0.00000000
                                                     2        1.3000000       -1.73816624    0.00000000
                                      F - G
                                                     0        0.0000010        0.00481868    0.00000000
                                                     2        0.1200000       -0.04746842    0.00000000
                                                     2        0.1600000        0.09327889    0.00000000
                                                     2        0.4000000       -0.19693326    0.00000000
                                                     2        0.9000000        0.34938253    0.00000000
    9          7            7
                                      G and up 
                                                     0        0.0000010       -0.00000022    0.00000000
                                                     2        0.1200000       -0.00992020    0.00000000
                                                     2        0.1400000        0.02578711    0.00000000
                                                     2        0.2200000       -0.10543517    0.00000000
                                                     2        0.3000000        0.23013665    0.00000000
                                                     2        0.5000000       -0.60834094    0.00000000
                                                     2        0.8000000        1.81436815    0.00000000
                                                     2        1.2000000       -3.87539738    0.00000000
                                                     2        2.0000000        2.94656640    0.00000000
                                      S - G
                                                     0        0.0000010       -0.00223566    0.00000000
                                                     2        0.1200000        0.45247937    0.00000000
                                                     2        0.1600000       -0.78978304    0.00000000
                                                     2        0.4000000        0.84956595    0.00000000
                                                     2        3.0000000       -0.75910174    0.00000000
                                      P - G
                                                     0        0.0000010       -0.25576737    0.00000000
                                                     2        0.1200000       -0.19992277    0.00000000
                                                     2        0.1600000        0.88518512    0.00000000
                                                     2        0.2400000       -1.33293917    0.00000000
                                                     2        0.4000000        1.33451776    0.00000000
                                                     2        0.9000000       -0.55709210    0.00000000
                                                     2        2.5000000        2.48506502    0.00000000
                                      D - G
                                                     0        0.0000010        0.26143746    0.00000000
                                                     2        0.1200000       -0.04492212    0.00000000
                                                     2        0.1400000       -0.18274021    0.00000000
                                                     2        0.2400000        0.53490004    0.00000000
                                                     2        0.4000000       -0.74136473    0.00000000
                                                     2        1.3000000        1.71401021    0.00000000
                                      F - G
                                                     0        0.0000010       -0.07169988    0.00000000
                                                     2        0.1200000        0.04480029    0.00000000
                                                     2        0.2600000       -0.08050831    0.00000000
                                                     2        0.5000000        0.31290809    0.00000000
                                                     2        1.0000000       -0.45253098    0.00000000
   10          6            6
                                      G and up 
                                                     0        0.0000010       -0.00011185    0.00000000
                                                     2        0.1200000       -0.02301220    0.00000000
                                                     2        0.1400000        0.13317600    0.00000000
                                                     2        0.1600000       -0.19690668    0.00000000
                                                     2        0.2200000        0.23163694    0.00000000
                                                     2        0.3000000       -0.36920489    0.00000000
                                                     2        0.4000000        0.36389709    0.00000000
                                                     2        0.7000000       -0.38862160    0.00000000
                                                     2        1.3000000        0.80803421    0.00000000
                                      S - G
                                                     0        0.0000010        0.00312304    0.00000000
                                                     2        0.1200000       -0.00632892    0.00000000
                                                     2        0.2200000       -0.03780897    0.00000000
                                                     2        0.4000000        0.26269560    0.00000000
                                                     2        0.9000000       -0.28209514    0.00000000
                                                     2        1.5000000       -0.72686737    0.00000000
                                      P - G
                                                     0        0.0000010       -0.01465594    0.00000000
                                                     2        0.1200000        0.07908409    0.00000000
                                                     2        0.1800000       -0.30615861    0.00000000
                                                     2        0.2600000        0.41506950    0.00000000
                                                     2        0.5000000       -0.36252345    0.00000000
                                                     2        0.9000000        0.15124193    0.00000000
                                                     2        3.0000000       -0.80425677    0.00000000
                                      D - G
                                                     0        0.0000010        0.01149631    0.00000000
                                                     2        0.1200000       -0.04713561    0.00000000
                                                     2        0.1600000        0.10865096    0.00000000
                                                     2        0.2800000       -0.15816701    0.00000000
                                                     2        0.7000000        0.65478804    0.00000000
                                                     2        1.3000000       -1.73816624    0.00000000
                                      F - G
                                                     0        0.0000010        0.00481868    0.00000000
                                                     2        0.1200000       -0.04746842    0.00000000
                                                     2        0.1600000        0.09327889    0.00000000
                                                     2        0.4000000       -0.19693326    0.00000000
                                                     2        0.9000000        0.34938253    0.00000000
   11          7            7
                                      G and up 
                                                     0        0.0000010       -0.00000022    0.00000000
                                                     2        0.1200000       -0.00992020    0.00000000
                                                     2        0.1400000        0.02578711    0.00000000
                                                     2        0.2200000       -0.10543517    0.00000000
                                                     2        0.3000000        0.23013665    0.00000000
                                                     2        0.5000000       -0.60834094    0.00000000
                                                     2        0.8000000        1.81436815    0.00000000
                                                     2        1.2000000       -3.87539738    0.00000000
                                                     2        2.0000000        2.94656640    0.00000000
                                      S - G
                                                     0        0.0000010       -0.00223566    0.00000000
                                                     2        0.1200000        0.45247937    0.00000000
                                                     2        0.1600000       -0.78978304    0.00000000
                                                     2        0.4000000        0.84956595    0.00000000
                                                     2        3.0000000       -0.75910174    0.00000000
                                      P - G
                                                     0        0.0000010       -0.25576737    0.00000000
                                                     2        0.1200000       -0.19992277    0.00000000
                                                     2        0.1600000        0.88518512    0.00000000
                                                     2        0.2400000       -1.33293917    0.00000000
                                                     2        0.4000000        1.33451776    0.00000000
                                                     2        0.9000000       -0.55709210    0.00000000
                                                     2        2.5000000        2.48506502    0.00000000
                                      D - G
                                                     0        0.0000010        0.26143746    0.00000000
                                                     2        0.1200000       -0.04492212    0.00000000
                                                     2        0.1400000       -0.18274021    0.00000000
                                                     2        0.2400000        0.53490004    0.00000000
                                                     2        0.4000000       -0.74136473    0.00000000
                                                     2        1.3000000        1.71401021    0.00000000
                                      F - G
                                                     0        0.0000010       -0.07169988    0.00000000
                                                     2        0.1200000        0.04480029    0.00000000
                                                     2        0.2600000       -0.08050831    0.00000000
                                                     2        0.5000000        0.31290809    0.00000000
                                                     2        1.0000000       -0.45253098    0.00000000
 ======================================================================================================
   219 basis functions,   453 primitive gaussians,   235 cartesian basis functions
    38 alpha electrons       38 beta electrons
       nuclear repulsion energy       440.4519929769 Hartrees.
 NAtoms=   11 NActive=   11 NUniq=   11 SFac= 1.00D+00 NAtFMM=   60 NAOKFM=F Big=F
   1 Symmetry operations used in ECPInt.
 ECPInt:  NShTT=    4186 NPrTT=   30658 LenC2=    4150 LenP2D=   20266.
 LDataN:  DoStor=T MaxTD1= 6 Len=  172
 Initial guess from the checkpoint file:  "E2SN2_252_mol1.chk"
 B after Tr=     1.070850   -0.194973   -0.411295
         Rot=    0.098175   -0.093116    0.916016    0.377631 Ang=-168.73 deg.
 >>>>>>>>>> Convergence criterion not met.
 SCF Done:  E(RHF) =  -1181.28645106     A.U. after    2 cycles
            NFock=  1  Conv=0.56D-02     -V/T= 1.9989

 **********************************************************************

            Population analysis using the SCF Density.

 **********************************************************************

 Orbital symmetries:
       Occupied  (A) (A) (A) (A) (A) (A) (A) (A) (A) (A) (A) (A)
                 (A) (A) (A) (A) (A) (A) (A) (A) (A) (A) (A) (A)
                 (A) (A) (A) (A) (A) (A) (A) (A) (A) (A) (A) (A)
                 (A) (A)
       Virtual   (A) (A) (A) (A) (A) (A) (A) (A) (A) (A) (A) (A)
                 (A) (A) (A) (A) (A) (A) (A) (A) (A) (A) (A) (A)
                 (A) (A) (A) (A) (A) (A) (A) (A) (A) (A) (A) (A)
                 (A) (A) (A) (A) (A) (A) (A) (A) (A) (A) (A) (A)
                 (A) (A) (A) (A) (A) (A) (A) (A) (A) (A) (A) (A)
                 (A) (A) (A) (A) (A) (A) (A) (A) (A) (A) (A) (A)
                 (A) (A) (A) (A) (A) (A) (A) (A) (A) (A) (A) (A)
                 (A) (A) (A) (A) (A) (A) (A) (A) (A) (A) (A) (A)
                 (A) (A) (A) (A) (A) (A) (A) (A) (A) (A) (A) (A)
                 (A) (A) (A) (A) (A) (A) (A) (A) (A) (A) (A) (A)
                 (A) (A) (A) (A) (A) (A) (A) (A) (A) (A) (A) (A)
                 (A) (A) (A) (A) (A) (A) (A) (A) (A) (A) (A) (A)
                 (A) (A) (A) (A) (A) (A) (A) (A) (A) (A) (A) (A)
                 (A) (A) (A) (A) (A) (A) (A) (A) (A) (A) (A) (A)
                 (A) (A) (A) (A) (A) (A) (A) (A) (A) (A) (A) (A)
                 (A)
 The electronic state is 1-A.
 Alpha  occ. eigenvalues -- -103.45544-103.45506 -15.54155 -15.54012 -11.28587
 Alpha  occ. eigenvalues --  -11.20168 -11.19986 -11.19453 -10.48784 -10.48746
 Alpha  occ. eigenvalues --   -8.14419  -8.14381  -8.14281  -8.14275  -8.14243
 Alpha  occ. eigenvalues --   -8.14237  -1.08857  -1.07718  -1.00950  -0.91925
 Alpha  occ. eigenvalues --   -0.90770  -0.84319  -0.64948  -0.59248  -0.54725
 Alpha  occ. eigenvalues --   -0.52478  -0.44927  -0.44179  -0.41012  -0.36329
 Alpha  occ. eigenvalues --   -0.35101  -0.34797  -0.31655  -0.28627  -0.28152
 Alpha  occ. eigenvalues --   -0.28143  -0.27408  -0.24972
 Alpha virt. eigenvalues --    0.13273   0.14885   0.15374   0.16489   0.17243
 Alpha virt. eigenvalues --    0.18988   0.20359   0.21510   0.21793   0.23091
 Alpha virt. eigenvalues --    0.24025   0.24542   0.25713   0.26317   0.26805
 Alpha virt. eigenvalues --    0.27520   0.28105   0.28466   0.28752   0.29840
 Alpha virt. eigenvalues --    0.30482   0.30509   0.31844   0.31856   0.32807
 Alpha virt. eigenvalues --    0.34273   0.34714   0.35174   0.36496   0.36538
 Alpha virt. eigenvalues --    0.37924   0.39305   0.39585   0.40145   0.43457
 Alpha virt. eigenvalues --    0.43949   0.44859   0.47517   0.48717   0.49236
 Alpha virt. eigenvalues --    0.49708   0.49780   0.51593   0.52831   0.55389
 Alpha virt. eigenvalues --    0.55756   0.57722   0.59580   0.60604   0.60988
 Alpha virt. eigenvalues --    0.61693   0.61951   0.63206   0.63931   0.65204
 Alpha virt. eigenvalues --    0.67189   0.68318   0.69604   0.69788   0.71693
 Alpha virt. eigenvalues --    0.73911   0.74859   0.75157   0.75426   0.76267
 Alpha virt. eigenvalues --    0.77376   0.78212   0.79598   0.81913   0.83834
 Alpha virt. eigenvalues --    0.84074   0.84186   0.85501   0.87806   0.88196
 Alpha virt. eigenvalues --    0.89170   0.90120   0.90248   0.93270   0.93414
 Alpha virt. eigenvalues --    0.96293   0.98085   0.98860   0.99853   1.01220
 Alpha virt. eigenvalues --    1.05013   1.05647   1.07594   1.10366   1.10640
 Alpha virt. eigenvalues --    1.13120   1.13598   1.13881   1.14634   1.16807
 Alpha virt. eigenvalues --    1.17484   1.17607   1.19323   1.20022   1.23395
 Alpha virt. eigenvalues --    1.26542   1.27954   1.30006   1.34045   1.34688
 Alpha virt. eigenvalues --    1.35837   1.37915   1.42059   1.45143   1.46593
 Alpha virt. eigenvalues --    1.47028   1.49142   1.52060   1.52646   1.55064
 Alpha virt. eigenvalues --    1.60744   1.61639   1.62739   1.65332   1.65871
 Alpha virt. eigenvalues --    1.66674   1.68279   1.70168   1.70622   1.71879
 Alpha virt. eigenvalues --    1.75073   1.77701   1.78864   1.79221   1.81551
 Alpha virt. eigenvalues --    1.82085   1.82688   1.84103   1.87697   1.88074
 Alpha virt. eigenvalues --    1.90300   1.93002   1.93222   1.95977   1.96362
 Alpha virt. eigenvalues --    1.98127   1.99569   2.04016   2.10867   2.12234
 Alpha virt. eigenvalues --    2.17145   2.17375   2.19252   2.24335   2.27806
 Alpha virt. eigenvalues --    2.32421   2.37183   2.39713   2.43852   2.45033
 Alpha virt. eigenvalues --    2.45920   2.48154   2.50964   2.57457   2.68445
 Alpha virt. eigenvalues --    2.72684   2.74430   2.83986   2.87642   2.88263
 Alpha virt. eigenvalues --    2.88502   2.89587   2.94015   3.03519   3.07815
 Alpha virt. eigenvalues --    3.11561   3.14053   3.24432   3.28766   3.31583
 Alpha virt. eigenvalues --    3.44522   3.45768   3.55162   3.59910   3.70018
 Alpha virt. eigenvalues --    3.79864
          Condensed to atoms (all electrons):
 Mulliken charges:
               1
     1  C    1.032140
     2  H    0.065466
     3  Cl  -0.621652
     4  Cl  -0.621907
     5  C    0.644571
     6  H   -0.465350
     7  H    0.068363
     8  C   -0.601343
     9  N   -0.216353
    10  C    0.004372
    11  N   -0.288306
 Sum of Mulliken charges =  -1.00000
 Mulliken charges with hydrogens summed into heavy atoms:
               1
     1  C    0.566790
     3  Cl  -0.621652
     4  Cl  -0.621907
     5  C    0.778399
     8  C   -0.601343
     9  N   -0.216353
    10  C    0.004372
    11  N   -0.288306
 Electronic spatial extent (au):  <R**2>=           1546.8081
 Charge=             -1.0000 electrons
 Dipole moment (field-independent basis, Debye):
    X=             -0.0737    Y=              0.7966    Z=              2.4205  Tot=              2.5493

 Test job not archived.
 1\1\GINC-SE366\SP\RHF\Aug-CC-pVDZ\C4H3Cl2N2(1-)\OHZDE\09-Apr-2025\0\\#
 t hf aug-cc-pvdz iop(5/13=1,5/36=2,99/5=2) pseudo=read geom=check gues
 s=(read,tcheck) scf=(maxcycle=1)\\title\\-1,1\C,0,0.55996058,-0.054231
 02,-0.03983782\H,0,1.50622452,1.83544764,-0.44431066\Cl,0,-1.74753168,
 -0.23401771,-0.21254202\Cl,0,2.80095154,-0.1884911,0.55256536\C,0,0.55
 193671,1.46405123,-0.06996808\H,0,0.41491925,-0.6183811,0.85976323\H,0
 ,-0.2489053,1.81462905,-0.7214483\C,0,0.77859057,-0.7303796,-1.2858501
 2\N,0,0.96019471,-1.2356422,-2.33321968\C,0,0.33753633,2.02656857,1.25
 965963\N,0,0.16688276,2.52169622,2.30940846\\Version=ES64L-G16RevC.01\
 State=1-A\HF=-1181.2864511\RMSD=5.579e-03\Dipole=0.055542,0.8976239,-0
 .4439966\Quadrupole=-8.2569902,7.8875152,0.369475,1.7326666,-1.4478078
 ,-11.6970145\PG=C01 [X(C4H3Cl2N2)]\\@


 If your ship doesn't come in, swim out to it!
                          -- Jonathan Winters
 Job cpu time:       0 days  0 hours  0 minutes 53.1 seconds.
 Elapsed time:       0 days  0 hours  0 minutes  4.6 seconds.
 File lengths (MBytes):  RWF=     10 Int=      0 D2E=      0 Chk=      8 Scr=      1
 Normal termination of Gaussian 16 at Wed Apr  9 02:42:37 2025.
