 Entering Gaussian System, Link 0=g16
 Input=E2SN2_339_mol2.gjf
 Output=E2SN2_339_mol2.log
 Initial command:
 /arc/software/Gaussian/g16.c01/l1.exe "/tmp/slurm/4859683/Gau-1929210.inp" -scrdir="/tmp/slurm/4859683/"
 Entering Link 1 = /arc/software/Gaussian/g16.c01/l1.exe PID=   1929211.
  
 Copyright (c) 1988-2019, Gaussian, Inc.  All Rights Reserved.
  
 This is part of the Gaussian(R) 16 program.  It is based on
 the Gaussian(R) 09 system (copyright 2009, Gaussian, Inc.),
 the Gaussian(R) 03 system (copyright 2003, Gaussian, Inc.),
 the Gaussian(R) 98 system (copyright 1998, Gaussian, Inc.),
 the Gaussian(R) 94 system (copyright 1995, Gaussian, Inc.),
 the Gaussian 92(TM) system (copyright 1992, Gaussian, Inc.),
 the Gaussian 90(TM) system (copyright 1990, Gaussian, Inc.),
 the Gaussian 88(TM) system (copyright 1988, Gaussian, Inc.),
 the Gaussian 86(TM) system (copyright 1986, Carnegie Mellon
 University), and the Gaussian 82(TM) system (copyright 1983,
 Carnegie Mellon University). Gaussian is a federally registered
 trademark of Gaussian, Inc.
  
 This software contains proprietary and confidential information,
 including trade secrets, belonging to Gaussian, Inc.
  
 This software is provided under written license and may be
 used, copied, transmitted, or stored only in accord with that
 written license.
  
 The following legend is applicable only to US Government
 contracts under FAR:
  
                    RESTRICTED RIGHTS LEGEND
  
 Use, reproduction and disclosure by the US Government is
 subject to restrictions as set forth in subparagraphs (a)
 and (c) of the Commercial Computer Software - Restricted
 Rights clause in FAR 52.227-19.
  
 Gaussian, Inc.
 340 Quinnipiac St., Bldg. 40, Wallingford CT 06492
  
  
 ---------------------------------------------------------------
 Warning -- This program may not be used in any manner that
 competes with the business of Gaussian, Inc. or will provide
 assistance to any competitor of Gaussian, Inc.  The licensee
 of this program is prohibited from giving any competitor of
 Gaussian, Inc. access to this program.  By using this program,
 the user acknowledges that Gaussian, Inc. is engaged in the
 business of creating and licensing software in the field of
 computational chemistry and represents and warrants to the
 licensee that it is not a competitor of Gaussian, Inc. and that
 it will not use this program in any manner prohibited above.
 ---------------------------------------------------------------
  

 Cite this work as:
 Gaussian 16, Revision C.01,
 M. J. Frisch, G. W. Trucks, H. B. Schlegel, G. E. Scuseria, 
 M. A. Robb, J. R. Cheeseman, G. Scalmani, V. Barone, 
 G. A. Petersson, H. Nakatsuji, X. Li, M. Caricato, A. V. Marenich, 
 J. Bloino, B. G. Janesko, R. Gomperts, B. Mennucci, H. P. Hratchian, 
 J. V. Ortiz, A. F. Izmaylov, J. L. Sonnenberg, D. Williams-Young, 
 F. Ding, F. Lipparini, F. Egidi, J. Goings, B. Peng, A. Petrone, 
 T. Henderson, D. Ranasinghe, V. G. Zakrzewski, J. Gao, N. Rega, 
 G. Zheng, W. Liang, M. Hada, M. Ehara, K. Toyota, R. Fukuda, 
 J. Hasegawa, M. Ishida, T. Nakajima, Y. Honda, O. Kitao, H. Nakai, 
 T. Vreven, K. Throssell, J. A. Montgomery, Jr., J. E. Peralta, 
 F. Ogliaro, M. J. Bearpark, J. J. Heyd, E. N. Brothers, K. N. Kudin, 
 V. N. Staroverov, T. A. Keith, R. Kobayashi, J. Normand, 
 K. Raghavachari, A. P. Rendell, J. C. Burant, S. S. Iyengar, 
 J. Tomasi, M. Cossi, J. M. Millam, M. Klene, C. Adamo, R. Cammi, 
 J. W. Ochterski, R. L. Martin, K. Morokuma, O. Farkas, 
 J. B. Foresman, and D. J. Fox, Gaussian, Inc., Wallingford CT, 2019.
 
 ******************************************
 Gaussian 16:  ES64L-G16RevC.01  3-Jul-2019
                 9-Apr-2025 
 ******************************************
 %nprocs=16
 Will use up to   16 processors via shared memory.
 %mem=30GB
 %chk=E2SN2_339_mol2.chk
 ----------------------------------------------------------------------
 #t hf aug-cc-pvdz symm=none int=(grid=ultrafine) guess=(read,tcheck) s
 table=(opt,rrhf)
 ----------------------------------------------------------------------
 -----
 title
 -----
 Symbolic Z-matrix:
 Charge = -1 Multiplicity = 1
 C                     0.05732  -0.03025  -0.01376 
 C                    -0.39362   0.15126  -1.48422 
 F                     1.41506   0.34586   0.06537 
 H                     0.39914  -0.33644  -2.06983 
 C                    -0.72165   0.77102   1.00372 
 H                    -1.79896   0.64889   0.86897 
 H                    -0.49434   1.82794   0.86074 
 H                    -0.42971   0.48078   2.01546 
 C                     0.02655  -1.47195   0.30867 
 N                     0.01848  -2.62349   0.5398 
 C                    -0.45269   1.62798  -1.85051 
 H                    -1.33123   2.08851  -1.39285 
 H                    -0.5571    1.71446  -2.93377 
 H                     0.45256   2.15299  -1.53641 
 N                    -1.66012  -0.46558  -1.81409 
 H                    -2.4342    0.02429  -1.36073 
 H                    -1.68429  -1.44128  -1.54341 
 Cl                   -4.01724   1.37785  -0.21854 
 
                    Distance matrix (angstroms):
                    1          2          3          4          5
     1  C    0.000000
     2  C    1.548727   0.000000
     3  F    1.411094   2.389653   0.000000
     4  H    2.106662   1.099663   2.461040   0.000000
     5  C    1.511317   2.584869   2.372089   3.453887   0.000000
     6  H    2.164766   2.785699   3.326792   3.799876   1.092550
     7  H    2.126483   2.884481   2.544599   3.751143   1.090506
     8  H    2.148506   3.515347   2.687796   4.247875   1.092288
     9  C    1.477639   2.454753   2.300351   2.661853   2.464507
    10  N    2.651948   3.459150   3.315502   3.490793   3.505092
    11  C    2.526553   1.522612   2.966968   2.152360   2.992214
    12  H    2.884284   2.154159   3.564458   3.054977   2.801947
    13  H    3.456589   2.138113   3.841531   2.422191   4.052283
    14  H    2.690949   2.173863   2.599580   2.546503   3.121038
    15  N    2.525930   1.446834   3.694262   2.079093   3.217135
    16  H    2.832838   2.048250   4.117522   2.942917   3.013473
    17  H    2.713685   2.050739   3.922765   2.416294   3.508394
    18  Cl   4.315869   4.029527   5.536745   5.086303   3.566942
                    6          7          8          9         10
     6  H    0.000000
     7  H    1.758484   0.000000
     8  H    1.793753   1.775504   0.000000
     9  C    2.853834   3.386057   2.633336   0.000000
    10  N    3.757644   4.492348   3.466253   1.174530   0.000000
    11  C    3.188517   2.718929   4.032658   3.808054   4.900054
    12  H    2.721598   2.418042   3.874806   4.173201   5.268754
    13  H    4.139868   3.796723   5.102266   4.583373   5.587022
    14  H    3.621812   2.597803   4.023740   4.089744   5.226262
    15  N    2.908633   3.711333   4.132189   2.892015   3.607642
    16  H    2.401083   3.457036   3.952848   3.328800   4.079020
    17  H    3.193987   4.228917   4.234842   2.521534   2.938850
    18  Cl   2.575817   3.711909   4.320403   4.975090   5.733483
                   11         12         13         14         15
    11  C    0.000000
    12  H    1.092423   0.000000
    13  H    1.091714   1.764549   0.000000
    14  H    1.092601   1.790725   1.778865   0.000000
    15  N    2.417066   2.609404   2.687549   3.376013   0.000000
    16  H    2.595781   2.340630   2.975673   3.591046   1.022113
    17  H    3.321373   3.550598   3.628000   4.181508   1.012840
    18  Cl   3.928352   3.016403   4.411163   4.724065   3.391170
                   16         17         18
    16  H    0.000000
    17  H    1.656395   0.000000
    18  Cl   2.375441   3.891711   0.000000
 Symmetry turned off by external request.
 Rotational constants (GHZ):           1.6801645           0.7297194           0.6653966
   292 basis functions,   524 primitive gaussians,   310 cartesian basis functions
    40 alpha electrons       40 beta electrons
       nuclear repulsion energy       518.4445992858 Hartrees.
 NAtoms=   18 NActive=   18 NUniq=   18 SFac= 1.00D+00 NAtFMM=   60 NAOKFM=F Big=F
 ExpMin= 2.97D-02 ExpMax= 1.28D+05 ExpMxC= 1.24D+03 IAcc=3 IRadAn=         5 AccDes= 0.00D+00
 Harris functional with IExCor=  205 and IRadAn=       5 diagonalized for initial guess.
 HarFok:  IExCor=  205 AccDes= 0.00D+00 IRadAn=         5 IDoV= 1 UseB2=F ITyADJ=14
 ICtDFT=  3500011 ScaDFX=  1.000000  1.000000  1.000000  1.000000
 FoFCou: FMM=F IPFlag=           0 FMFlag=      100000 FMFlg1=           0
         NFxFlg=           0 DoJE=T BraDBF=F KetDBF=T FulRan=T
         wScrn=  0.000000 ICntrl=       500 IOpCl=  0 I1Cent=   200000004 NGrid=           0
         NMat0=    1 NMatS0=      1 NMatT0=    0 NMatD0=    1 NMtDS0=    0 NMtDT0=    0
 Symmetry not used in FoFCou.
 SCF Done:  E(RHF) =  -862.545642790     A.U. after   15 cycles
            NFock= 15  Conv=0.28D-08     -V/T= 2.0007

 **********************************************************************

            Population analysis using the SCF Density.

 **********************************************************************

 Alpha  occ. eigenvalues -- -104.54809 -26.20767 -15.49641 -15.42315 -11.25815
 Alpha  occ. eigenvalues --  -11.19444 -11.16727 -11.12184 -11.11051 -10.27194
 Alpha  occ. eigenvalues --   -7.73810  -7.73791  -7.73788  -1.50762  -1.12488
 Alpha  occ. eigenvalues --   -1.08199  -0.96449  -0.87965  -0.81605  -0.78120
 Alpha  occ. eigenvalues --   -0.71006  -0.64611  -0.59399  -0.58408  -0.55624
 Alpha  occ. eigenvalues --   -0.51308  -0.48231  -0.47503  -0.45027  -0.44328
 Alpha  occ. eigenvalues --   -0.43285  -0.41369  -0.40228  -0.37957  -0.37084
 Alpha  occ. eigenvalues --   -0.35828  -0.27544  -0.19679  -0.19474  -0.19445
 Alpha virt. eigenvalues --    0.12034   0.12746   0.13532   0.14473   0.15592
 Alpha virt. eigenvalues --    0.16068   0.17545   0.18356   0.19056   0.19943
 Alpha virt. eigenvalues --    0.21057   0.22037   0.22975   0.23775   0.24509
 Alpha virt. eigenvalues --    0.24910   0.25315   0.25927   0.26093   0.26457
 Alpha virt. eigenvalues --    0.27117   0.27848   0.28178   0.29199   0.29442
 Alpha virt. eigenvalues --    0.30357   0.31095   0.32036   0.32863   0.33903
 Alpha virt. eigenvalues --    0.34926   0.35085   0.35242   0.36785   0.37214
 Alpha virt. eigenvalues --    0.37536   0.38839   0.39597   0.40572   0.41358
 Alpha virt. eigenvalues --    0.41898   0.43092   0.45218   0.45511   0.46548
 Alpha virt. eigenvalues --    0.47702   0.47938   0.48585   0.49069   0.49996
 Alpha virt. eigenvalues --    0.51076   0.51580   0.51638   0.51997   0.54169
 Alpha virt. eigenvalues --    0.54955   0.55277   0.56765   0.56988   0.57834
 Alpha virt. eigenvalues --    0.58650   0.59415   0.59934   0.61515   0.61636
 Alpha virt. eigenvalues --    0.62615   0.63288   0.64305   0.64951   0.66143
 Alpha virt. eigenvalues --    0.67166   0.67858   0.68265   0.69038   0.70528
 Alpha virt. eigenvalues --    0.70717   0.71871   0.72361   0.73382   0.73800
 Alpha virt. eigenvalues --    0.75068   0.76372   0.77054   0.77771   0.78756
 Alpha virt. eigenvalues --    0.80069   0.80327   0.80970   0.82011   0.83295
 Alpha virt. eigenvalues --    0.83802   0.84576   0.84822   0.86167   0.87026
 Alpha virt. eigenvalues --    0.87763   0.88524   0.89781   0.90386   0.91036
 Alpha virt. eigenvalues --    0.91575   0.93386   0.93699   0.96034   0.96112
 Alpha virt. eigenvalues --    0.97031   0.98820   0.99143   0.99753   1.01140
 Alpha virt. eigenvalues --    1.02993   1.03833   1.04402   1.05726   1.06039
 Alpha virt. eigenvalues --    1.07051   1.08292   1.10018   1.11301   1.12537
 Alpha virt. eigenvalues --    1.14436   1.15652   1.17151   1.18808   1.19200
 Alpha virt. eigenvalues --    1.20758   1.22614   1.23730   1.25526   1.26743
 Alpha virt. eigenvalues --    1.28223   1.31095   1.31411   1.33547   1.34417
 Alpha virt. eigenvalues --    1.36605   1.38509   1.38850   1.41147   1.44489
 Alpha virt. eigenvalues --    1.46197   1.47572   1.48272   1.51056   1.51941
 Alpha virt. eigenvalues --    1.55060   1.56267   1.57841   1.62088   1.63749
 Alpha virt. eigenvalues --    1.65154   1.66552   1.69934   1.70472   1.71097
 Alpha virt. eigenvalues --    1.72451   1.73474   1.75939   1.76635   1.77977
 Alpha virt. eigenvalues --    1.81137   1.82356   1.83141   1.85089   1.87884
 Alpha virt. eigenvalues --    1.88440   1.89574   1.90082   1.91654   1.93054
 Alpha virt. eigenvalues --    1.94251   1.95810   1.96203   1.97658   1.99343
 Alpha virt. eigenvalues --    2.01452   2.02239   2.05173   2.07729   2.09602
 Alpha virt. eigenvalues --    2.10866   2.12165   2.13601   2.16735   2.20899
 Alpha virt. eigenvalues --    2.22148   2.23816   2.26300   2.28208   2.29740
 Alpha virt. eigenvalues --    2.30894   2.33637   2.34560   2.36762   2.37961
 Alpha virt. eigenvalues --    2.40038   2.41767   2.43734   2.45481   2.46915
 Alpha virt. eigenvalues --    2.49724   2.51341   2.51709   2.53257   2.58427
 Alpha virt. eigenvalues --    2.60526   2.63456   2.64539   2.65199   2.69163
 Alpha virt. eigenvalues --    2.69442   2.73430   2.74783   2.75586   2.76296
 Alpha virt. eigenvalues --    2.77193   2.77591   2.80014   2.82456   2.84667
 Alpha virt. eigenvalues --    2.87625   2.90987   2.93248   2.94285   2.96149
 Alpha virt. eigenvalues --    3.00663   3.03012   3.04576   3.06248   3.12225
 Alpha virt. eigenvalues --    3.15449   3.16091   3.17942   3.23879   3.28079
 Alpha virt. eigenvalues --    3.29902   3.33236   3.37326   3.46405   3.49530
 Alpha virt. eigenvalues --    3.55351   3.58368   3.66058   3.78752   3.89060
 Alpha virt. eigenvalues --    3.97794   4.20543   5.21988   5.23904   5.30682
 Alpha virt. eigenvalues --    5.32760   5.36073
          Condensed to atoms (all electrons):
 Mulliken charges:
               1
     1  C    0.989274
     2  C   -0.083036
     3  F   -0.864021
     4  H   -0.282258
     5  C    0.793896
     6  H    0.021867
     7  H   -0.004350
     8  H   -0.092559
     9  C   -0.592800
    10  N   -0.348924
    11  C    0.921531
    12  H   -0.040103
    13  H   -0.100978
    14  H   -0.065610
    15  N   -0.304277
    16  H    0.066536
    17  H   -0.033905
    18  Cl  -0.980284
 Sum of Mulliken charges =  -1.00000
 Mulliken charges with hydrogens summed into heavy atoms:
               1
     1  C    0.989274
     2  C   -0.365294
     3  F   -0.864021
     5  C    0.718855
     9  C   -0.592800
    10  N   -0.348924
    11  C    0.714840
    15  N   -0.271646
    18  Cl  -0.980284
 Electronic spatial extent (au):  <R**2>=           2212.8482
 Charge=             -1.0000 electrons
 Dipole moment (field-independent basis, Debye):
    X=             14.2980    Y=             -1.8869    Z=              1.3709  Tot=             14.4870
 NROrb=    292 NOA=    40 NOB=    40 NVA=   252 NVB=   252

 **** Warning!!: The largest alpha MO coefficient is  0.81698574D+02

    12 initial guesses have been made.
 Iteration     1 Dimension    12 NMult     0 NNew     12
 Iteration     2 Dimension    24 NMult    12 NNew     12
 Iteration     3 Dimension    27 NMult    24 NNew      3
 Iteration     4 Dimension    30 NMult    27 NNew      3
 Iteration     5 Dimension    33 NMult    30 NNew      3
 Iteration     6 Dimension    36 NMult    33 NNew      3
 Iteration     7 Dimension    39 NMult    36 NNew      3
 Iteration     8 Dimension    42 NMult    39 NNew      3
 Iteration     9 Dimension    45 NMult    42 NNew      3
 Iteration    10 Dimension    48 NMult    45 NNew      3
 Iteration    11 Dimension    51 NMult    48 NNew      3
 Iteration    12 Dimension    54 NMult    51 NNew      3
 Iteration    13 Dimension    57 NMult    54 NNew      3
 New state      1 was old state      2
 Iteration    14 Dimension    60 NMult    57 NNew      3
 Iteration    15 Dimension    63 NMult    60 NNew      3
 New state      1 was old state      2
 Iteration    16 Dimension    66 NMult    63 NNew      3
 Iteration    17 Dimension    69 NMult    66 NNew      3
 Iteration    18 Dimension    72 NMult    69 NNew      3
 Iteration    19 Dimension    75 NMult    72 NNew      3
 ***********************************************************************
 Stability analysis using <AA,BB:AA,BB> singles matrix:
 ***********************************************************************
 Ground to excited state transition densities written to RWF  633

 Eigenvectors of the stability matrix:
 
 Excited state symmetry could not be determined.
 Eigenvector   1:      Singlet-?Sym  Eigenvalue= 0.2097485  <S**2>=0.000
      35 -> 57        -0.12773
      35 -> 61        -0.20985
      35 -> 63         0.18607
      35 -> 65         0.10739
      35 -> 68         0.15475
      35 -> 78         0.11432
      36 -> 51        -0.11395
      36 -> 58         0.13500
      36 -> 60         0.31362
      36 -> 62        -0.13719
 The wavefunction is stable under the perturbations considered.
 The wavefunction is already stable.

 **********************************************************************

            Population analysis using the SCF Density.

 **********************************************************************

 Alpha  occ. eigenvalues -- -104.54809 -26.20767 -15.49641 -15.42315 -11.25815
 Alpha  occ. eigenvalues --  -11.19444 -11.16727 -11.12184 -11.11051 -10.27194
 Alpha  occ. eigenvalues --   -7.73810  -7.73791  -7.73788  -1.50762  -1.12488
 Alpha  occ. eigenvalues --   -1.08199  -0.96449  -0.87965  -0.81605  -0.78120
 Alpha  occ. eigenvalues --   -0.71006  -0.64611  -0.59399  -0.58408  -0.55624
 Alpha  occ. eigenvalues --   -0.51308  -0.48231  -0.47503  -0.45027  -0.44328
 Alpha  occ. eigenvalues --   -0.43285  -0.41369  -0.40228  -0.37957  -0.37084
 Alpha  occ. eigenvalues --   -0.35828  -0.27544  -0.19679  -0.19474  -0.19445
 Alpha virt. eigenvalues --    0.12034   0.12746   0.13532   0.14473   0.15592
 Alpha virt. eigenvalues --    0.16068   0.17545   0.18356   0.19056   0.19943
 Alpha virt. eigenvalues --    0.21057   0.22037   0.22975   0.23775   0.24509
 Alpha virt. eigenvalues --    0.24910   0.25315   0.25927   0.26093   0.26457
 Alpha virt. eigenvalues --    0.27117   0.27848   0.28178   0.29199   0.29442
 Alpha virt. eigenvalues --    0.30357   0.31095   0.32036   0.32863   0.33903
 Alpha virt. eigenvalues --    0.34926   0.35085   0.35242   0.36785   0.37214
 Alpha virt. eigenvalues --    0.37536   0.38839   0.39597   0.40572   0.41358
 Alpha virt. eigenvalues --    0.41898   0.43092   0.45218   0.45511   0.46548
 Alpha virt. eigenvalues --    0.47702   0.47938   0.48585   0.49069   0.49996
 Alpha virt. eigenvalues --    0.51076   0.51580   0.51638   0.51997   0.54169
 Alpha virt. eigenvalues --    0.54955   0.55277   0.56765   0.56988   0.57834
 Alpha virt. eigenvalues --    0.58650   0.59415   0.59934   0.61515   0.61636
 Alpha virt. eigenvalues --    0.62615   0.63288   0.64305   0.64951   0.66143
 Alpha virt. eigenvalues --    0.67166   0.67858   0.68265   0.69038   0.70528
 Alpha virt. eigenvalues --    0.70717   0.71871   0.72361   0.73382   0.73800
 Alpha virt. eigenvalues --    0.75068   0.76372   0.77054   0.77771   0.78756
 Alpha virt. eigenvalues --    0.80069   0.80327   0.80970   0.82011   0.83295
 Alpha virt. eigenvalues --    0.83802   0.84576   0.84822   0.86167   0.87026
 Alpha virt. eigenvalues --    0.87763   0.88524   0.89781   0.90386   0.91036
 Alpha virt. eigenvalues --    0.91575   0.93386   0.93699   0.96034   0.96112
 Alpha virt. eigenvalues --    0.97031   0.98820   0.99143   0.99753   1.01140
 Alpha virt. eigenvalues --    1.02993   1.03833   1.04402   1.05726   1.06039
 Alpha virt. eigenvalues --    1.07051   1.08292   1.10018   1.11301   1.12537
 Alpha virt. eigenvalues --    1.14436   1.15652   1.17151   1.18808   1.19200
 Alpha virt. eigenvalues --    1.20758   1.22614   1.23730   1.25526   1.26743
 Alpha virt. eigenvalues --    1.28223   1.31095   1.31411   1.33547   1.34417
 Alpha virt. eigenvalues --    1.36605   1.38509   1.38850   1.41147   1.44489
 Alpha virt. eigenvalues --    1.46197   1.47572   1.48272   1.51056   1.51941
 Alpha virt. eigenvalues --    1.55060   1.56267   1.57841   1.62088   1.63749
 Alpha virt. eigenvalues --    1.65154   1.66552   1.69934   1.70472   1.71097
 Alpha virt. eigenvalues --    1.72451   1.73474   1.75939   1.76635   1.77977
 Alpha virt. eigenvalues --    1.81137   1.82356   1.83141   1.85089   1.87884
 Alpha virt. eigenvalues --    1.88440   1.89574   1.90082   1.91654   1.93054
 Alpha virt. eigenvalues --    1.94251   1.95810   1.96203   1.97658   1.99343
 Alpha virt. eigenvalues --    2.01452   2.02239   2.05173   2.07729   2.09602
 Alpha virt. eigenvalues --    2.10866   2.12165   2.13601   2.16735   2.20899
 Alpha virt. eigenvalues --    2.22148   2.23816   2.26300   2.28208   2.29740
 Alpha virt. eigenvalues --    2.30894   2.33637   2.34560   2.36762   2.37961
 Alpha virt. eigenvalues --    2.40038   2.41767   2.43734   2.45481   2.46915
 Alpha virt. eigenvalues --    2.49724   2.51341   2.51709   2.53257   2.58427
 Alpha virt. eigenvalues --    2.60526   2.63456   2.64539   2.65199   2.69163
 Alpha virt. eigenvalues --    2.69442   2.73430   2.74783   2.75586   2.76296
 Alpha virt. eigenvalues --    2.77193   2.77591   2.80014   2.82456   2.84667
 Alpha virt. eigenvalues --    2.87625   2.90987   2.93248   2.94285   2.96149
 Alpha virt. eigenvalues --    3.00663   3.03012   3.04576   3.06248   3.12225
 Alpha virt. eigenvalues --    3.15449   3.16091   3.17942   3.23879   3.28079
 Alpha virt. eigenvalues --    3.29902   3.33236   3.37326   3.46405   3.49530
 Alpha virt. eigenvalues --    3.55351   3.58368   3.66058   3.78752   3.89060
 Alpha virt. eigenvalues --    3.97794   4.20543   5.21988   5.23904   5.30682
 Alpha virt. eigenvalues --    5.32760   5.36073
          Condensed to atoms (all electrons):
 Mulliken charges:
               1
     1  C    0.989274
     2  C   -0.083036
     3  F   -0.864021
     4  H   -0.282258
     5  C    0.793896
     6  H    0.021867
     7  H   -0.004350
     8  H   -0.092559
     9  C   -0.592800
    10  N   -0.348924
    11  C    0.921531
    12  H   -0.040103
    13  H   -0.100978
    14  H   -0.065610
    15  N   -0.304277
    16  H    0.066536
    17  H   -0.033905
    18  Cl  -0.980284
 Sum of Mulliken charges =  -1.00000
 Mulliken charges with hydrogens summed into heavy atoms:
               1
     1  C    0.989274
     2  C   -0.365294
     3  F   -0.864021
     5  C    0.718855
     9  C   -0.592800
    10  N   -0.348924
    11  C    0.714840
    15  N   -0.271646
    18  Cl  -0.980284
 Electronic spatial extent (au):  <R**2>=           2212.8482
 Charge=             -1.0000 electrons
 Dipole moment (field-independent basis, Debye):
    X=             14.2980    Y=             -1.8869    Z=              1.3709  Tot=             14.4870
 Unable to Open any file for archive entry.
 1\1\GINC-SE250\Stability\RHF\Aug-CC-pVDZ\C5H9Cl1F1N2\OHZDE\09-Apr-2025
 \0\\#t hf aug-cc-pvdz symm=none int=(grid=ultrafine) guess=(read,tchec
 k) stable=(opt,rrhf)\\title\\-1,1\C,0,0.057321,-0.030247,-0.013756\C,0
 ,-0.393621,0.15126,-1.484219\F,0,1.415064,0.345862,0.065372\H,0,0.3991
 39,-0.336443,-2.069827\C,0,-0.721651,0.771016,1.003721\H,0,-1.798959,0
 .648888,0.868973\H,0,-0.494339,1.82794,0.860739\H,0,-0.429709,0.480777
 ,2.015464\C,0,0.026548,-1.471951,0.308672\N,0,0.018484,-2.623487,0.539
 803\C,0,-0.452686,1.627977,-1.850507\H,0,-1.331233,2.088509,-1.392845\
 H,0,-0.557103,1.714463,-2.933769\H,0,0.452563,2.152992,-1.536405\N,0,-
 1.66012,-0.465581,-1.81409\H,0,-2.434199,0.024294,-1.360725\H,0,-1.684
 294,-1.441282,-1.543411\Cl,0,-4.017242,1.377845,-0.218537\\Version=ES6
 4L-G16RevC.01\HF=-862.5456428\RMSD=2.837e-09\Dipole=3.6199719,-0.30316
 13,-0.2106665\Quadrupole=-28.6426183,9.2742353,19.368383,16.6624241,-4
 .772255,2.6644871\PG=Unknown\\@
 The archive entry for this job was punched.


 HICKORY, DICKORY, DOCK
 TWO MICE RAN UP THE CLOCK
 THE CLOCK STRUCK ONE...
 THE OTHER ESCAPED WITH MINOR INJURIES.
 Job cpu time:       0 days  0 hours 23 minutes 20.0 seconds.
 Elapsed time:       0 days  0 hours  1 minutes 37.1 seconds.
 File lengths (MBytes):  RWF=    438 Int=      0 D2E=      0 Chk=     12 Scr=      1
 Normal termination of Gaussian 16 at Wed Apr  9 02:51:57 2025.
 Initial command:
 /arc/software/Gaussian/g16.c01/l1.exe "/tmp/slurm/4859683/Gau-1929210.inp" -scrdir="/tmp/slurm/4859683/"
 Entering Link 1 = /arc/software/Gaussian/g16.c01/l1.exe PID=   1929451.
  
 Copyright (c) 1988-2019, Gaussian, Inc.  All Rights Reserved.
  
 This is part of the Gaussian(R) 16 program.  It is based on
 the Gaussian(R) 09 system (copyright 2009, Gaussian, Inc.),
 the Gaussian(R) 03 system (copyright 2003, Gaussian, Inc.),
 the Gaussian(R) 98 system (copyright 1998, Gaussian, Inc.),
 the Gaussian(R) 94 system (copyright 1995, Gaussian, Inc.),
 the Gaussian 92(TM) system (copyright 1992, Gaussian, Inc.),
 the Gaussian 90(TM) system (copyright 1990, Gaussian, Inc.),
 the Gaussian 88(TM) system (copyright 1988, Gaussian, Inc.),
 the Gaussian 86(TM) system (copyright 1986, Carnegie Mellon
 University), and the Gaussian 82(TM) system (copyright 1983,
 Carnegie Mellon University). Gaussian is a federally registered
 trademark of Gaussian, Inc.
  
 This software contains proprietary and confidential information,
 including trade secrets, belonging to Gaussian, Inc.
  
 This software is provided under written license and may be
 used, copied, transmitted, or stored only in accord with that
 written license.
  
 The following legend is applicable only to US Government
 contracts under FAR:
  
                    RESTRICTED RIGHTS LEGEND
  
 Use, reproduction and disclosure by the US Government is
 subject to restrictions as set forth in subparagraphs (a)
 and (c) of the Commercial Computer Software - Restricted
 Rights clause in FAR 52.227-19.
  
 Gaussian, Inc.
 340 Quinnipiac St., Bldg. 40, Wallingford CT 06492
  
  
 ---------------------------------------------------------------
 Warning -- This program may not be used in any manner that
 competes with the business of Gaussian, Inc. or will provide
 assistance to any competitor of Gaussian, Inc.  The licensee
 of this program is prohibited from giving any competitor of
 Gaussian, Inc. access to this program.  By using this program,
 the user acknowledges that Gaussian, Inc. is engaged in the
 business of creating and licensing software in the field of
 computational chemistry and represents and warrants to the
 licensee that it is not a competitor of Gaussian, Inc. and that
 it will not use this program in any manner prohibited above.
 ---------------------------------------------------------------
  

 Cite this work as:
 Gaussian 16, Revision C.01,
 M. J. Frisch, G. W. Trucks, H. B. Schlegel, G. E. Scuseria, 
 M. A. Robb, J. R. Cheeseman, G. Scalmani, V. Barone, 
 G. A. Petersson, H. Nakatsuji, X. Li, M. Caricato, A. V. Marenich, 
 J. Bloino, B. G. Janesko, R. Gomperts, B. Mennucci, H. P. Hratchian, 
 J. V. Ortiz, A. F. Izmaylov, J. L. Sonnenberg, D. Williams-Young, 
 F. Ding, F. Lipparini, F. Egidi, J. Goings, B. Peng, A. Petrone, 
 T. Henderson, D. Ranasinghe, V. G. Zakrzewski, J. Gao, N. Rega, 
 G. Zheng, W. Liang, M. Hada, M. Ehara, K. Toyota, R. Fukuda, 
 J. Hasegawa, M. Ishida, T. Nakajima, Y. Honda, O. Kitao, H. Nakai, 
 T. Vreven, K. Throssell, J. A. Montgomery, Jr., J. E. Peralta, 
 F. Ogliaro, M. J. Bearpark, J. J. Heyd, E. N. Brothers, K. N. Kudin, 
 V. N. Staroverov, T. A. Keith, R. Kobayashi, J. Normand, 
 K. Raghavachari, A. P. Rendell, J. C. Burant, S. S. Iyengar, 
 J. Tomasi, M. Cossi, J. M. Millam, M. Klene, C. Adamo, R. Cammi, 
 J. W. Ochterski, R. L. Martin, K. Morokuma, O. Farkas, 
 J. B. Foresman, and D. J. Fox, Gaussian, Inc., Wallingford CT, 2019.
 
 ******************************************
 Gaussian 16:  ES64L-G16RevC.01  3-Jul-2019
                 9-Apr-2025 
 ******************************************
 %nprocs=16
 Will use up to   16 processors via shared memory.
 %mem=30GB
 %chk=E2SN2_339_mol2.chk
 ----------------------------------------------------------------------
 #t hf aug-cc-pvdz iop(5/13=1,5/36=2,99/5=2) pseudo=read geom=check gue
 ss=(read,tcheck) scf=(maxcycle=1)
 ----------------------------------------------------------------------
 -----
 title
 -----
 Structure from the checkpoint file:  "E2SN2_339_mol2.chk"
 Charge = -1 Multiplicity = 1
 Z-Matrix found in chk file.
 C,0,0.057321,-0.030247,-0.013756
 C,0,-0.393621,0.15126,-1.484219
 F,0,1.415064,0.345862,0.065372
 H,0,0.399139,-0.336443,-2.069827
 C,0,-0.721651,0.771016,1.003721
 H,0,-1.798959,0.648888,0.868973
 H,0,-0.494339,1.82794,0.860739
 H,0,-0.429709,0.480777,2.015464
 C,0,0.026548,-1.471951,0.308672
 N,0,0.018484,-2.623487,0.539803
 C,0,-0.452686,1.627977,-1.850507
 H,0,-1.331233,2.088509,-1.392845
 H,0,-0.557103,1.714463,-2.933769
 H,0,0.452563,2.152992,-1.536405
 N,0,-1.66012,-0.465581,-1.81409
 H,0,-2.434199,0.024294,-1.360725
 H,0,-1.684294,-1.441282,-1.543411
 Cl,0,-4.017242,1.377845,-0.218537
 Recover connectivity data from disk.
                    Distance matrix (angstroms):
                    1          2          3          4          5
     1  C    0.000000
     2  C    1.548727   0.000000
     3  F    1.411094   2.389653   0.000000
     4  H    2.106662   1.099663   2.461040   0.000000
     5  C    1.511317   2.584869   2.372089   3.453887   0.000000
     6  H    2.164766   2.785699   3.326792   3.799876   1.092550
     7  H    2.126483   2.884481   2.544599   3.751143   1.090506
     8  H    2.148506   3.515347   2.687796   4.247875   1.092288
     9  C    1.477639   2.454753   2.300351   2.661853   2.464507
    10  N    2.651948   3.459150   3.315502   3.490793   3.505092
    11  C    2.526553   1.522612   2.966968   2.152360   2.992214
    12  H    2.884284   2.154159   3.564458   3.054977   2.801947
    13  H    3.456589   2.138113   3.841531   2.422191   4.052283
    14  H    2.690949   2.173863   2.599580   2.546503   3.121038
    15  N    2.525930   1.446834   3.694262   2.079093   3.217135
    16  H    2.832838   2.048250   4.117522   2.942917   3.013473
    17  H    2.713685   2.050739   3.922765   2.416294   3.508394
    18  Cl   4.315869   4.029527   5.536745   5.086303   3.566942
                    6          7          8          9         10
     6  H    0.000000
     7  H    1.758484   0.000000
     8  H    1.793753   1.775504   0.000000
     9  C    2.853834   3.386057   2.633336   0.000000
    10  N    3.757644   4.492348   3.466253   1.174530   0.000000
    11  C    3.188517   2.718929   4.032658   3.808054   4.900054
    12  H    2.721598   2.418042   3.874806   4.173201   5.268754
    13  H    4.139868   3.796723   5.102266   4.583373   5.587022
    14  H    3.621812   2.597803   4.023740   4.089744   5.226262
    15  N    2.908633   3.711333   4.132189   2.892015   3.607642
    16  H    2.401083   3.457036   3.952848   3.328800   4.079020
    17  H    3.193987   4.228917   4.234842   2.521534   2.938850
    18  Cl   2.575817   3.711909   4.320403   4.975090   5.733483
                   11         12         13         14         15
    11  C    0.000000
    12  H    1.092423   0.000000
    13  H    1.091714   1.764549   0.000000
    14  H    1.092601   1.790725   1.778865   0.000000
    15  N    2.417066   2.609404   2.687549   3.376013   0.000000
    16  H    2.595781   2.340630   2.975673   3.591046   1.022113
    17  H    3.321373   3.550598   3.628000   4.181508   1.012840
    18  Cl   3.928352   3.016403   4.411163   4.724065   3.391170
                   16         17         18
    16  H    0.000000
    17  H    1.656395   0.000000
    18  Cl   2.375441   3.891711   0.000000
 Framework group  C1[X(C5H9ClFN2)]
 Deg. of freedom    48
                         Standard orientation:                         
 ---------------------------------------------------------------------
 Center     Atomic      Atomic             Coordinates (Angstroms)
 Number     Number       Type             X           Y           Z
 ---------------------------------------------------------------------
      1          6           0       -1.150318    0.086692   -0.368843
      2          6           0       -0.506386    0.836717    0.823368
      3          9           0       -2.187969    0.899062   -0.873345
      4          1           0       -1.363857    1.160815    1.430791
      5          6           0       -0.210304   -0.249171   -1.503589
      6          1           0        0.701155   -0.728788   -1.139069
      7          1           0        0.085209    0.678221   -1.995341
      8          1           0       -0.712345   -0.890391   -2.231520
      9          6           0       -1.814349   -1.127810    0.148327
     10          7           0       -2.356403   -2.076025    0.580286
     11          6           0        0.257816    2.061392    0.339101
     12          1           0        1.192920    1.751880   -0.133310
     13          1           0        0.509415    2.679384    1.203175
     14          1           0       -0.338272    2.652178   -0.360490
     15          7           0        0.368949    0.032693    1.648390
     16          1           0        1.225548   -0.208255    1.145501
     17          1           0       -0.083300   -0.819860    1.955748
     18         17           0        3.113451   -0.571196   -0.249782
 ---------------------------------------------------------------------
 Rotational constants (GHZ):           1.6801645           0.7297194           0.6653966
 ======================================================================================================
                                       Pseudopotential Parameters
 ======================================================================================================
  Center     Atomic      Valence      Angular      Power
  Number     Number     Electrons     Momentum     of R      Exponent        Coefficient   SO-Coeffient
 ======================================================================================================
    1          6            6
                                      G and up 
                                                     0        0.0000010       -0.00011185    0.00000000
                                                     2        0.1200000       -0.02301220    0.00000000
                                                     2        0.1400000        0.13317600    0.00000000
                                                     2        0.1600000       -0.19690668    0.00000000
                                                     2        0.2200000        0.23163694    0.00000000
                                                     2        0.3000000       -0.36920489    0.00000000
                                                     2        0.4000000        0.36389709    0.00000000
                                                     2        0.7000000       -0.38862160    0.00000000
                                                     2        1.3000000        0.80803421    0.00000000
                                      S - G
                                                     0        0.0000010        0.00312304    0.00000000
                                                     2        0.1200000       -0.00632892    0.00000000
                                                     2        0.2200000       -0.03780897    0.00000000
                                                     2        0.4000000        0.26269560    0.00000000
                                                     2        0.9000000       -0.28209514    0.00000000
                                                     2        1.5000000       -0.72686737    0.00000000
                                      P - G
                                                     0        0.0000010       -0.01465594    0.00000000
                                                     2        0.1200000        0.07908409    0.00000000
                                                     2        0.1800000       -0.30615861    0.00000000
                                                     2        0.2600000        0.41506950    0.00000000
                                                     2        0.5000000       -0.36252345    0.00000000
                                                     2        0.9000000        0.15124193    0.00000000
                                                     2        3.0000000       -0.80425677    0.00000000
                                      D - G
                                                     0        0.0000010        0.01149631    0.00000000
                                                     2        0.1200000       -0.04713561    0.00000000
                                                     2        0.1600000        0.10865096    0.00000000
                                                     2        0.2800000       -0.15816701    0.00000000
                                                     2        0.7000000        0.65478804    0.00000000
                                                     2        1.3000000       -1.73816624    0.00000000
                                      F - G
                                                     0        0.0000010        0.00481868    0.00000000
                                                     2        0.1200000       -0.04746842    0.00000000
                                                     2        0.1600000        0.09327889    0.00000000
                                                     2        0.4000000       -0.19693326    0.00000000
                                                     2        0.9000000        0.34938253    0.00000000
    2          6            6
                                      G and up 
                                                     0        0.0000010       -0.00011185    0.00000000
                                                     2        0.1200000       -0.02301220    0.00000000
                                                     2        0.1400000        0.13317600    0.00000000
                                                     2        0.1600000       -0.19690668    0.00000000
                                                     2        0.2200000        0.23163694    0.00000000
                                                     2        0.3000000       -0.36920489    0.00000000
                                                     2        0.4000000        0.36389709    0.00000000
                                                     2        0.7000000       -0.38862160    0.00000000
                                                     2        1.3000000        0.80803421    0.00000000
                                      S - G
                                                     0        0.0000010        0.00312304    0.00000000
                                                     2        0.1200000       -0.00632892    0.00000000
                                                     2        0.2200000       -0.03780897    0.00000000
                                                     2        0.4000000        0.26269560    0.00000000
                                                     2        0.9000000       -0.28209514    0.00000000
                                                     2        1.5000000       -0.72686737    0.00000000
                                      P - G
                                                     0        0.0000010       -0.01465594    0.00000000
                                                     2        0.1200000        0.07908409    0.00000000
                                                     2        0.1800000       -0.30615861    0.00000000
                                                     2        0.2600000        0.41506950    0.00000000
                                                     2        0.5000000       -0.36252345    0.00000000
                                                     2        0.9000000        0.15124193    0.00000000
                                                     2        3.0000000       -0.80425677    0.00000000
                                      D - G
                                                     0        0.0000010        0.01149631    0.00000000
                                                     2        0.1200000       -0.04713561    0.00000000
                                                     2        0.1600000        0.10865096    0.00000000
                                                     2        0.2800000       -0.15816701    0.00000000
                                                     2        0.7000000        0.65478804    0.00000000
                                                     2        1.3000000       -1.73816624    0.00000000
                                      F - G
                                                     0        0.0000010        0.00481868    0.00000000
                                                     2        0.1200000       -0.04746842    0.00000000
                                                     2        0.1600000        0.09327889    0.00000000
                                                     2        0.4000000       -0.19693326    0.00000000
                                                     2        0.9000000        0.34938253    0.00000000
    3          9            9
                                      G and up 
                                                     0        0.0000010        0.00013061    0.00000000
                                                     2        0.1200000        0.06713281    0.00000000
                                                     2        0.1400000       -0.24167382    0.00000000
                                                     2        0.1800000        0.63223557    0.00000000
                                                     2        0.2200000       -0.82578269    0.00000000
                                                     2        0.3000000        0.62544157    0.00000000
                                                     2        0.5000000       -0.74972011    0.00000000
                                                     2        0.8000000        1.07821461    0.00000000
                                                     2        2.5000000       -1.10703579    0.00000000
                                      S - G
                                                     0        0.0000010        0.01584301    0.00000000
                                                     2        0.1200000        0.08016155    0.00000000
                                                     2        0.1800000       -0.34633115    0.00000000
                                                     2        0.3000000        0.65132194    0.00000000
                                                     2        2.5000000       -2.36634383    0.00000000
                                      P - G
                                                     0        0.0000010        0.01590244    0.00000000
                                                     2        0.1200000       -0.11156199    0.00000000
                                                     2        0.1600000        0.22434929    0.00000000
                                                     2        0.3000000       -0.27751209    0.00000000
                                      D - G
                                                     0        0.0000010       -0.03628923    0.00000000
                                                     2        0.1200000        0.04690238    0.00000000
                                                     2        0.2600000       -0.08720270    0.00000000
                                      F - G
                                                     0        0.0000010        0.01127523    0.00000000
                                                     2        0.1400000       -0.04328550    0.00000000
                                                     2        0.2400000        0.03116441    0.00000000
                                                     2        0.4000000        0.20516616    0.00000000
    4          1            1
                                      F and up 
                                                     0        0.0000010       -0.00000699    0.00000000
                                                     2        0.1200000        0.00123686    0.00000000
                                                     2        0.1800000       -0.00752022    0.00000000
                                                     2        0.2600000        0.02503380    0.00000000
                                                     2        0.4000000       -0.08702670    0.00000000
                                                     2        0.6000000        0.30134159    0.00000000
                                                     2        0.8000000       -0.50204959    0.00000000
                                                     2        1.2000000        0.52208372    0.00000000
                                      S - F
                                                     0        0.0000010       -0.01618346    0.00000000
                                                     2        0.1200000       -0.07880581    0.00000000
                                                     2        0.1600000        0.32040539    0.00000000
                                                     2        0.2400000       -0.47500956    0.00000000
                                                     2        0.5000000        0.54013668    0.00000000
                                                     2        1.5000000       -1.40434292    0.00000000
                                                     2        3.0000000        1.46283806    0.00000000
                                      P - F
                                                     0        0.0000010        0.00612970    0.00000000
                                                     2        0.1200000        0.02254406    0.00000000
                                                     2        0.1800000       -0.13874529    0.00000000
                                                     2        0.3000000        0.38299049    0.00000000
                                                     2        0.5000000       -0.57923512    0.00000000
                                                     2        1.0000000        0.63021625    0.00000000
                                                     2        2.0000000       -0.79201034    0.00000000
                                      D - F
                                                     0        0.0000010       -0.00296226    0.00000000
                                                     2        0.1200000       -0.00547344    0.00000000
                                                     2        0.1400000        0.01837884    0.00000000
                                                     2        0.2400000       -0.05565704    0.00000000
                                                     2        0.4000000        0.15376597    0.00000000
                                                     2        0.8000000       -0.32464795    0.00000000
    5          6            6
                                      G and up 
                                                     0        0.0000010       -0.00011185    0.00000000
                                                     2        0.1200000       -0.02301220    0.00000000
                                                     2        0.1400000        0.13317600    0.00000000
                                                     2        0.1600000       -0.19690668    0.00000000
                                                     2        0.2200000        0.23163694    0.00000000
                                                     2        0.3000000       -0.36920489    0.00000000
                                                     2        0.4000000        0.36389709    0.00000000
                                                     2        0.7000000       -0.38862160    0.00000000
                                                     2        1.3000000        0.80803421    0.00000000
                                      S - G
                                                     0        0.0000010        0.00312304    0.00000000
                                                     2        0.1200000       -0.00632892    0.00000000
                                                     2        0.2200000       -0.03780897    0.00000000
                                                     2        0.4000000        0.26269560    0.00000000
                                                     2        0.9000000       -0.28209514    0.00000000
                                                     2        1.5000000       -0.72686737    0.00000000
                                      P - G
                                                     0        0.0000010       -0.01465594    0.00000000
                                                     2        0.1200000        0.07908409    0.00000000
                                                     2        0.1800000       -0.30615861    0.00000000
                                                     2        0.2600000        0.41506950    0.00000000
                                                     2        0.5000000       -0.36252345    0.00000000
                                                     2        0.9000000        0.15124193    0.00000000
                                                     2        3.0000000       -0.80425677    0.00000000
                                      D - G
                                                     0        0.0000010        0.01149631    0.00000000
                                                     2        0.1200000       -0.04713561    0.00000000
                                                     2        0.1600000        0.10865096    0.00000000
                                                     2        0.2800000       -0.15816701    0.00000000
                                                     2        0.7000000        0.65478804    0.00000000
                                                     2        1.3000000       -1.73816624    0.00000000
                                      F - G
                                                     0        0.0000010        0.00481868    0.00000000
                                                     2        0.1200000       -0.04746842    0.00000000
                                                     2        0.1600000        0.09327889    0.00000000
                                                     2        0.4000000       -0.19693326    0.00000000
                                                     2        0.9000000        0.34938253    0.00000000
    6          1            1
                                      F and up 
                                                     0        0.0000010       -0.00000699    0.00000000
                                                     2        0.1200000        0.00123686    0.00000000
                                                     2        0.1800000       -0.00752022    0.00000000
                                                     2        0.2600000        0.02503380    0.00000000
                                                     2        0.4000000       -0.08702670    0.00000000
                                                     2        0.6000000        0.30134159    0.00000000
                                                     2        0.8000000       -0.50204959    0.00000000
                                                     2        1.2000000        0.52208372    0.00000000
                                      S - F
                                                     0        0.0000010       -0.01618346    0.00000000
                                                     2        0.1200000       -0.07880581    0.00000000
                                                     2        0.1600000        0.32040539    0.00000000
                                                     2        0.2400000       -0.47500956    0.00000000
                                                     2        0.5000000        0.54013668    0.00000000
                                                     2        1.5000000       -1.40434292    0.00000000
                                                     2        3.0000000        1.46283806    0.00000000
                                      P - F
                                                     0        0.0000010        0.00612970    0.00000000
                                                     2        0.1200000        0.02254406    0.00000000
                                                     2        0.1800000       -0.13874529    0.00000000
                                                     2        0.3000000        0.38299049    0.00000000
                                                     2        0.5000000       -0.57923512    0.00000000
                                                     2        1.0000000        0.63021625    0.00000000
                                                     2        2.0000000       -0.79201034    0.00000000
                                      D - F
                                                     0        0.0000010       -0.00296226    0.00000000
                                                     2        0.1200000       -0.00547344    0.00000000
                                                     2        0.1400000        0.01837884    0.00000000
                                                     2        0.2400000       -0.05565704    0.00000000
                                                     2        0.4000000        0.15376597    0.00000000
                                                     2        0.8000000       -0.32464795    0.00000000
    7          1            1
                                      F and up 
                                                     0        0.0000010       -0.00000699    0.00000000
                                                     2        0.1200000        0.00123686    0.00000000
                                                     2        0.1800000       -0.00752022    0.00000000
                                                     2        0.2600000        0.02503380    0.00000000
                                                     2        0.4000000       -0.08702670    0.00000000
                                                     2        0.6000000        0.30134159    0.00000000
                                                     2        0.8000000       -0.50204959    0.00000000
                                                     2        1.2000000        0.52208372    0.00000000
                                      S - F
                                                     0        0.0000010       -0.01618346    0.00000000
                                                     2        0.1200000       -0.07880581    0.00000000
                                                     2        0.1600000        0.32040539    0.00000000
                                                     2        0.2400000       -0.47500956    0.00000000
                                                     2        0.5000000        0.54013668    0.00000000
                                                     2        1.5000000       -1.40434292    0.00000000
                                                     2        3.0000000        1.46283806    0.00000000
                                      P - F
                                                     0        0.0000010        0.00612970    0.00000000
                                                     2        0.1200000        0.02254406    0.00000000
                                                     2        0.1800000       -0.13874529    0.00000000
                                                     2        0.3000000        0.38299049    0.00000000
                                                     2        0.5000000       -0.57923512    0.00000000
                                                     2        1.0000000        0.63021625    0.00000000
                                                     2        2.0000000       -0.79201034    0.00000000
                                      D - F
                                                     0        0.0000010       -0.00296226    0.00000000
                                                     2        0.1200000       -0.00547344    0.00000000
                                                     2        0.1400000        0.01837884    0.00000000
                                                     2        0.2400000       -0.05565704    0.00000000
                                                     2        0.4000000        0.15376597    0.00000000
                                                     2        0.8000000       -0.32464795    0.00000000
    8          1            1
                                      F and up 
                                                     0        0.0000010       -0.00000699    0.00000000
                                                     2        0.1200000        0.00123686    0.00000000
                                                     2        0.1800000       -0.00752022    0.00000000
                                                     2        0.2600000        0.02503380    0.00000000
                                                     2        0.4000000       -0.08702670    0.00000000
                                                     2        0.6000000        0.30134159    0.00000000
                                                     2        0.8000000       -0.50204959    0.00000000
                                                     2        1.2000000        0.52208372    0.00000000
                                      S - F
                                                     0        0.0000010       -0.01618346    0.00000000
                                                     2        0.1200000       -0.07880581    0.00000000
                                                     2        0.1600000        0.32040539    0.00000000
                                                     2        0.2400000       -0.47500956    0.00000000
                                                     2        0.5000000        0.54013668    0.00000000
                                                     2        1.5000000       -1.40434292    0.00000000
                                                     2        3.0000000        1.46283806    0.00000000
                                      P - F
                                                     0        0.0000010        0.00612970    0.00000000
                                                     2        0.1200000        0.02254406    0.00000000
                                                     2        0.1800000       -0.13874529    0.00000000
                                                     2        0.3000000        0.38299049    0.00000000
                                                     2        0.5000000       -0.57923512    0.00000000
                                                     2        1.0000000        0.63021625    0.00000000
                                                     2        2.0000000       -0.79201034    0.00000000
                                      D - F
                                                     0        0.0000010       -0.00296226    0.00000000
                                                     2        0.1200000       -0.00547344    0.00000000
                                                     2        0.1400000        0.01837884    0.00000000
                                                     2        0.2400000       -0.05565704    0.00000000
                                                     2        0.4000000        0.15376597    0.00000000
                                                     2        0.8000000       -0.32464795    0.00000000
    9          6            6
                                      G and up 
                                                     0        0.0000010       -0.00011185    0.00000000
                                                     2        0.1200000       -0.02301220    0.00000000
                                                     2        0.1400000        0.13317600    0.00000000
                                                     2        0.1600000       -0.19690668    0.00000000
                                                     2        0.2200000        0.23163694    0.00000000
                                                     2        0.3000000       -0.36920489    0.00000000
                                                     2        0.4000000        0.36389709    0.00000000
                                                     2        0.7000000       -0.38862160    0.00000000
                                                     2        1.3000000        0.80803421    0.00000000
                                      S - G
                                                     0        0.0000010        0.00312304    0.00000000
                                                     2        0.1200000       -0.00632892    0.00000000
                                                     2        0.2200000       -0.03780897    0.00000000
                                                     2        0.4000000        0.26269560    0.00000000
                                                     2        0.9000000       -0.28209514    0.00000000
                                                     2        1.5000000       -0.72686737    0.00000000
                                      P - G
                                                     0        0.0000010       -0.01465594    0.00000000
                                                     2        0.1200000        0.07908409    0.00000000
                                                     2        0.1800000       -0.30615861    0.00000000
                                                     2        0.2600000        0.41506950    0.00000000
                                                     2        0.5000000       -0.36252345    0.00000000
                                                     2        0.9000000        0.15124193    0.00000000
                                                     2        3.0000000       -0.80425677    0.00000000
                                      D - G
                                                     0        0.0000010        0.01149631    0.00000000
                                                     2        0.1200000       -0.04713561    0.00000000
                                                     2        0.1600000        0.10865096    0.00000000
                                                     2        0.2800000       -0.15816701    0.00000000
                                                     2        0.7000000        0.65478804    0.00000000
                                                     2        1.3000000       -1.73816624    0.00000000
                                      F - G
                                                     0        0.0000010        0.00481868    0.00000000
                                                     2        0.1200000       -0.04746842    0.00000000
                                                     2        0.1600000        0.09327889    0.00000000
                                                     2        0.4000000       -0.19693326    0.00000000
                                                     2        0.9000000        0.34938253    0.00000000
   10          7            7
                                      G and up 
                                                     0        0.0000010       -0.00000022    0.00000000
                                                     2        0.1200000       -0.00992020    0.00000000
                                                     2        0.1400000        0.02578711    0.00000000
                                                     2        0.2200000       -0.10543517    0.00000000
                                                     2        0.3000000        0.23013665    0.00000000
                                                     2        0.5000000       -0.60834094    0.00000000
                                                     2        0.8000000        1.81436815    0.00000000
                                                     2        1.2000000       -3.87539738    0.00000000
                                                     2        2.0000000        2.94656640    0.00000000
                                      S - G
                                                     0        0.0000010       -0.00223566    0.00000000
                                                     2        0.1200000        0.45247937    0.00000000
                                                     2        0.1600000       -0.78978304    0.00000000
                                                     2        0.4000000        0.84956595    0.00000000
                                                     2        3.0000000       -0.75910174    0.00000000
                                      P - G
                                                     0        0.0000010       -0.25576737    0.00000000
                                                     2        0.1200000       -0.19992277    0.00000000
                                                     2        0.1600000        0.88518512    0.00000000
                                                     2        0.2400000       -1.33293917    0.00000000
                                                     2        0.4000000        1.33451776    0.00000000
                                                     2        0.9000000       -0.55709210    0.00000000
                                                     2        2.5000000        2.48506502    0.00000000
                                      D - G
                                                     0        0.0000010        0.26143746    0.00000000
                                                     2        0.1200000       -0.04492212    0.00000000
                                                     2        0.1400000       -0.18274021    0.00000000
                                                     2        0.2400000        0.53490004    0.00000000
                                                     2        0.4000000       -0.74136473    0.00000000
                                                     2        1.3000000        1.71401021    0.00000000
                                      F - G
                                                     0        0.0000010       -0.07169988    0.00000000
                                                     2        0.1200000        0.04480029    0.00000000
                                                     2        0.2600000       -0.08050831    0.00000000
                                                     2        0.5000000        0.31290809    0.00000000
                                                     2        1.0000000       -0.45253098    0.00000000
   11          6            6
                                      G and up 
                                                     0        0.0000010       -0.00011185    0.00000000
                                                     2        0.1200000       -0.02301220    0.00000000
                                                     2        0.1400000        0.13317600    0.00000000
                                                     2        0.1600000       -0.19690668    0.00000000
                                                     2        0.2200000        0.23163694    0.00000000
                                                     2        0.3000000       -0.36920489    0.00000000
                                                     2        0.4000000        0.36389709    0.00000000
                                                     2        0.7000000       -0.38862160    0.00000000
                                                     2        1.3000000        0.80803421    0.00000000
                                      S - G
                                                     0        0.0000010        0.00312304    0.00000000
                                                     2        0.1200000       -0.00632892    0.00000000
                                                     2        0.2200000       -0.03780897    0.00000000
                                                     2        0.4000000        0.26269560    0.00000000
                                                     2        0.9000000       -0.28209514    0.00000000
                                                     2        1.5000000       -0.72686737    0.00000000
                                      P - G
                                                     0        0.0000010       -0.01465594    0.00000000
                                                     2        0.1200000        0.07908409    0.00000000
                                                     2        0.1800000       -0.30615861    0.00000000
                                                     2        0.2600000        0.41506950    0.00000000
                                                     2        0.5000000       -0.36252345    0.00000000
                                                     2        0.9000000        0.15124193    0.00000000
                                                     2        3.0000000       -0.80425677    0.00000000
                                      D - G
                                                     0        0.0000010        0.01149631    0.00000000
                                                     2        0.1200000       -0.04713561    0.00000000
                                                     2        0.1600000        0.10865096    0.00000000
                                                     2        0.2800000       -0.15816701    0.00000000
                                                     2        0.7000000        0.65478804    0.00000000
                                                     2        1.3000000       -1.73816624    0.00000000
                                      F - G
                                                     0        0.0000010        0.00481868    0.00000000
                                                     2        0.1200000       -0.04746842    0.00000000
                                                     2        0.1600000        0.09327889    0.00000000
                                                     2        0.4000000       -0.19693326    0.00000000
                                                     2        0.9000000        0.34938253    0.00000000
   12          1            1
                                      F and up 
                                                     0        0.0000010       -0.00000699    0.00000000
                                                     2        0.1200000        0.00123686    0.00000000
                                                     2        0.1800000       -0.00752022    0.00000000
                                                     2        0.2600000        0.02503380    0.00000000
                                                     2        0.4000000       -0.08702670    0.00000000
                                                     2        0.6000000        0.30134159    0.00000000
                                                     2        0.8000000       -0.50204959    0.00000000
                                                     2        1.2000000        0.52208372    0.00000000
                                      S - F
                                                     0        0.0000010       -0.01618346    0.00000000
                                                     2        0.1200000       -0.07880581    0.00000000
                                                     2        0.1600000        0.32040539    0.00000000
                                                     2        0.2400000       -0.47500956    0.00000000
                                                     2        0.5000000        0.54013668    0.00000000
                                                     2        1.5000000       -1.40434292    0.00000000
                                                     2        3.0000000        1.46283806    0.00000000
                                      P - F
                                                     0        0.0000010        0.00612970    0.00000000
                                                     2        0.1200000        0.02254406    0.00000000
                                                     2        0.1800000       -0.13874529    0.00000000
                                                     2        0.3000000        0.38299049    0.00000000
                                                     2        0.5000000       -0.57923512    0.00000000
                                                     2        1.0000000        0.63021625    0.00000000
                                                     2        2.0000000       -0.79201034    0.00000000
                                      D - F
                                                     0        0.0000010       -0.00296226    0.00000000
                                                     2        0.1200000       -0.00547344    0.00000000
                                                     2        0.1400000        0.01837884    0.00000000
                                                     2        0.2400000       -0.05565704    0.00000000
                                                     2        0.4000000        0.15376597    0.00000000
                                                     2        0.8000000       -0.32464795    0.00000000
   13          1            1
                                      F and up 
                                                     0        0.0000010       -0.00000699    0.00000000
                                                     2        0.1200000        0.00123686    0.00000000
                                                     2        0.1800000       -0.00752022    0.00000000
                                                     2        0.2600000        0.02503380    0.00000000
                                                     2        0.4000000       -0.08702670    0.00000000
                                                     2        0.6000000        0.30134159    0.00000000
                                                     2        0.8000000       -0.50204959    0.00000000
                                                     2        1.2000000        0.52208372    0.00000000
                                      S - F
                                                     0        0.0000010       -0.01618346    0.00000000
                                                     2        0.1200000       -0.07880581    0.00000000
                                                     2        0.1600000        0.32040539    0.00000000
                                                     2        0.2400000       -0.47500956    0.00000000
                                                     2        0.5000000        0.54013668    0.00000000
                                                     2        1.5000000       -1.40434292    0.00000000
                                                     2        3.0000000        1.46283806    0.00000000
                                      P - F
                                                     0        0.0000010        0.00612970    0.00000000
                                                     2        0.1200000        0.02254406    0.00000000
                                                     2        0.1800000       -0.13874529    0.00000000
                                                     2        0.3000000        0.38299049    0.00000000
                                                     2        0.5000000       -0.57923512    0.00000000
                                                     2        1.0000000        0.63021625    0.00000000
                                                     2        2.0000000       -0.79201034    0.00000000
                                      D - F
                                                     0        0.0000010       -0.00296226    0.00000000
                                                     2        0.1200000       -0.00547344    0.00000000
                                                     2        0.1400000        0.01837884    0.00000000
                                                     2        0.2400000       -0.05565704    0.00000000
                                                     2        0.4000000        0.15376597    0.00000000
                                                     2        0.8000000       -0.32464795    0.00000000
   14          1            1
                                      F and up 
                                                     0        0.0000010       -0.00000699    0.00000000
                                                     2        0.1200000        0.00123686    0.00000000
                                                     2        0.1800000       -0.00752022    0.00000000
                                                     2        0.2600000        0.02503380    0.00000000
                                                     2        0.4000000       -0.08702670    0.00000000
                                                     2        0.6000000        0.30134159    0.00000000
                                                     2        0.8000000       -0.50204959    0.00000000
                                                     2        1.2000000        0.52208372    0.00000000
                                      S - F
                                                     0        0.0000010       -0.01618346    0.00000000
                                                     2        0.1200000       -0.07880581    0.00000000
                                                     2        0.1600000        0.32040539    0.00000000
                                                     2        0.2400000       -0.47500956    0.00000000
                                                     2        0.5000000        0.54013668    0.00000000
                                                     2        1.5000000       -1.40434292    0.00000000
                                                     2        3.0000000        1.46283806    0.00000000
                                      P - F
                                                     0        0.0000010        0.00612970    0.00000000
                                                     2        0.1200000        0.02254406    0.00000000
                                                     2        0.1800000       -0.13874529    0.00000000
                                                     2        0.3000000        0.38299049    0.00000000
                                                     2        0.5000000       -0.57923512    0.00000000
[...]
                                                     2        2.5000000        2.48506502    0.00000000
                                      D - G
                                                     0        0.0000010        0.26143746    0.00000000
                                                     2        0.1200000       -0.04492212    0.00000000
                                                     2        0.1400000       -0.18274021    0.00000000
                                                     2        0.2400000        0.53490004    0.00000000
                                                     2        0.4000000       -0.74136473    0.00000000
                                                     2        1.3000000        1.71401021    0.00000000
                                      F - G
                                                     0        0.0000010       -0.07169988    0.00000000
                                                     2        0.1200000        0.04480029    0.00000000
                                                     2        0.2600000       -0.08050831    0.00000000
                                                     2        0.5000000        0.31290809    0.00000000
                                                     2        1.0000000       -0.45253098    0.00000000
   16          1            1
                                      F and up 
                                                     0        0.0000010       -0.00000699    0.00000000
                                                     2        0.1200000        0.00123686    0.00000000
                                                     2        0.1800000       -0.00752022    0.00000000
                                                     2        0.2600000        0.02503380    0.00000000
                                                     2        0.4000000       -0.08702670    0.00000000
                                                     2        0.6000000        0.30134159    0.00000000
                                                     2        0.8000000       -0.50204959    0.00000000
                                                     2        1.2000000        0.52208372    0.00000000
                                      S - F
                                                     0        0.0000010       -0.01618346    0.00000000
                                                     2        0.1200000       -0.07880581    0.00000000
                                                     2        0.1600000        0.32040539    0.00000000
                                                     2        0.2400000       -0.47500956    0.00000000
                                                     2        0.5000000        0.54013668    0.00000000
                                                     2        1.5000000       -1.40434292    0.00000000
                                                     2        3.0000000        1.46283806    0.00000000
                                      P - F
                                                     0        0.0000010        0.00612970    0.00000000
                                                     2        0.1200000        0.02254406    0.00000000
                                                     2        0.1800000       -0.13874529    0.00000000
                                                     2        0.3000000        0.38299049    0.00000000
                                                     2        0.5000000       -0.57923512    0.00000000
                                                     2        1.0000000        0.63021625    0.00000000
                                                     2        2.0000000       -0.79201034    0.00000000
                                      D - F
                                                     0        0.0000010       -0.00296226    0.00000000
                                                     2        0.1200000       -0.00547344    0.00000000
                                                     2        0.1400000        0.01837884    0.00000000
                                                     2        0.2400000       -0.05565704    0.00000000
                                                     2        0.4000000        0.15376597    0.00000000
                                                     2        0.8000000       -0.32464795    0.00000000
   17          1            1
                                      F and up 
                                                     0        0.0000010       -0.00000699    0.00000000
                                                     2        0.1200000        0.00123686    0.00000000
                                                     2        0.1800000       -0.00752022    0.00000000
                                                     2        0.2600000        0.02503380    0.00000000
                                                     2        0.4000000       -0.08702670    0.00000000
                                                     2        0.6000000        0.30134159    0.00000000
                                                     2        0.8000000       -0.50204959    0.00000000
                                                     2        1.2000000        0.52208372    0.00000000
                                      S - F
                                                     0        0.0000010       -0.01618346    0.00000000
                                                     2        0.1200000       -0.07880581    0.00000000
                                                     2        0.1600000        0.32040539    0.00000000
                                                     2        0.2400000       -0.47500956    0.00000000
                                                     2        0.5000000        0.54013668    0.00000000
                                                     2        1.5000000       -1.40434292    0.00000000
                                                     2        3.0000000        1.46283806    0.00000000
                                      P - F
                                                     0        0.0000010        0.00612970    0.00000000
                                                     2        0.1200000        0.02254406    0.00000000
                                                     2        0.1800000       -0.13874529    0.00000000
                                                     2        0.3000000        0.38299049    0.00000000
                                                     2        0.5000000       -0.57923512    0.00000000
                                                     2        1.0000000        0.63021625    0.00000000
                                                     2        2.0000000       -0.79201034    0.00000000
                                      D - F
                                                     0        0.0000010       -0.00296226    0.00000000
                                                     2        0.1200000       -0.00547344    0.00000000
                                                     2        0.1400000        0.01837884    0.00000000
                                                     2        0.2400000       -0.05565704    0.00000000
                                                     2        0.4000000        0.15376597    0.00000000
                                                     2        0.8000000       -0.32464795    0.00000000
   18         17           17
                                      G and up 
                                                     0        0.0000010       -0.00005841    0.00000000
                                                     2        0.1200000       -0.00031502    0.00000000
                                                     2        0.1400000        0.00458821    0.00000000
                                                     2        0.2600000       -0.03604686    0.00000000
                                                     2        0.4000000        0.03832573    0.00000000
                                                     2        1.1000000       -0.21042623    0.00000000
                                      S - G
                                                     0        0.0000010        0.00274387    0.00000000
                                                     2        0.1800000        0.09962839    0.00000000
                                                     2        0.4000000       -0.20830181    0.00000000
                                      P - G
                                                     0        0.0000010       -0.01867126    0.00000000
                                                     2        0.1200000        0.19610675    0.00000000
                                                     2        0.1600000       -0.37005054    0.00000000
                                                     2        0.3000000        0.29573883    0.00000000
                                      D - G
                                                     0        0.0000010        0.06766179    0.00000000
                                                     2        0.1200000       -0.07333140    0.00000000
                                                     2        0.2200000        0.05439691    0.00000000
                                      F - G
                                                     0        0.0000010       -0.02719671    0.00000000
                                                     2        0.1200000       -0.06013675    0.00000000
                                                     2        0.2000000        0.35339430    0.00000000
                                                     2        0.4000000       -0.66518555    0.00000000
 ======================================================================================================
   292 basis functions,   524 primitive gaussians,   310 cartesian basis functions
    40 alpha electrons       40 beta electrons
       nuclear repulsion energy       518.4445992858 Hartrees.
 NAtoms=   18 NActive=   18 NUniq=   18 SFac= 1.00D+00 NAtFMM=   60 NAOKFM=F Big=F
   1 Symmetry operations used in ECPInt.
 ECPInt:  NShTT=    8256 NPrTT=   42704 LenC2=    8202 LenP2D=   30781.
 LDataN:  DoStor=T MaxTD1= 6 Len=  172
 Initial guess from the checkpoint file:  "E2SN2_339_mol2.chk"
 B after Tr=    -2.054950    0.142843   -0.730388
         Rot=   -0.017150    0.240490    0.924190   -0.296215 Ang= 181.97 deg.
 >>>>>>>>>> Convergence criterion not met.
 SCF Done:  E(RHF) =  -862.683218349     A.U. after    2 cycles
            NFock=  1  Conv=0.11D-01     -V/T= 1.9980

 **********************************************************************

            Population analysis using the SCF Density.

 **********************************************************************

 Orbital symmetries:
       Occupied  (A) (A) (A) (A) (A) (A) (A) (A) (A) (A) (A) (A)
                 (A) (A) (A) (A) (A) (A) (A) (A) (A) (A) (A) (A)
                 (A) (A) (A) (A) (A) (A) (A) (A) (A) (A) (A) (A)
                 (A) (A) (A) (A)
       Virtual   (A) (A) (A) (A) (A) (A) (A) (A) (A) (A) (A) (A)
                 (A) (A) (A) (A) (A) (A) (A) (A) (A) (A) (A) (A)
                 (A) (A) (A) (A) (A) (A) (A) (A) (A) (A) (A) (A)
                 (A) (A) (A) (A) (A) (A) (A) (A) (A) (A) (A) (A)
                 (A) (A) (A) (A) (A) (A) (A) (A) (A) (A) (A) (A)
                 (A) (A) (A) (A) (A) (A) (A) (A) (A) (A) (A) (A)
                 (A) (A) (A) (A) (A) (A) (A) (A) (A) (A) (A) (A)
                 (A) (A) (A) (A) (A) (A) (A) (A) (A) (A) (A) (A)
                 (A) (A) (A) (A) (A) (A) (A) (A) (A) (A) (A) (A)
                 (A) (A) (A) (A) (A) (A) (A) (A) (A) (A) (A) (A)
                 (A) (A) (A) (A) (A) (A) (A) (A) (A) (A) (A) (A)
                 (A) (A) (A) (A) (A) (A) (A) (A) (A) (A) (A) (A)
                 (A) (A) (A) (A) (A) (A) (A) (A) (A) (A) (A) (A)
                 (A) (A) (A) (A) (A) (A) (A) (A) (A) (A) (A) (A)
                 (A) (A) (A) (A) (A) (A) (A) (A) (A) (A) (A) (A)
                 (A) (A) (A) (A) (A) (A) (A) (A) (A) (A) (A) (A)
                 (A) (A) (A) (A) (A) (A) (A) (A) (A) (A) (A) (A)
                 (A) (A) (A) (A) (A) (A) (A) (A) (A) (A) (A) (A)
                 (A) (A) (A) (A) (A) (A) (A) (A) (A) (A) (A) (A)
                 (A) (A) (A) (A) (A) (A) (A) (A) (A) (A) (A) (A)
                 (A) (A) (A) (A) (A) (A) (A) (A) (A) (A) (A) (A)
 The electronic state is 1-A.
 Alpha  occ. eigenvalues -- -103.37490 -26.02032 -15.55378 -15.47972 -11.26273
 Alpha  occ. eigenvalues --  -11.19874 -11.17152 -11.12530 -11.11403 -10.40560
 Alpha  occ. eigenvalues --   -8.06158  -8.06133  -8.06127  -1.55090  -1.09534
 Alpha  occ. eigenvalues --   -1.05436  -0.95725  -0.87147  -0.82956  -0.81563
 Alpha  occ. eigenvalues --   -0.71622  -0.68309  -0.63188  -0.62098  -0.56568
 Alpha  occ. eigenvalues --   -0.53348  -0.48102  -0.47806  -0.45549  -0.44841
 Alpha  occ. eigenvalues --   -0.43784  -0.41600  -0.40484  -0.38257  -0.37080
 Alpha  occ. eigenvalues --   -0.35781  -0.27243  -0.20779  -0.20608  -0.20572
 Alpha virt. eigenvalues --    0.11871   0.12594   0.13556   0.14489   0.15495
 Alpha virt. eigenvalues --    0.16038   0.17571   0.18469   0.19070   0.19969
 Alpha virt. eigenvalues --    0.21046   0.22043   0.22964   0.23771   0.24310
 Alpha virt. eigenvalues --    0.24906   0.25390   0.25879   0.26071   0.26203
 Alpha virt. eigenvalues --    0.27184   0.27836   0.28231   0.29099   0.29489
 Alpha virt. eigenvalues --    0.30372   0.31035   0.32094   0.32880   0.33900
 Alpha virt. eigenvalues --    0.34938   0.35050   0.35192   0.36755   0.37166
 Alpha virt. eigenvalues --    0.37397   0.38734   0.39509   0.40421   0.41223
 Alpha virt. eigenvalues --    0.41833   0.42933   0.45022   0.45268   0.46473
 Alpha virt. eigenvalues --    0.47549   0.47799   0.48441   0.48867   0.49830
 Alpha virt. eigenvalues --    0.50964   0.51368   0.51526   0.51762   0.53933
 Alpha virt. eigenvalues --    0.54737   0.55150   0.56584   0.56861   0.57565
 Alpha virt. eigenvalues --    0.58545   0.59237   0.59807   0.61198   0.61545
 Alpha virt. eigenvalues --    0.62431   0.63156   0.64158   0.64769   0.65885
 Alpha virt. eigenvalues --    0.67001   0.67483   0.68085   0.68913   0.70334
 Alpha virt. eigenvalues --    0.70666   0.71762   0.72153   0.73217   0.73695
 Alpha virt. eigenvalues --    0.74910   0.76123   0.76890   0.77554   0.78515
 Alpha virt. eigenvalues --    0.79824   0.80179   0.80874   0.81774   0.83137
 Alpha virt. eigenvalues --    0.83707   0.84280   0.84769   0.86068   0.86987
 Alpha virt. eigenvalues --    0.87616   0.88454   0.89538   0.90254   0.91011
 Alpha virt. eigenvalues --    0.91455   0.93222   0.93659   0.95851   0.95987
 Alpha virt. eigenvalues --    0.96761   0.98567   0.99081   0.99636   1.01012
 Alpha virt. eigenvalues --    1.02965   1.03647   1.04267   1.05539   1.05956
 Alpha virt. eigenvalues --    1.06955   1.08300   1.09890   1.11239   1.12573
 Alpha virt. eigenvalues --    1.14289   1.15332   1.16593   1.18529   1.18992
 Alpha virt. eigenvalues --    1.20310   1.22247   1.23758   1.25220   1.26348
 Alpha virt. eigenvalues --    1.27719   1.30613   1.30981   1.32938   1.33791
 Alpha virt. eigenvalues --    1.36106   1.37991   1.38226   1.40472   1.43111
 Alpha virt. eigenvalues --    1.46349   1.47156   1.47498   1.50555   1.51557
 Alpha virt. eigenvalues --    1.54618   1.55698   1.57327   1.61384   1.63180
 Alpha virt. eigenvalues --    1.64503   1.65906   1.69375   1.69544   1.70248
 Alpha virt. eigenvalues --    1.71716   1.73185   1.75314   1.76435   1.77070
 Alpha virt. eigenvalues --    1.80433   1.81498   1.82259   1.84447   1.87475
 Alpha virt. eigenvalues --    1.87644   1.89272   1.89473   1.91256   1.92061
 Alpha virt. eigenvalues --    1.93194   1.94991   1.95599   1.96859   1.98886
 Alpha virt. eigenvalues --    2.00744   2.01440   2.04271   2.07432   2.08833
 Alpha virt. eigenvalues --    2.10004   2.11719   2.12855   2.16802   2.20607
 Alpha virt. eigenvalues --    2.21398   2.22988   2.25662   2.26849   2.29080
 Alpha virt. eigenvalues --    2.30214   2.32230   2.33806   2.35788   2.37677
 Alpha virt. eigenvalues --    2.38934   2.41132   2.42846   2.44900   2.46490
 Alpha virt. eigenvalues --    2.48919   2.50157   2.51150   2.53266   2.57855
 Alpha virt. eigenvalues --    2.59432   2.63492   2.63953   2.65451   2.68702
 Alpha virt. eigenvalues --    2.69478   2.73225   2.74944   2.76111   2.77364
 Alpha virt. eigenvalues --    2.80934   2.82145   2.84406   2.86338   2.87637
 Alpha virt. eigenvalues --    2.89353   2.91574   2.93235   2.93842   2.96385
 Alpha virt. eigenvalues --    3.00987   3.04570   3.05829   3.08799   3.14780
 Alpha virt. eigenvalues --    3.18052   3.20677   3.22452   3.25198   3.30740
 Alpha virt. eigenvalues --    3.33289   3.35406   3.38855   3.46804   3.52700
 Alpha virt. eigenvalues --    3.58815   3.65530   3.69274   3.78997   3.90058
 Alpha virt. eigenvalues --    4.01714   4.17924   5.20128   5.21988   5.28584
 Alpha virt. eigenvalues --    5.30721   5.34051
          Condensed to atoms (all electrons):
 Mulliken charges:
               1
     1  C    0.490974
     2  C    0.047271
     3  F   -0.504342
     4  H   -0.228422
     5  C    0.766029
     6  H   -0.006585
     7  H    0.003871
     8  H   -0.082216
     9  C   -0.727290
    10  N   -0.212223
    11  C    0.880879
    12  H   -0.058799
    13  H   -0.085848
    14  H   -0.044411
    15  N   -0.317567
    16  H    0.062593
    17  H   -0.035565
    18  Cl  -0.948350
 Sum of Mulliken charges =  -1.00000
 Mulliken charges with hydrogens summed into heavy atoms:
               1
     1  C    0.490974
     2  C   -0.181150
     3  F   -0.504342
     5  C    0.681099
     9  C   -0.727290
    10  N   -0.212223
    11  C    0.691822
    15  N   -0.290539
    18  Cl  -0.948350
 Electronic spatial extent (au):  <R**2>=           1814.5772
 Charge=             -1.0000 electrons
 Dipole moment (field-independent basis, Debye):
    X=             -8.3155    Y=              3.5117    Z=             -0.6021  Tot=              9.0466

 Test job not archived.
 1\1\GINC-SE250\SP\RHF\Aug-CC-pVDZ\C5H9Cl1F1N2(1-)\OHZDE\09-Apr-2025\0\
 \#t hf aug-cc-pvdz iop(5/13=1,5/36=2,99/5=2) pseudo=read geom=check gu
 ess=(read,tcheck) scf=(maxcycle=1)\\title\\-1,1\C,0,0.057321,-0.030247
 ,-0.013756\C,0,-0.393621,0.15126,-1.484219\F,0,1.415064,0.345862,0.065
 372\H,0,0.399139,-0.336443,-2.069827\C,0,-0.721651,0.771016,1.003721\H
 ,0,-1.798959,0.648888,0.868973\H,0,-0.494339,1.82794,0.860739\H,0,-0.4
 29709,0.480777,2.015464\C,0,0.026548,-1.471951,0.308672\N,0,0.018484,-
 2.623487,0.539803\C,0,-0.452686,1.627977,-1.850507\H,0,-1.331233,2.088
 509,-1.392845\H,0,-0.557103,1.714463,-2.933769\H,0,0.452563,2.152992,-
 1.536405\N,0,-1.66012,-0.465581,-1.81409\H,0,-2.434199,0.024294,-1.360
 725\H,0,-1.684294,-1.441282,-1.543411\Cl,0,-4.017242,1.377845,-0.21853
 7\\Version=ES64L-G16RevC.01\State=1-A\HF=-862.6832183\RMSD=1.099e-02\D
 ipole=3.5325802,-0.38044,-0.2102728\Quadrupole=-17.0464544,3.7363623,1
 3.3100921,13.4290688,-1.0341536,2.0837099\PG=C01 [X(C5H9Cl1F1N2)]\\@


 ALL OUR THINKING ABOUT NATURE MUST NECESSARILY MOVE IN CIRCLES OR SPIRALS;
 FOR WE CAN ONLY UNDERSTAND NATURE IF WE THINK ABOUT HER, AND WE CAN ONLY
 THINK BECAUSE OUR BRAIN IS BUILT IN ACCORDANCE WITH NATURE'S LAWS.

                                             -- TIMOTHY FERRIS, "GALAXIES"
 Job cpu time:       0 days  0 hours  2 minutes  8.0 seconds.
 Elapsed time:       0 days  0 hours  0 minutes  9.1 seconds.
 File lengths (MBytes):  RWF=     14 Int=      0 D2E=      0 Chk=     12 Scr=      1
 Normal termination of Gaussian 16 at Wed Apr  9 02:52:06 2025.
