 Entering Gaussian System, Link 0=g16
 Input=E2SN2_259_mol1.gjf
 Output=E2SN2_259_mol1.log
 Initial command:
 /arc/software/Gaussian/g16.c01/l1.exe "/tmp/slurm/4859040/Gau-966177.inp" -scrdir="/tmp/slurm/4859040/"
 Entering Link 1 = /arc/software/Gaussian/g16.c01/l1.exe PID=    966178.
  
 Copyright (c) 1988-2019, Gaussian, Inc.  All Rights Reserved.
  
 This is part of the Gaussian(R) 16 program.  It is based on
 the Gaussian(R) 09 system (copyright 2009, Gaussian, Inc.),
 the Gaussian(R) 03 system (copyright 2003, Gaussian, Inc.),
 the Gaussian(R) 98 system (copyright 1998, Gaussian, Inc.),
 the Gaussian(R) 94 system (copyright 1995, Gaussian, Inc.),
 the Gaussian 92(TM) system (copyright 1992, Gaussian, Inc.),
 the Gaussian 90(TM) system (copyright 1990, Gaussian, Inc.),
 the Gaussian 88(TM) system (copyright 1988, Gaussian, Inc.),
 the Gaussian 86(TM) system (copyright 1986, Carnegie Mellon
 University), and the Gaussian 82(TM) system (copyright 1983,
 Carnegie Mellon University). Gaussian is a federally registered
 trademark of Gaussian, Inc.
  
 This software contains proprietary and confidential information,
 including trade secrets, belonging to Gaussian, Inc.
  
 This software is provided under written license and may be
 used, copied, transmitted, or stored only in accord with that
 written license.
  
 The following legend is applicable only to US Government
 contracts under FAR:
  
                    RESTRICTED RIGHTS LEGEND
  
 Use, reproduction and disclosure by the US Government is
 subject to restrictions as set forth in subparagraphs (a)
 and (c) of the Commercial Computer Software - Restricted
 Rights clause in FAR 52.227-19.
  
 Gaussian, Inc.
 340 Quinnipiac St., Bldg. 40, Wallingford CT 06492
  
  
 ---------------------------------------------------------------
 Warning -- This program may not be used in any manner that
 competes with the business of Gaussian, Inc. or will provide
 assistance to any competitor of Gaussian, Inc.  The licensee
 of this program is prohibited from giving any competitor of
 Gaussian, Inc. access to this program.  By using this program,
 the user acknowledges that Gaussian, Inc. is engaged in the
 business of creating and licensing software in the field of
 computational chemistry and represents and warrants to the
 licensee that it is not a competitor of Gaussian, Inc. and that
 it will not use this program in any manner prohibited above.
 ---------------------------------------------------------------
  

 Cite this work as:
 Gaussian 16, Revision C.01,
 M. J. Frisch, G. W. Trucks, H. B. Schlegel, G. E. Scuseria, 
 M. A. Robb, J. R. Cheeseman, G. Scalmani, V. Barone, 
 G. A. Petersson, H. Nakatsuji, X. Li, M. Caricato, A. V. Marenich, 
 J. Bloino, B. G. Janesko, R. Gomperts, B. Mennucci, H. P. Hratchian, 
 J. V. Ortiz, A. F. Izmaylov, J. L. Sonnenberg, D. Williams-Young, 
 F. Ding, F. Lipparini, F. Egidi, J. Goings, B. Peng, A. Petrone, 
 T. Henderson, D. Ranasinghe, V. G. Zakrzewski, J. Gao, N. Rega, 
 G. Zheng, W. Liang, M. Hada, M. Ehara, K. Toyota, R. Fukuda, 
 J. Hasegawa, M. Ishida, T. Nakajima, Y. Honda, O. Kitao, H. Nakai, 
 T. Vreven, K. Throssell, J. A. Montgomery, Jr., J. E. Peralta, 
 F. Ogliaro, M. J. Bearpark, J. J. Heyd, E. N. Brothers, K. N. Kudin, 
 V. N. Staroverov, T. A. Keith, R. Kobayashi, J. Normand, 
 K. Raghavachari, A. P. Rendell, J. C. Burant, S. S. Iyengar, 
 J. Tomasi, M. Cossi, J. M. Millam, M. Klene, C. Adamo, R. Cammi, 
 J. W. Ochterski, R. L. Martin, K. Morokuma, O. Farkas, 
 J. B. Foresman, and D. J. Fox, Gaussian, Inc., Wallingford CT, 2019.
 
 ******************************************
 Gaussian 16:  ES64L-G16RevC.01  3-Jul-2019
                 9-Apr-2025 
 ******************************************
 %nprocs=16
 Will use up to   16 processors via shared memory.
 %mem=30GB
 %chk=E2SN2_259_mol1.chk
 ----------------------------------------------------------------------
 #t hf aug-cc-pvdz symm=none int=(grid=ultrafine) guess=(read,tcheck) s
 table=(opt,rrhf)
 ----------------------------------------------------------------------
 -----
 title
 -----
 Symbolic Z-matrix:
 Charge = -1 Multiplicity = 1
 C                     0.64665   0.03131  -0.04916 
 H                     1.68005   1.88948  -0.23128 
 F                    -1.31245  -0.01013  -0.20844 
 Cl                    2.74834  -0.30949   0.51663 
 C                     0.65126   1.55736  -0.08619 
 H                     0.35882  -0.49755   0.83785 
 C                     0.68853  -0.71179  -1.28471 
 N                     0.74918  -1.32929  -2.28324 
 C                     0.14359   2.05807   1.26443 
 H                    -0.87163   1.68476   1.40069 
 H                     0.7818    1.70288   2.07949 
 H                     0.13931   3.15347   1.28619 
 N                    -0.11941   2.01502  -1.23975 
 H                    -0.22728   3.02104  -1.17696 
 H                    -1.02508   1.56075  -1.14321 
 
                    Distance matrix (angstroms):
                    1          2          3          4          5
     1  C    0.000000
     2  H    2.133984   0.000000
     3  F    1.966003   3.544595   0.000000
     4  Cl   2.203037   2.556581   4.135865   0.000000
     5  C    1.526505   1.090763   2.515585   2.871629   0.000000
     6  H    1.072073   2.930296   2.031126   2.418331   2.272012
     7  C    1.442403   2.976482   2.377943   2.765771   2.566493
     8  N    2.617797   3.929068   3.208633   3.588303   3.628968
     9  C    2.467047   2.150879   2.926919   3.598503   1.527285
    10  H    2.672290   3.035845   2.378290   4.226438   2.132195
    11  H    2.709903   2.486232   3.543294   3.218607   2.174483
    12  H    3.433426   2.504852   3.788125   4.403560   2.166351
    13  N    2.437089   2.066594   2.566745   4.088051   1.460848
    14  H    3.312722   2.410941   3.362087   4.776503   2.025827
    15  H    2.516110   2.873574   1.850423   4.526764   1.981779
                    6          7          8          9         10
     6  H    0.000000
     7  C    2.158674   0.000000
     8  N    3.253521   1.175609   0.000000
     9  C    2.599899   3.803572   4.942358   0.000000
    10  H    2.567739   3.922870   5.028209   1.090236   0.000000
    11  H    2.561732   4.142121   5.313056   1.094437   1.787441
    12  H    3.684987   4.674546   5.762633   1.095624   1.786679
    13  N    3.295166   2.844335   3.609394   2.518315   2.765289
    14  H    4.096763   3.845035   4.593766   2.650520   2.974079
    15  H    3.174340   2.849723   3.577713   2.722106   2.551543
                   11         12         13         14         15
    11  H    0.000000
    12  H    1.773786   0.000000
    13  N    3.453539   2.782692   0.000000
    14  H    3.655171   2.493806   1.013734   0.000000
    15  H    3.697410   3.129626   1.017801   1.664349   0.000000
 Symmetry turned off by external request.
 Rotational constants (GHZ):           1.7810203           1.4096476           0.9867458
   251 basis functions,   459 primitive gaussians,   267 cartesian basis functions
    36 alpha electrons       36 beta electrons
       nuclear repulsion energy       442.8443898280 Hartrees.
 NAtoms=   15 NActive=   15 NUniq=   15 SFac= 1.00D+00 NAtFMM=   60 NAOKFM=F Big=F
 ExpMin= 2.97D-02 ExpMax= 1.28D+05 ExpMxC= 1.24D+03 IAcc=3 IRadAn=         5 AccDes= 0.00D+00
 Harris functional with IExCor=  205 and IRadAn=       5 diagonalized for initial guess.
 HarFok:  IExCor=  205 AccDes= 0.00D+00 IRadAn=         5 IDoV= 1 UseB2=F ITyADJ=14
 ICtDFT=  3500011 ScaDFX=  1.000000  1.000000  1.000000  1.000000
 FoFCou: FMM=F IPFlag=           0 FMFlag=      100000 FMFlg1=           0
         NFxFlg=           0 DoJE=T BraDBF=F KetDBF=T FulRan=T
         wScrn=  0.000000 ICntrl=       500 IOpCl=  0 I1Cent=   200000004 NGrid=           0
         NMat0=    1 NMatS0=      1 NMatT0=    0 NMatD0=    1 NMtDS0=    0 NMtDT0=    0
 Symmetry not used in FoFCou.
 SCF Done:  E(RHF) =  -823.423765053     A.U. after   16 cycles
            NFock= 16  Conv=0.49D-08     -V/T= 2.0006

 **********************************************************************

            Population analysis using the SCF Density.

 **********************************************************************

 Alpha  occ. eigenvalues -- -104.62187 -26.00258 -15.44222 -15.41173 -11.23420
 Alpha  occ. eigenvalues --  -11.15698 -11.15049 -11.10217 -10.34763  -7.81438
 Alpha  occ. eigenvalues --   -7.81281  -7.81277  -1.26400  -1.07713  -1.05916
 Alpha  occ. eigenvalues --   -0.93369  -0.86381  -0.82442  -0.69912  -0.59100
 Alpha  occ. eigenvalues --   -0.55944  -0.48577  -0.45195  -0.44316  -0.42528
 Alpha  occ. eigenvalues --   -0.41024  -0.40085  -0.36947  -0.34945  -0.34245
 Alpha  occ. eigenvalues --   -0.31440  -0.30552  -0.27363  -0.25868  -0.25457
 Alpha  occ. eigenvalues --   -0.24709
 Alpha virt. eigenvalues --    0.11957   0.13713   0.14657   0.15138   0.16561
 Alpha virt. eigenvalues --    0.17009   0.18202   0.20137   0.20866   0.22371
 Alpha virt. eigenvalues --    0.24293   0.24540   0.24642   0.26421   0.26748
 Alpha virt. eigenvalues --    0.26931   0.27737   0.28688   0.29033   0.29860
 Alpha virt. eigenvalues --    0.30602   0.31421   0.31798   0.32103   0.32385
 Alpha virt. eigenvalues --    0.33162   0.33909   0.36466   0.37291   0.37562
 Alpha virt. eigenvalues --    0.38596   0.39779   0.41538   0.43206   0.43981
 Alpha virt. eigenvalues --    0.44624   0.45584   0.46851   0.48498   0.48980
 Alpha virt. eigenvalues --    0.49432   0.49962   0.51075   0.52167   0.53898
 Alpha virt. eigenvalues --    0.54270   0.54881   0.55456   0.58150   0.58344
 Alpha virt. eigenvalues --    0.59305   0.59977   0.60529   0.61181   0.62479
 Alpha virt. eigenvalues --    0.63074   0.63565   0.64490   0.65978   0.66812
 Alpha virt. eigenvalues --    0.67801   0.69100   0.69642   0.71884   0.72246
 Alpha virt. eigenvalues --    0.73869   0.74951   0.75605   0.76095   0.76888
 Alpha virt. eigenvalues --    0.77838   0.79162   0.79443   0.80200   0.80800
 Alpha virt. eigenvalues --    0.82031   0.83463   0.84265   0.85331   0.86177
 Alpha virt. eigenvalues --    0.87579   0.89121   0.90699   0.91523   0.92028
 Alpha virt. eigenvalues --    0.92825   0.93438   0.95892   0.98223   0.98770
 Alpha virt. eigenvalues --    0.99722   0.99813   1.01344   1.03680   1.04848
 Alpha virt. eigenvalues --    1.06078   1.06938   1.08168   1.10249   1.11737
 Alpha virt. eigenvalues --    1.12928   1.15957   1.16478   1.18072   1.19294
 Alpha virt. eigenvalues --    1.19369   1.20470   1.22491   1.25566   1.27360
 Alpha virt. eigenvalues --    1.28398   1.28811   1.30863   1.33855   1.35013
 Alpha virt. eigenvalues --    1.38075   1.38358   1.39915   1.43465   1.45475
 Alpha virt. eigenvalues --    1.48923   1.53023   1.55470   1.56927   1.57512
 Alpha virt. eigenvalues --    1.64075   1.64224   1.66621   1.67458   1.69252
 Alpha virt. eigenvalues --    1.69691   1.72102   1.73561   1.74499   1.76403
 Alpha virt. eigenvalues --    1.78646   1.81465   1.82248   1.83697   1.85056
 Alpha virt. eigenvalues --    1.86013   1.90371   1.91538   1.93208   1.94577
 Alpha virt. eigenvalues --    1.96398   1.97799   1.99772   2.00208   2.01920
 Alpha virt. eigenvalues --    2.03667   2.06260   2.06521   2.09318   2.11381
 Alpha virt. eigenvalues --    2.13944   2.17080   2.18644   2.21769   2.22898
 Alpha virt. eigenvalues --    2.25982   2.28334   2.31383   2.32458   2.33790
 Alpha virt. eigenvalues --    2.35762   2.37472   2.39680   2.41588   2.43929
 Alpha virt. eigenvalues --    2.46837   2.49034   2.51853   2.53202   2.57318
 Alpha virt. eigenvalues --    2.59745   2.64788   2.65136   2.65273   2.68939
 Alpha virt. eigenvalues --    2.71106   2.72478   2.76419   2.79059   2.80675
 Alpha virt. eigenvalues --    2.82779   2.84515   2.85180   2.89028   2.94147
 Alpha virt. eigenvalues --    2.95484   3.00021   3.05087   3.07889   3.12934
 Alpha virt. eigenvalues --    3.15552   3.17735   3.22891   3.24572   3.30484
 Alpha virt. eigenvalues --    3.35418   3.42645   3.48727   3.54564   3.61285
 Alpha virt. eigenvalues --    3.64873   3.74157   3.84471   3.90849   4.10881
 Alpha virt. eigenvalues --    5.29928   5.39071   5.43266   5.44388   5.48833
          Condensed to atoms (all electrons):
 Mulliken charges:
               1
     1  C    1.569886
     2  H   -0.160659
     3  F   -0.868155
     4  Cl  -0.607924
     5  C   -0.002564
     6  H   -0.334225
     7  C   -0.588835
     8  N   -0.370515
     9  C    0.732667
    10  H    0.077641
    11  H   -0.016692
    12  H   -0.107502
    13  N   -0.389100
    14  H   -0.061052
    15  H    0.127029
 Sum of Mulliken charges =  -1.00000
 Mulliken charges with hydrogens summed into heavy atoms:
               1
     1  C    1.235661
     3  F   -0.868155
     4  Cl  -0.607924
     5  C   -0.163223
     7  C   -0.588835
     8  N   -0.370515
     9  C    0.686114
    13  N   -0.323123
 Electronic spatial extent (au):  <R**2>=           1451.2883
 Charge=             -1.0000 electrons
 Dipole moment (field-independent basis, Debye):
    X=             -3.8667    Y=              3.0540    Z=              4.0519  Tot=              6.3794
 NROrb=    251 NOA=    36 NOB=    36 NVA=   215 NVB=   215

 **** Warning!!: The largest alpha MO coefficient is  0.82262227D+02

    12 initial guesses have been made.
 Iteration     1 Dimension    12 NMult     0 NNew     12
 New state      1 was old state      5
 Iteration     2 Dimension    24 NMult    12 NNew     12
 Iteration     3 Dimension    27 NMult    24 NNew      3
 Iteration     4 Dimension    30 NMult    27 NNew      3
 New state      1 was old state      2
 Iteration     5 Dimension    33 NMult    30 NNew      3
 Iteration     6 Dimension    36 NMult    33 NNew      3
 Iteration     7 Dimension    39 NMult    36 NNew      3
 Iteration     8 Dimension    42 NMult    39 NNew      3
 Iteration     9 Dimension    45 NMult    42 NNew      3
 Iteration    10 Dimension    48 NMult    45 NNew      3
 Iteration    11 Dimension    51 NMult    48 NNew      3
 ***********************************************************************
 Stability analysis using <AA,BB:AA,BB> singles matrix:
 ***********************************************************************
 Ground to excited state transition densities written to RWF  633

 Eigenvectors of the stability matrix:
 
 Excited state symmetry could not be determined.
 Eigenvector   1:      Singlet-?Sym  Eigenvalue= 0.1957173  <S**2>=0.000
      31 -> 53         0.12526
      31 -> 56        -0.11086
      31 -> 60         0.13341
      31 -> 61        -0.13721
      31 -> 63        -0.24252
      32 -> 45         0.13197
      32 -> 47         0.19498
      32 -> 53        -0.10064
      32 -> 67        -0.10461
      34 -> 47         0.10128
      35 -> 45         0.11098
      35 -> 47         0.14127
 The wavefunction is stable under the perturbations considered.
 The wavefunction is already stable.

 **********************************************************************

            Population analysis using the SCF Density.

 **********************************************************************

 Alpha  occ. eigenvalues -- -104.62187 -26.00258 -15.44222 -15.41173 -11.23420
 Alpha  occ. eigenvalues --  -11.15698 -11.15049 -11.10217 -10.34763  -7.81438
 Alpha  occ. eigenvalues --   -7.81281  -7.81277  -1.26400  -1.07713  -1.05916
 Alpha  occ. eigenvalues --   -0.93369  -0.86381  -0.82442  -0.69912  -0.59100
 Alpha  occ. eigenvalues --   -0.55944  -0.48577  -0.45195  -0.44316  -0.42528
 Alpha  occ. eigenvalues --   -0.41024  -0.40085  -0.36947  -0.34945  -0.34245
 Alpha  occ. eigenvalues --   -0.31440  -0.30552  -0.27363  -0.25868  -0.25457
 Alpha  occ. eigenvalues --   -0.24709
 Alpha virt. eigenvalues --    0.11957   0.13713   0.14657   0.15138   0.16561
 Alpha virt. eigenvalues --    0.17009   0.18202   0.20137   0.20866   0.22371
 Alpha virt. eigenvalues --    0.24293   0.24540   0.24642   0.26421   0.26748
 Alpha virt. eigenvalues --    0.26931   0.27737   0.28688   0.29033   0.29860
 Alpha virt. eigenvalues --    0.30602   0.31421   0.31798   0.32103   0.32385
 Alpha virt. eigenvalues --    0.33162   0.33909   0.36466   0.37291   0.37562
 Alpha virt. eigenvalues --    0.38596   0.39779   0.41538   0.43206   0.43981
 Alpha virt. eigenvalues --    0.44624   0.45584   0.46851   0.48498   0.48980
 Alpha virt. eigenvalues --    0.49432   0.49962   0.51075   0.52167   0.53898
 Alpha virt. eigenvalues --    0.54270   0.54881   0.55456   0.58150   0.58344
 Alpha virt. eigenvalues --    0.59305   0.59977   0.60529   0.61181   0.62479
 Alpha virt. eigenvalues --    0.63074   0.63565   0.64490   0.65978   0.66812
 Alpha virt. eigenvalues --    0.67801   0.69100   0.69642   0.71884   0.72246
 Alpha virt. eigenvalues --    0.73869   0.74951   0.75605   0.76095   0.76888
 Alpha virt. eigenvalues --    0.77838   0.79162   0.79443   0.80200   0.80800
 Alpha virt. eigenvalues --    0.82031   0.83463   0.84265   0.85331   0.86177
 Alpha virt. eigenvalues --    0.87579   0.89121   0.90699   0.91523   0.92028
 Alpha virt. eigenvalues --    0.92825   0.93438   0.95892   0.98223   0.98770
 Alpha virt. eigenvalues --    0.99722   0.99813   1.01344   1.03680   1.04848
 Alpha virt. eigenvalues --    1.06078   1.06938   1.08168   1.10249   1.11737
 Alpha virt. eigenvalues --    1.12928   1.15957   1.16478   1.18072   1.19294
 Alpha virt. eigenvalues --    1.19369   1.20470   1.22491   1.25566   1.27360
 Alpha virt. eigenvalues --    1.28398   1.28811   1.30863   1.33855   1.35013
 Alpha virt. eigenvalues --    1.38075   1.38358   1.39915   1.43465   1.45475
 Alpha virt. eigenvalues --    1.48923   1.53023   1.55470   1.56927   1.57512
 Alpha virt. eigenvalues --    1.64075   1.64224   1.66621   1.67458   1.69252
 Alpha virt. eigenvalues --    1.69691   1.72102   1.73561   1.74499   1.76403
 Alpha virt. eigenvalues --    1.78646   1.81465   1.82248   1.83697   1.85056
 Alpha virt. eigenvalues --    1.86013   1.90371   1.91538   1.93208   1.94577
 Alpha virt. eigenvalues --    1.96398   1.97799   1.99772   2.00208   2.01920
 Alpha virt. eigenvalues --    2.03667   2.06260   2.06521   2.09318   2.11381
 Alpha virt. eigenvalues --    2.13944   2.17080   2.18644   2.21769   2.22898
 Alpha virt. eigenvalues --    2.25982   2.28334   2.31383   2.32458   2.33790
 Alpha virt. eigenvalues --    2.35762   2.37472   2.39680   2.41588   2.43929
 Alpha virt. eigenvalues --    2.46837   2.49034   2.51853   2.53202   2.57318
 Alpha virt. eigenvalues --    2.59745   2.64788   2.65136   2.65273   2.68939
 Alpha virt. eigenvalues --    2.71106   2.72478   2.76419   2.79059   2.80675
 Alpha virt. eigenvalues --    2.82779   2.84515   2.85180   2.89028   2.94147
 Alpha virt. eigenvalues --    2.95484   3.00021   3.05087   3.07889   3.12934
 Alpha virt. eigenvalues --    3.15552   3.17735   3.22891   3.24572   3.30484
 Alpha virt. eigenvalues --    3.35418   3.42645   3.48727   3.54564   3.61285
 Alpha virt. eigenvalues --    3.64873   3.74157   3.84471   3.90849   4.10881
 Alpha virt. eigenvalues --    5.29928   5.39071   5.43266   5.44388   5.48833
          Condensed to atoms (all electrons):
 Mulliken charges:
               1
     1  C    1.569886
     2  H   -0.160659
     3  F   -0.868155
     4  Cl  -0.607924
     5  C   -0.002564
     6  H   -0.334225
     7  C   -0.588835
     8  N   -0.370515
     9  C    0.732667
    10  H    0.077641
    11  H   -0.016692
    12  H   -0.107502
    13  N   -0.389100
    14  H   -0.061052
    15  H    0.127029
 Sum of Mulliken charges =  -1.00000
 Mulliken charges with hydrogens summed into heavy atoms:
               1
     1  C    1.235661
     3  F   -0.868155
     4  Cl  -0.607924
     5  C   -0.163223
     7  C   -0.588835
     8  N   -0.370515
     9  C    0.686114
    13  N   -0.323123
 Electronic spatial extent (au):  <R**2>=           1451.2883
 Charge=             -1.0000 electrons
 Dipole moment (field-independent basis, Debye):
    X=             -3.8667    Y=              3.0540    Z=              4.0519  Tot=              6.3794
 Unable to Open any file for archive entry.
 1\1\GINC-SE187\Stability\RHF\Aug-CC-pVDZ\C4H7Cl1F1N2\OHZDE\09-Apr-2025
 \0\\#t hf aug-cc-pvdz symm=none int=(grid=ultrafine) guess=(read,tchec
 k) stable=(opt,rrhf)\\title\\-1,1\C,0,0.64664829,0.03131333,-0.0491632
 1\H,0,1.68005224,1.88948377,-0.2312839\F,0,-1.31245439,-0.01013172,-0.
 20843615\Cl,0,2.74833801,-0.3094913,0.51663273\C,0,0.65126342,1.557361
 91,-0.08618728\H,0,0.35882452,-0.49755095,0.83785435\C,0,0.68852783,-0
 .71178882,-1.28470833\N,0,0.74917863,-1.32929337,-2.28323988\C,0,0.143
 59394,2.05806752,1.26442873\H,0,-0.87163342,1.68475716,1.40069171\H,0,
 0.78180187,1.70288159,2.07949028\H,0,0.1393084,3.15346696,1.28619322\N
 ,0,-0.11940775,2.01501522,-1.23974562\H,0,-0.22727965,3.02103637,-1.17
 696422\H,0,-1.02508195,1.56075233,-1.14321242\\Version=ES64L-G16RevC.0
 1\HF=-823.4237651\RMSD=4.887e-09\Dipole=-0.1124011,1.9886117,1.1780104
 \Quadrupole=-8.7228329,9.1623882,-0.4395553,2.3039849,-0.6817092,-3.39
 39181\PG=Unknown\\@
 The archive entry for this job was punched.


 At the touch of love, everyone becomes a poet.
                                -- Plato
 Job cpu time:       0 days  0 hours 13 minutes 11.4 seconds.
 Elapsed time:       0 days  0 hours  0 minutes 56.1 seconds.
 File lengths (MBytes):  RWF=    334 Int=      0 D2E=      0 Chk=      9 Scr=      1
 Normal termination of Gaussian 16 at Wed Apr  9 02:44:18 2025.
 Initial command:
 /arc/software/Gaussian/g16.c01/l1.exe "/tmp/slurm/4859040/Gau-966177.inp" -scrdir="/tmp/slurm/4859040/"
 Entering Link 1 = /arc/software/Gaussian/g16.c01/l1.exe PID=    966583.
  
 Copyright (c) 1988-2019, Gaussian, Inc.  All Rights Reserved.
  
 This is part of the Gaussian(R) 16 program.  It is based on
 the Gaussian(R) 09 system (copyright 2009, Gaussian, Inc.),
 the Gaussian(R) 03 system (copyright 2003, Gaussian, Inc.),
 the Gaussian(R) 98 system (copyright 1998, Gaussian, Inc.),
 the Gaussian(R) 94 system (copyright 1995, Gaussian, Inc.),
 the Gaussian 92(TM) system (copyright 1992, Gaussian, Inc.),
 the Gaussian 90(TM) system (copyright 1990, Gaussian, Inc.),
 the Gaussian 88(TM) system (copyright 1988, Gaussian, Inc.),
 the Gaussian 86(TM) system (copyright 1986, Carnegie Mellon
 University), and the Gaussian 82(TM) system (copyright 1983,
 Carnegie Mellon University). Gaussian is a federally registered
 trademark of Gaussian, Inc.
  
 This software contains proprietary and confidential information,
 including trade secrets, belonging to Gaussian, Inc.
  
 This software is provided under written license and may be
 used, copied, transmitted, or stored only in accord with that
 written license.
  
 The following legend is applicable only to US Government
 contracts under FAR:
  
                    RESTRICTED RIGHTS LEGEND
  
 Use, reproduction and disclosure by the US Government is
 subject to restrictions as set forth in subparagraphs (a)
 and (c) of the Commercial Computer Software - Restricted
 Rights clause in FAR 52.227-19.
  
 Gaussian, Inc.
 340 Quinnipiac St., Bldg. 40, Wallingford CT 06492
  
  
 ---------------------------------------------------------------
 Warning -- This program may not be used in any manner that
 competes with the business of Gaussian, Inc. or will provide
 assistance to any competitor of Gaussian, Inc.  The licensee
 of this program is prohibited from giving any competitor of
 Gaussian, Inc. access to this program.  By using this program,
 the user acknowledges that Gaussian, Inc. is engaged in the
 business of creating and licensing software in the field of
 computational chemistry and represents and warrants to the
 licensee that it is not a competitor of Gaussian, Inc. and that
 it will not use this program in any manner prohibited above.
 ---------------------------------------------------------------
  

 Cite this work as:
 Gaussian 16, Revision C.01,
 M. J. Frisch, G. W. Trucks, H. B. Schlegel, G. E. Scuseria, 
 M. A. Robb, J. R. Cheeseman, G. Scalmani, V. Barone, 
 G. A. Petersson, H. Nakatsuji, X. Li, M. Caricato, A. V. Marenich, 
 J. Bloino, B. G. Janesko, R. Gomperts, B. Mennucci, H. P. Hratchian, 
 J. V. Ortiz, A. F. Izmaylov, J. L. Sonnenberg, D. Williams-Young, 
 F. Ding, F. Lipparini, F. Egidi, J. Goings, B. Peng, A. Petrone, 
 T. Henderson, D. Ranasinghe, V. G. Zakrzewski, J. Gao, N. Rega, 
 G. Zheng, W. Liang, M. Hada, M. Ehara, K. Toyota, R. Fukuda, 
 J. Hasegawa, M. Ishida, T. Nakajima, Y. Honda, O. Kitao, H. Nakai, 
 T. Vreven, K. Throssell, J. A. Montgomery, Jr., J. E. Peralta, 
 F. Ogliaro, M. J. Bearpark, J. J. Heyd, E. N. Brothers, K. N. Kudin, 
 V. N. Staroverov, T. A. Keith, R. Kobayashi, J. Normand, 
 K. Raghavachari, A. P. Rendell, J. C. Burant, S. S. Iyengar, 
 J. Tomasi, M. Cossi, J. M. Millam, M. Klene, C. Adamo, R. Cammi, 
 J. W. Ochterski, R. L. Martin, K. Morokuma, O. Farkas, 
 J. B. Foresman, and D. J. Fox, Gaussian, Inc., Wallingford CT, 2019.
 
 ******************************************
 Gaussian 16:  ES64L-G16RevC.01  3-Jul-2019
                 9-Apr-2025 
 ******************************************
 %nprocs=16
 Will use up to   16 processors via shared memory.
 %mem=30GB
 %chk=E2SN2_259_mol1.chk
 ----------------------------------------------------------------------
 #t hf aug-cc-pvdz iop(5/13=1,5/36=2,99/5=2) pseudo=read geom=check gue
 ss=(read,tcheck) scf=(maxcycle=1)
 ----------------------------------------------------------------------
 -----
 title
 -----
 Structure from the checkpoint file:  "E2SN2_259_mol1.chk"
 Charge = -1 Multiplicity = 1
 Z-Matrix found in chk file.
 C,0,0.64664829,0.03131333,-0.04916321
 H,0,1.68005224,1.88948377,-0.2312839
 F,0,-1.31245439,-0.01013172,-0.20843615
 Cl,0,2.74833801,-0.3094913,0.51663273
 C,0,0.65126342,1.55736191,-0.08618728
 H,0,0.35882452,-0.49755095,0.83785435
 C,0,0.68852783,-0.71178882,-1.28470833
 N,0,0.74917863,-1.32929337,-2.28323988
 C,0,0.14359394,2.05806752,1.26442873
 H,0,-0.87163342,1.68475716,1.40069171
 H,0,0.78180187,1.70288159,2.07949028
 H,0,0.1393084,3.15346696,1.28619322
 N,0,-0.11940775,2.01501522,-1.23974562
 H,0,-0.22727965,3.02103637,-1.17696422
 H,0,-1.02508195,1.56075233,-1.14321242
 Recover connectivity data from disk.
                    Distance matrix (angstroms):
                    1          2          3          4          5
     1  C    0.000000
     2  H    2.133984   0.000000
     3  F    1.966003   3.544595   0.000000
     4  Cl   2.203037   2.556581   4.135865   0.000000
     5  C    1.526505   1.090763   2.515585   2.871629   0.000000
     6  H    1.072073   2.930296   2.031126   2.418331   2.272012
     7  C    1.442403   2.976482   2.377943   2.765771   2.566493
     8  N    2.617797   3.929068   3.208633   3.588303   3.628968
     9  C    2.467047   2.150879   2.926919   3.598503   1.527285
    10  H    2.672290   3.035845   2.378290   4.226438   2.132195
    11  H    2.709903   2.486232   3.543294   3.218607   2.174483
    12  H    3.433426   2.504852   3.788125   4.403560   2.166351
    13  N    2.437089   2.066594   2.566745   4.088051   1.460848
    14  H    3.312722   2.410941   3.362087   4.776503   2.025827
    15  H    2.516110   2.873574   1.850423   4.526764   1.981779
                    6          7          8          9         10
     6  H    0.000000
     7  C    2.158674   0.000000
     8  N    3.253521   1.175609   0.000000
     9  C    2.599899   3.803572   4.942358   0.000000
    10  H    2.567739   3.922870   5.028209   1.090236   0.000000
    11  H    2.561732   4.142121   5.313056   1.094437   1.787441
    12  H    3.684987   4.674546   5.762633   1.095624   1.786679
    13  N    3.295166   2.844335   3.609394   2.518315   2.765289
    14  H    4.096763   3.845035   4.593766   2.650520   2.974079
    15  H    3.174340   2.849723   3.577713   2.722106   2.551543
                   11         12         13         14         15
    11  H    0.000000
    12  H    1.773786   0.000000
    13  N    3.453539   2.782692   0.000000
    14  H    3.655171   2.493806   1.013734   0.000000
    15  H    3.697410   3.129626   1.017801   1.664349   0.000000
 Framework group  C1[X(C4H7ClFN2)]
 Deg. of freedom    39
                         Standard orientation:                         
 ---------------------------------------------------------------------
 Center     Atomic      Atomic             Coordinates (Angstroms)
 Number     Number       Type             X           Y           Z
 ---------------------------------------------------------------------
      1          6           0        0.163021    0.118075   -0.383272
      2          1           0       -0.197176   -1.164424    1.283864
      3          9           0       -1.334143    1.101845   -1.193127
      4         17           0        2.006839   -1.026520   -0.004314
      5          6           0       -0.790970   -0.653926    0.524545
      6          1           0        0.261640   -0.133952   -1.420623
      7          6           0        0.675117    1.397048    0.043942
      8          7           0        1.120483    2.427971    0.391652
      9          6           0       -1.514661   -1.690012   -0.333007
     10          1           0       -2.071950   -1.157347   -1.103923
     11          1           0       -0.803536   -2.379243   -0.798898
     12          1           0       -2.205860   -2.276435    0.282414
     13          7           0       -1.665954    0.287891    1.218420
     14          1           0       -2.382104   -0.237333    1.707219
     15          1           0       -2.086736    0.844820    0.477683
 ---------------------------------------------------------------------
 Rotational constants (GHZ):           1.7810203           1.4096476           0.9867458
 ======================================================================================================
                                       Pseudopotential Parameters
 ======================================================================================================
  Center     Atomic      Valence      Angular      Power
  Number     Number     Electrons     Momentum     of R      Exponent        Coefficient   SO-Coeffient
 ======================================================================================================
    1          6            6
                                      G and up 
                                                     0        0.0000010       -0.00011185    0.00000000
                                                     2        0.1200000       -0.02301220    0.00000000
                                                     2        0.1400000        0.13317600    0.00000000
                                                     2        0.1600000       -0.19690668    0.00000000
                                                     2        0.2200000        0.23163694    0.00000000
                                                     2        0.3000000       -0.36920489    0.00000000
                                                     2        0.4000000        0.36389709    0.00000000
                                                     2        0.7000000       -0.38862160    0.00000000
                                                     2        1.3000000        0.80803421    0.00000000
                                      S - G
                                                     0        0.0000010        0.00312304    0.00000000
                                                     2        0.1200000       -0.00632892    0.00000000
                                                     2        0.2200000       -0.03780897    0.00000000
                                                     2        0.4000000        0.26269560    0.00000000
                                                     2        0.9000000       -0.28209514    0.00000000
                                                     2        1.5000000       -0.72686737    0.00000000
                                      P - G
                                                     0        0.0000010       -0.01465594    0.00000000
                                                     2        0.1200000        0.07908409    0.00000000
                                                     2        0.1800000       -0.30615861    0.00000000
                                                     2        0.2600000        0.41506950    0.00000000
                                                     2        0.5000000       -0.36252345    0.00000000
                                                     2        0.9000000        0.15124193    0.00000000
                                                     2        3.0000000       -0.80425677    0.00000000
                                      D - G
                                                     0        0.0000010        0.01149631    0.00000000
                                                     2        0.1200000       -0.04713561    0.00000000
                                                     2        0.1600000        0.10865096    0.00000000
                                                     2        0.2800000       -0.15816701    0.00000000
                                                     2        0.7000000        0.65478804    0.00000000
                                                     2        1.3000000       -1.73816624    0.00000000
                                      F - G
                                                     0        0.0000010        0.00481868    0.00000000
                                                     2        0.1200000       -0.04746842    0.00000000
                                                     2        0.1600000        0.09327889    0.00000000
                                                     2        0.4000000       -0.19693326    0.00000000
                                                     2        0.9000000        0.34938253    0.00000000
    2          1            1
                                      F and up 
                                                     0        0.0000010       -0.00000699    0.00000000
                                                     2        0.1200000        0.00123686    0.00000000
                                                     2        0.1800000       -0.00752022    0.00000000
                                                     2        0.2600000        0.02503380    0.00000000
                                                     2        0.4000000       -0.08702670    0.00000000
                                                     2        0.6000000        0.30134159    0.00000000
                                                     2        0.8000000       -0.50204959    0.00000000
                                                     2        1.2000000        0.52208372    0.00000000
                                      S - F
                                                     0        0.0000010       -0.01618346    0.00000000
                                                     2        0.1200000       -0.07880581    0.00000000
                                                     2        0.1600000        0.32040539    0.00000000
                                                     2        0.2400000       -0.47500956    0.00000000
                                                     2        0.5000000        0.54013668    0.00000000
                                                     2        1.5000000       -1.40434292    0.00000000
                                                     2        3.0000000        1.46283806    0.00000000
                                      P - F
                                                     0        0.0000010        0.00612970    0.00000000
                                                     2        0.1200000        0.02254406    0.00000000
                                                     2        0.1800000       -0.13874529    0.00000000
                                                     2        0.3000000        0.38299049    0.00000000
                                                     2        0.5000000       -0.57923512    0.00000000
                                                     2        1.0000000        0.63021625    0.00000000
                                                     2        2.0000000       -0.79201034    0.00000000
                                      D - F
                                                     0        0.0000010       -0.00296226    0.00000000
                                                     2        0.1200000       -0.00547344    0.00000000
                                                     2        0.1400000        0.01837884    0.00000000
                                                     2        0.2400000       -0.05565704    0.00000000
                                                     2        0.4000000        0.15376597    0.00000000
                                                     2        0.8000000       -0.32464795    0.00000000
    3          9            9
                                      G and up 
                                                     0        0.0000010        0.00013061    0.00000000
                                                     2        0.1200000        0.06713281    0.00000000
                                                     2        0.1400000       -0.24167382    0.00000000
                                                     2        0.1800000        0.63223557    0.00000000
                                                     2        0.2200000       -0.82578269    0.00000000
                                                     2        0.3000000        0.62544157    0.00000000
                                                     2        0.5000000       -0.74972011    0.00000000
                                                     2        0.8000000        1.07821461    0.00000000
                                                     2        2.5000000       -1.10703579    0.00000000
                                      S - G
                                                     0        0.0000010        0.01584301    0.00000000
                                                     2        0.1200000        0.08016155    0.00000000
                                                     2        0.1800000       -0.34633115    0.00000000
                                                     2        0.3000000        0.65132194    0.00000000
                                                     2        2.5000000       -2.36634383    0.00000000
                                      P - G
                                                     0        0.0000010        0.01590244    0.00000000
                                                     2        0.1200000       -0.11156199    0.00000000
                                                     2        0.1600000        0.22434929    0.00000000
                                                     2        0.3000000       -0.27751209    0.00000000
                                      D - G
                                                     0        0.0000010       -0.03628923    0.00000000
                                                     2        0.1200000        0.04690238    0.00000000
                                                     2        0.2600000       -0.08720270    0.00000000
                                      F - G
                                                     0        0.0000010        0.01127523    0.00000000
                                                     2        0.1400000       -0.04328550    0.00000000
                                                     2        0.2400000        0.03116441    0.00000000
                                                     2        0.4000000        0.20516616    0.00000000
    4         17           17
                                      G and up 
                                                     0        0.0000010       -0.00005841    0.00000000
                                                     2        0.1200000       -0.00031502    0.00000000
                                                     2        0.1400000        0.00458821    0.00000000
                                                     2        0.2600000       -0.03604686    0.00000000
                                                     2        0.4000000        0.03832573    0.00000000
                                                     2        1.1000000       -0.21042623    0.00000000
                                      S - G
                                                     0        0.0000010        0.00274387    0.00000000
                                                     2        0.1800000        0.09962839    0.00000000
                                                     2        0.4000000       -0.20830181    0.00000000
                                      P - G
                                                     0        0.0000010       -0.01867126    0.00000000
                                                     2        0.1200000        0.19610675    0.00000000
                                                     2        0.1600000       -0.37005054    0.00000000
                                                     2        0.3000000        0.29573883    0.00000000
                                      D - G
                                                     0        0.0000010        0.06766179    0.00000000
                                                     2        0.1200000       -0.07333140    0.00000000
                                                     2        0.2200000        0.05439691    0.00000000
                                      F - G
                                                     0        0.0000010       -0.02719671    0.00000000
                                                     2        0.1200000       -0.06013675    0.00000000
                                                     2        0.2000000        0.35339430    0.00000000
                                                     2        0.4000000       -0.66518555    0.00000000
    5          6            6
                                      G and up 
                                                     0        0.0000010       -0.00011185    0.00000000
                                                     2        0.1200000       -0.02301220    0.00000000
                                                     2        0.1400000        0.13317600    0.00000000
                                                     2        0.1600000       -0.19690668    0.00000000
                                                     2        0.2200000        0.23163694    0.00000000
                                                     2        0.3000000       -0.36920489    0.00000000
                                                     2        0.4000000        0.36389709    0.00000000
                                                     2        0.7000000       -0.38862160    0.00000000
                                                     2        1.3000000        0.80803421    0.00000000
                                      S - G
                                                     0        0.0000010        0.00312304    0.00000000
                                                     2        0.1200000       -0.00632892    0.00000000
                                                     2        0.2200000       -0.03780897    0.00000000
                                                     2        0.4000000        0.26269560    0.00000000
                                                     2        0.9000000       -0.28209514    0.00000000
                                                     2        1.5000000       -0.72686737    0.00000000
                                      P - G
                                                     0        0.0000010       -0.01465594    0.00000000
                                                     2        0.1200000        0.07908409    0.00000000
                                                     2        0.1800000       -0.30615861    0.00000000
                                                     2        0.2600000        0.41506950    0.00000000
                                                     2        0.5000000       -0.36252345    0.00000000
                                                     2        0.9000000        0.15124193    0.00000000
                                                     2        3.0000000       -0.80425677    0.00000000
                                      D - G
                                                     0        0.0000010        0.01149631    0.00000000
                                                     2        0.1200000       -0.04713561    0.00000000
                                                     2        0.1600000        0.10865096    0.00000000
                                                     2        0.2800000       -0.15816701    0.00000000
                                                     2        0.7000000        0.65478804    0.00000000
                                                     2        1.3000000       -1.73816624    0.00000000
                                      F - G
                                                     0        0.0000010        0.00481868    0.00000000
                                                     2        0.1200000       -0.04746842    0.00000000
                                                     2        0.1600000        0.09327889    0.00000000
                                                     2        0.4000000       -0.19693326    0.00000000
                                                     2        0.9000000        0.34938253    0.00000000
    6          1            1
                                      F and up 
                                                     0        0.0000010       -0.00000699    0.00000000
                                                     2        0.1200000        0.00123686    0.00000000
                                                     2        0.1800000       -0.00752022    0.00000000
                                                     2        0.2600000        0.02503380    0.00000000
                                                     2        0.4000000       -0.08702670    0.00000000
                                                     2        0.6000000        0.30134159    0.00000000
                                                     2        0.8000000       -0.50204959    0.00000000
                                                     2        1.2000000        0.52208372    0.00000000
                                      S - F
                                                     0        0.0000010       -0.01618346    0.00000000
                                                     2        0.1200000       -0.07880581    0.00000000
                                                     2        0.1600000        0.32040539    0.00000000
                                                     2        0.2400000       -0.47500956    0.00000000
                                                     2        0.5000000        0.54013668    0.00000000
                                                     2        1.5000000       -1.40434292    0.00000000
                                                     2        3.0000000        1.46283806    0.00000000
                                      P - F
                                                     0        0.0000010        0.00612970    0.00000000
                                                     2        0.1200000        0.02254406    0.00000000
                                                     2        0.1800000       -0.13874529    0.00000000
                                                     2        0.3000000        0.38299049    0.00000000
                                                     2        0.5000000       -0.57923512    0.00000000
                                                     2        1.0000000        0.63021625    0.00000000
                                                     2        2.0000000       -0.79201034    0.00000000
                                      D - F
                                                     0        0.0000010       -0.00296226    0.00000000
                                                     2        0.1200000       -0.00547344    0.00000000
                                                     2        0.1400000        0.01837884    0.00000000
                                                     2        0.2400000       -0.05565704    0.00000000
                                                     2        0.4000000        0.15376597    0.00000000
                                                     2        0.8000000       -0.32464795    0.00000000
    7          6            6
                                      G and up 
                                                     0        0.0000010       -0.00011185    0.00000000
                                                     2        0.1200000       -0.02301220    0.00000000
                                                     2        0.1400000        0.13317600    0.00000000
                                                     2        0.1600000       -0.19690668    0.00000000
                                                     2        0.2200000        0.23163694    0.00000000
                                                     2        0.3000000       -0.36920489    0.00000000
                                                     2        0.4000000        0.36389709    0.00000000
                                                     2        0.7000000       -0.38862160    0.00000000
                                                     2        1.3000000        0.80803421    0.00000000
                                      S - G
                                                     0        0.0000010        0.00312304    0.00000000
                                                     2        0.1200000       -0.00632892    0.00000000
                                                     2        0.2200000       -0.03780897    0.00000000
                                                     2        0.4000000        0.26269560    0.00000000
                                                     2        0.9000000       -0.28209514    0.00000000
                                                     2        1.5000000       -0.72686737    0.00000000
                                      P - G
                                                     0        0.0000010       -0.01465594    0.00000000
                                                     2        0.1200000        0.07908409    0.00000000
                                                     2        0.1800000       -0.30615861    0.00000000
                                                     2        0.2600000        0.41506950    0.00000000
                                                     2        0.5000000       -0.36252345    0.00000000
                                                     2        0.9000000        0.15124193    0.00000000
                                                     2        3.0000000       -0.80425677    0.00000000
                                      D - G
                                                     0        0.0000010        0.01149631    0.00000000
                                                     2        0.1200000       -0.04713561    0.00000000
                                                     2        0.1600000        0.10865096    0.00000000
                                                     2        0.2800000       -0.15816701    0.00000000
                                                     2        0.7000000        0.65478804    0.00000000
                                                     2        1.3000000       -1.73816624    0.00000000
                                      F - G
                                                     0        0.0000010        0.00481868    0.00000000
                                                     2        0.1200000       -0.04746842    0.00000000
                                                     2        0.1600000        0.09327889    0.00000000
                                                     2        0.4000000       -0.19693326    0.00000000
                                                     2        0.9000000        0.34938253    0.00000000
    8          7            7
                                      G and up 
                                                     0        0.0000010       -0.00000022    0.00000000
                                                     2        0.1200000       -0.00992020    0.00000000
                                                     2        0.1400000        0.02578711    0.00000000
                                                     2        0.2200000       -0.10543517    0.00000000
                                                     2        0.3000000        0.23013665    0.00000000
                                                     2        0.5000000       -0.60834094    0.00000000
                                                     2        0.8000000        1.81436815    0.00000000
                                                     2        1.2000000       -3.87539738    0.00000000
                                                     2        2.0000000        2.94656640    0.00000000
                                      S - G
                                                     0        0.0000010       -0.00223566    0.00000000
                                                     2        0.1200000        0.45247937    0.00000000
                                                     2        0.1600000       -0.78978304    0.00000000
                                                     2        0.4000000        0.84956595    0.00000000
                                                     2        3.0000000       -0.75910174    0.00000000
                                      P - G
                                                     0        0.0000010       -0.25576737    0.00000000
                                                     2        0.1200000       -0.19992277    0.00000000
                                                     2        0.1600000        0.88518512    0.00000000
                                                     2        0.2400000       -1.33293917    0.00000000
                                                     2        0.4000000        1.33451776    0.00000000
                                                     2        0.9000000       -0.55709210    0.00000000
                                                     2        2.5000000        2.48506502    0.00000000
                                      D - G
                                                     0        0.0000010        0.26143746    0.00000000
                                                     2        0.1200000       -0.04492212    0.00000000
                                                     2        0.1400000       -0.18274021    0.00000000
                                                     2        0.2400000        0.53490004    0.00000000
                                                     2        0.4000000       -0.74136473    0.00000000
                                                     2        1.3000000        1.71401021    0.00000000
                                      F - G
                                                     0        0.0000010       -0.07169988    0.00000000
                                                     2        0.1200000        0.04480029    0.00000000
                                                     2        0.2600000       -0.08050831    0.00000000
                                                     2        0.5000000        0.31290809    0.00000000
                                                     2        1.0000000       -0.45253098    0.00000000
    9          6            6
                                      G and up 
                                                     0        0.0000010       -0.00011185    0.00000000
                                                     2        0.1200000       -0.02301220    0.00000000
                                                     2        0.1400000        0.13317600    0.00000000
                                                     2        0.1600000       -0.19690668    0.00000000
                                                     2        0.2200000        0.23163694    0.00000000
                                                     2        0.3000000       -0.36920489    0.00000000
                                                     2        0.4000000        0.36389709    0.00000000
                                                     2        0.7000000       -0.38862160    0.00000000
                                                     2        1.3000000        0.80803421    0.00000000
                                      S - G
                                                     0        0.0000010        0.00312304    0.00000000
                                                     2        0.1200000       -0.00632892    0.00000000
                                                     2        0.2200000       -0.03780897    0.00000000
                                                     2        0.4000000        0.26269560    0.00000000
                                                     2        0.9000000       -0.28209514    0.00000000
                                                     2        1.5000000       -0.72686737    0.00000000
                                      P - G
                                                     0        0.0000010       -0.01465594    0.00000000
                                                     2        0.1200000        0.07908409    0.00000000
                                                     2        0.1800000       -0.30615861    0.00000000
                                                     2        0.2600000        0.41506950    0.00000000
                                                     2        0.5000000       -0.36252345    0.00000000
                                                     2        0.9000000        0.15124193    0.00000000
                                                     2        3.0000000       -0.80425677    0.00000000
                                      D - G
                                                     0        0.0000010        0.01149631    0.00000000
                                                     2        0.1200000       -0.04713561    0.00000000
                                                     2        0.1600000        0.10865096    0.00000000
                                                     2        0.2800000       -0.15816701    0.00000000
                                                     2        0.7000000        0.65478804    0.00000000
                                                     2        1.3000000       -1.73816624    0.00000000
                                      F - G
                                                     0        0.0000010        0.00481868    0.00000000
                                                     2        0.1200000       -0.04746842    0.00000000
                                                     2        0.1600000        0.09327889    0.00000000
                                                     2        0.4000000       -0.19693326    0.00000000
                                                     2        0.9000000        0.34938253    0.00000000
   10          1            1
                                      F and up 
                                                     0        0.0000010       -0.00000699    0.00000000
                                                     2        0.1200000        0.00123686    0.00000000
                                                     2        0.1800000       -0.00752022    0.00000000
                                                     2        0.2600000        0.02503380    0.00000000
                                                     2        0.4000000       -0.08702670    0.00000000
                                                     2        0.6000000        0.30134159    0.00000000
                                                     2        0.8000000       -0.50204959    0.00000000
                                                     2        1.2000000        0.52208372    0.00000000
                                      S - F
                                                     0        0.0000010       -0.01618346    0.00000000
                                                     2        0.1200000       -0.07880581    0.00000000
                                                     2        0.1600000        0.32040539    0.00000000
                                                     2        0.2400000       -0.47500956    0.00000000
                                                     2        0.5000000        0.54013668    0.00000000
                                                     2        1.5000000       -1.40434292    0.00000000
                                                     2        3.0000000        1.46283806    0.00000000
                                      P - F
                                                     0        0.0000010        0.00612970    0.00000000
                                                     2        0.1200000        0.02254406    0.00000000
                                                     2        0.1800000       -0.13874529    0.00000000
                                                     2        0.3000000        0.38299049    0.00000000
                                                     2        0.5000000       -0.57923512    0.00000000
                                                     2        1.0000000        0.63021625    0.00000000
                                                     2        2.0000000       -0.79201034    0.00000000
                                      D - F
                                                     0        0.0000010       -0.00296226    0.00000000
                                                     2        0.1200000       -0.00547344    0.00000000
                                                     2        0.1400000        0.01837884    0.00000000
                                                     2        0.2400000       -0.05565704    0.00000000
                                                     2        0.4000000        0.15376597    0.00000000
                                                     2        0.8000000       -0.32464795    0.00000000
   11          1            1
                                      F and up 
                                                     0        0.0000010       -0.00000699    0.00000000
                                                     2        0.1200000        0.00123686    0.00000000
                                                     2        0.1800000       -0.00752022    0.00000000
                                                     2        0.2600000        0.02503380    0.00000000
                                                     2        0.4000000       -0.08702670    0.00000000
                                                     2        0.6000000        0.30134159    0.00000000
                                                     2        0.8000000       -0.50204959    0.00000000
                                                     2        1.2000000        0.52208372    0.00000000
                                      S - F
                                                     0        0.0000010       -0.01618346    0.00000000
                                                     2        0.1200000       -0.07880581    0.00000000
                                                     2        0.1600000        0.32040539    0.00000000
                                                     2        0.2400000       -0.47500956    0.00000000
                                                     2        0.5000000        0.54013668    0.00000000
                                                     2        1.5000000       -1.40434292    0.00000000
                                                     2        3.0000000        1.46283806    0.00000000
                                      P - F
                                                     0        0.0000010        0.00612970    0.00000000
                                                     2        0.1200000        0.02254406    0.00000000
                                                     2        0.1800000       -0.13874529    0.00000000
                                                     2        0.3000000        0.38299049    0.00000000
                                                     2        0.5000000       -0.57923512    0.00000000
                                                     2        1.0000000        0.63021625    0.00000000
                                                     2        2.0000000       -0.79201034    0.00000000
                                      D - F
                                                     0        0.0000010       -0.00296226    0.00000000
                                                     2        0.1200000       -0.00547344    0.00000000
                                                     2        0.1400000        0.01837884    0.00000000
                                                     2        0.2400000       -0.05565704    0.00000000
                                                     2        0.4000000        0.15376597    0.00000000
                                                     2        0.8000000       -0.32464795    0.00000000
   12          1            1
                                      F and up 
                                                     0        0.0000010       -0.00000699    0.00000000
                                                     2        0.1200000        0.00123686    0.00000000
                                                     2        0.1800000       -0.00752022    0.00000000
                                                     2        0.2600000        0.02503380    0.00000000
                                                     2        0.4000000       -0.08702670    0.00000000
                                                     2        0.6000000        0.30134159    0.00000000
                                                     2        0.8000000       -0.50204959    0.00000000
                                                     2        1.2000000        0.52208372    0.00000000
                                      S - F
                                                     0        0.0000010       -0.01618346    0.00000000
                                                     2        0.1200000       -0.07880581    0.00000000
                                                     2        0.1600000        0.32040539    0.00000000
                                                     2        0.2400000       -0.47500956    0.00000000
                                                     2        0.5000000        0.54013668    0.00000000
                                                     2        1.5000000       -1.40434292    0.00000000
                                                     2        3.0000000        1.46283806    0.00000000
                                      P - F
                                                     0        0.0000010        0.00612970    0.00000000
                                                     2        0.1200000        0.02254406    0.00000000
                                                     2        0.1800000       -0.13874529    0.00000000
                                                     2        0.3000000        0.38299049    0.00000000
                                                     2        0.5000000       -0.57923512    0.00000000
                                                     2        1.0000000        0.63021625    0.00000000
                                                     2        2.0000000       -0.79201034    0.00000000
                                      D - F
                                                     0        0.0000010       -0.00296226    0.00000000
                                                     2        0.1200000       -0.00547344    0.00000000
                                                     2        0.1400000        0.01837884    0.00000000
                                                     2        0.2400000       -0.05565704    0.00000000
                                                     2        0.4000000        0.15376597    0.00000000
                                                     2        0.8000000       -0.32464795    0.00000000
   13          7            7
                                      G and up 
                                                     0        0.0000010       -0.00000022    0.00000000
                                                     2        0.1200000       -0.00992020    0.00000000
                                                     2        0.1400000        0.02578711    0.00000000
                                                     2        0.2200000       -0.10543517    0.00000000
                                                     2        0.3000000        0.23013665    0.00000000
                                                     2        0.5000000       -0.60834094    0.00000000
                                                     2        0.8000000        1.81436815    0.00000000
                                                     2        1.2000000       -3.87539738    0.00000000
                                                     2        2.0000000        2.94656640    0.00000000
                                      S - G
                                                     0        0.0000010       -0.00223566    0.00000000
                                                     2        0.1200000        0.45247937    0.00000000
                                                     2        0.1600000       -0.78978304    0.00000000
                                                     2        0.4000000        0.84956595    0.00000000
                                                     2        3.0000000       -0.75910174    0.00000000
                                      P - G
                                                     0        0.0000010       -0.25576737    0.00000000
                                                     2        0.1200000       -0.19992277    0.00000000
                                                     2        0.1600000        0.88518512    0.00000000
                                                     2        0.2400000       -1.33293917    0.00000000
                                                     2        0.4000000        1.33451776    0.00000000
                                                     2        0.9000000       -0.55709210    0.00000000
                                                     2        2.5000000        2.48506502    0.00000000
                                      D - G
                                                     0        0.0000010        0.26143746    0.00000000
                                                     2        0.1200000       -0.04492212    0.00000000
                                                     2        0.1400000       -0.18274021    0.00000000
                                                     2        0.2400000        0.53490004    0.00000000
                                                     2        0.4000000       -0.74136473    0.00000000
                                                     2        1.3000000        1.71401021    0.00000000
                                      F - G
                                                     0        0.0000010       -0.07169988    0.00000000
                                                     2        0.1200000        0.04480029    0.00000000
                                                     2        0.2600000       -0.08050831    0.00000000
                                                     2        0.5000000        0.31290809    0.00000000
                                                     2        1.0000000       -0.45253098    0.00000000
   14          1            1
                                      F and up 
                                                     0        0.0000010       -0.00000699    0.00000000
                                                     2        0.1200000        0.00123686    0.00000000
                                                     2        0.1800000       -0.00752022    0.00000000
                                                     2        0.2600000        0.02503380    0.00000000
                                                     2        0.4000000       -0.08702670    0.00000000
                                                     2        0.6000000        0.30134159    0.00000000
                                                     2        0.8000000       -0.50204959    0.00000000
                                                     2        1.2000000        0.52208372    0.00000000
                                      S - F
                                                     0        0.0000010       -0.01618346    0.00000000
                                                     2        0.1200000       -0.07880581    0.00000000
                                                     2        0.1600000        0.32040539    0.00000000
                                                     2        0.2400000       -0.47500956    0.00000000
                                                     2        0.5000000        0.54013668    0.00000000
                                                     2        1.5000000       -1.40434292    0.00000000
                                                     2        3.0000000        1.46283806    0.00000000
                                      P - F
                                                     0        0.0000010        0.00612970    0.00000000
                                                     2        0.1200000        0.02254406    0.00000000
                                                     2        0.1800000       -0.13874529    0.00000000
                                                     2        0.3000000        0.38299049    0.00000000
                                                     2        0.5000000       -0.57923512    0.00000000
                                                     2        1.0000000        0.63021625    0.00000000
                                                     2        2.0000000       -0.79201034    0.00000000
                                      D - F
                                                     0        0.0000010       -0.00296226    0.00000000
                                                     2        0.1200000       -0.00547344    0.00000000
                                                     2        0.1400000        0.01837884    0.00000000
                                                     2        0.2400000       -0.05565704    0.00000000
                                                     2        0.4000000        0.15376597    0.00000000
                                                     2        0.8000000       -0.32464795    0.00000000
   15          1            1
                                      F and up 
                                                     0        0.0000010       -0.00000699    0.00000000
                                                     2        0.1200000        0.00123686    0.00000000
                                                     2        0.1800000       -0.00752022    0.00000000
                                                     2        0.2600000        0.02503380    0.00000000
                                                     2        0.4000000       -0.08702670    0.00000000
                                                     2        0.6000000        0.30134159    0.00000000
                                                     2        0.8000000       -0.50204959    0.00000000
                                                     2        1.2000000        0.52208372    0.00000000
                                      S - F
                                                     0        0.0000010       -0.01618346    0.00000000
                                                     2        0.1200000       -0.07880581    0.00000000
                                                     2        0.1600000        0.32040539    0.00000000
                                                     2        0.2400000       -0.47500956    0.00000000
                                                     2        0.5000000        0.54013668    0.00000000
                                                     2        1.5000000       -1.40434292    0.00000000
                                                     2        3.0000000        1.46283806    0.00000000
                                      P - F
                                                     0        0.0000010        0.00612970    0.00000000
                                                     2        0.1200000        0.02254406    0.00000000
                                                     2        0.1800000       -0.13874529    0.00000000
                                                     2        0.3000000        0.38299049    0.00000000
                                                     2        0.5000000       -0.57923512    0.00000000
                                                     2        1.0000000        0.63021625    0.00000000
                                                     2        2.0000000       -0.79201034    0.00000000
                                      D - F
                                                     0        0.0000010       -0.00296226    0.00000000
                                                     2        0.1200000       -0.00547344    0.00000000
                                                     2        0.1400000        0.01837884    0.00000000
                                                     2        0.2400000       -0.05565704    0.00000000
                                                     2        0.4000000        0.15376597    0.00000000
                                                     2        0.8000000       -0.32464795    0.00000000
 ======================================================================================================
   251 basis functions,   459 primitive gaussians,   267 cartesian basis functions
    36 alpha electrons       36 beta electrons
       nuclear repulsion energy       442.8443898280 Hartrees.
 NAtoms=   15 NActive=   15 NUniq=   15 SFac= 1.00D+00 NAtFMM=   60 NAOKFM=F Big=F
   1 Symmetry operations used in ECPInt.
 ECPInt:  NShTT=    5995 NPrTT=   32589 LenC2=    5971 LenP2D=   23705.
 LDataN:  DoStor=T MaxTD1= 6 Len=  172
 Initial guess from the checkpoint file:  "E2SN2_259_mol1.chk"
 B after Tr=    -0.606898    0.712750   -1.378881
         Rot=   -0.380312    0.862865   -0.306841    0.129135 Ang= 224.71 deg.
 >>>>>>>>>> Convergence criterion not met.
 SCF Done:  E(RHF) =  -823.546916434     A.U. after    2 cycles
            NFock=  1  Conv=0.67D-02     -V/T= 1.9976

 **********************************************************************

            Population analysis using the SCF Density.

 **********************************************************************

 Orbital symmetries:
       Occupied  (A) (A) (A) (A) (A) (A) (A) (A) (A) (A) (A) (A)
                 (A) (A) (A) (A) (A) (A) (A) (A) (A) (A) (A) (A)
                 (A) (A) (A) (A) (A) (A) (A) (A) (A) (A) (A) (A)
       Virtual   (A) (A) (A) (A) (A) (A) (A) (A) (A) (A) (A) (A)
                 (A) (A) (A) (A) (A) (A) (A) (A) (A) (A) (A) (A)
                 (A) (A) (A) (A) (A) (A) (A) (A) (A) (A) (A) (A)
                 (A) (A) (A) (A) (A) (A) (A) (A) (A) (A) (A) (A)
                 (A) (A) (A) (A) (A) (A) (A) (A) (A) (A) (A) (A)
                 (A) (A) (A) (A) (A) (A) (A) (A) (A) (A) (A) (A)
                 (A) (A) (A) (A) (A) (A) (A) (A) (A) (A) (A) (A)
                 (A) (A) (A) (A) (A) (A) (A) (A) (A) (A) (A) (A)
                 (A) (A) (A) (A) (A) (A) (A) (A) (A) (A) (A) (A)
                 (A) (A) (A) (A) (A) (A) (A) (A) (A) (A) (A) (A)
                 (A) (A) (A) (A) (A) (A) (A) (A) (A) (A) (A) (A)
                 (A) (A) (A) (A) (A) (A) (A) (A) (A) (A) (A) (A)
                 (A) (A) (A) (A) (A) (A) (A) (A) (A) (A) (A) (A)
                 (A) (A) (A) (A) (A) (A) (A) (A) (A) (A) (A) (A)
                 (A) (A) (A) (A) (A) (A) (A) (A) (A) (A) (A) (A)
                 (A) (A) (A) (A) (A) (A) (A) (A) (A) (A) (A) (A)
                 (A) (A) (A) (A) (A) (A) (A) (A) (A) (A) (A) (A)
                 (A) (A) (A) (A) (A) (A) (A) (A) (A) (A) (A)
 The electronic state is 1-A.
 Alpha  occ. eigenvalues -- -103.44863 -25.81485 -15.49959 -15.46829 -11.23766
 Alpha  occ. eigenvalues --  -11.16134 -11.15470 -11.10566 -10.48130  -8.13775
 Alpha  occ. eigenvalues --   -8.13623  -8.13616  -1.31246  -1.05068  -1.02811
 Alpha  occ. eigenvalues --   -0.94013  -0.87416  -0.83311  -0.69818  -0.59450
 Alpha  occ. eigenvalues --   -0.56389  -0.49028  -0.45651  -0.44647  -0.43611
 Alpha  occ. eigenvalues --   -0.41966  -0.40440  -0.39855  -0.39333  -0.37495
 Alpha  occ. eigenvalues --   -0.32646  -0.31293  -0.28009  -0.27243  -0.26426
 Alpha  occ. eigenvalues --   -0.25139
 Alpha virt. eigenvalues --    0.11829   0.13628   0.14496   0.15132   0.16554
 Alpha virt. eigenvalues --    0.17075   0.18329   0.20120   0.20732   0.22337
 Alpha virt. eigenvalues --    0.23706   0.24408   0.24654   0.26440   0.26680
 Alpha virt. eigenvalues --    0.26889   0.27490   0.28608   0.28926   0.29955
 Alpha virt. eigenvalues --    0.30560   0.31452   0.31843   0.32079   0.32474
 Alpha virt. eigenvalues --    0.33143   0.33904   0.36369   0.37229   0.37473
 Alpha virt. eigenvalues --    0.38470   0.39640   0.41444   0.43137   0.43908
 Alpha virt. eigenvalues --    0.44507   0.45567   0.46814   0.48240   0.48957
 Alpha virt. eigenvalues --    0.49308   0.49841   0.50985   0.52062   0.53808
 Alpha virt. eigenvalues --    0.54071   0.54775   0.55288   0.57939   0.58192
 Alpha virt. eigenvalues --    0.59186   0.59799   0.60375   0.60972   0.62324
 Alpha virt. eigenvalues --    0.62964   0.63351   0.64373   0.65734   0.66758
 Alpha virt. eigenvalues --    0.67565   0.68928   0.69449   0.71736   0.72157
 Alpha virt. eigenvalues --    0.73730   0.74823   0.75503   0.75851   0.76618
 Alpha virt. eigenvalues --    0.77572   0.78926   0.79327   0.79987   0.80727
 Alpha virt. eigenvalues --    0.82019   0.83109   0.84127   0.85263   0.85970
 Alpha virt. eigenvalues --    0.87444   0.88940   0.90664   0.91273   0.91853
 Alpha virt. eigenvalues --    0.92781   0.93286   0.95913   0.98167   0.98530
 Alpha virt. eigenvalues --    0.99670   0.99707   1.01434   1.03556   1.04820
 Alpha virt. eigenvalues --    1.06039   1.06759   1.08025   1.10104   1.11653
 Alpha virt. eigenvalues --    1.12892   1.15891   1.16247   1.17857   1.19312
 Alpha virt. eigenvalues --    1.19353   1.20396   1.22488   1.24861   1.26752
 Alpha virt. eigenvalues --    1.27578   1.28733   1.30536   1.32956   1.34724
 Alpha virt. eigenvalues --    1.37323   1.38061   1.38913   1.42780   1.44995
 Alpha virt. eigenvalues --    1.48296   1.52649   1.54567   1.56157   1.57066
 Alpha virt. eigenvalues --    1.63403   1.63629   1.66267   1.66901   1.68596
 Alpha virt. eigenvalues --    1.69024   1.71579   1.73131   1.73876   1.75594
 Alpha virt. eigenvalues --    1.78238   1.80851   1.81683   1.83041   1.84070
 Alpha virt. eigenvalues --    1.85587   1.89662   1.90818   1.92768   1.93688
 Alpha virt. eigenvalues --    1.95316   1.96956   1.98681   1.99113   2.00982
 Alpha virt. eigenvalues --    2.02942   2.04961   2.05995   2.08334   2.10206
 Alpha virt. eigenvalues --    2.12943   2.15595   2.17720   2.20511   2.21811
 Alpha virt. eigenvalues --    2.25488   2.27842   2.30388   2.32059   2.33516
 Alpha virt. eigenvalues --    2.34935   2.36895   2.39329   2.40663   2.43788
 Alpha virt. eigenvalues --    2.45442   2.48347   2.51465   2.52976   2.57776
 Alpha virt. eigenvalues --    2.59979   2.64607   2.65397   2.67053   2.68655
 Alpha virt. eigenvalues --    2.69414   2.71915   2.75722   2.79970   2.84369
 Alpha virt. eigenvalues --    2.86367   2.89143   2.92678   2.93529   2.94308
 Alpha virt. eigenvalues --    2.95970   3.00354   3.08906   3.09693   3.15007
 Alpha virt. eigenvalues --    3.19349   3.22152   3.24964   3.29891   3.32552
 Alpha virt. eigenvalues --    3.39383   3.43311   3.49575   3.61228   3.65168
 Alpha virt. eigenvalues --    3.68340   3.74681   3.84948   3.99062   4.10788
 Alpha virt. eigenvalues --    5.28296   5.37304   5.41440   5.42533   5.46921
          Condensed to atoms (all electrons):
 Mulliken charges:
               1
     1  C    1.579566
     2  H   -0.148652
     3  F   -0.861486
     4  Cl  -0.585631
     5  C    0.012492
     6  H   -0.340701
     7  C   -0.763435
     8  N   -0.225885
     9  C    0.632988
    10  H    0.092678
    11  H   -0.019334
    12  H   -0.107482
    13  N   -0.340403
    14  H   -0.038050
    15  H    0.113336
 Sum of Mulliken charges =  -1.00000
 Mulliken charges with hydrogens summed into heavy atoms:
               1
     1  C    1.238865
     3  F   -0.861486
     4  Cl  -0.585631
     5  C   -0.136161
     7  C   -0.763435
     8  N   -0.225885
     9  C    0.598850
    13  N   -0.265117
 Electronic spatial extent (au):  <R**2>=           1251.1674
 Charge=             -1.0000 electrons
 Dipole moment (field-independent basis, Debye):
    X=             -3.2595    Y=             -4.6777    Z=              0.9166  Tot=              5.7746

 Test job not archived.
 1\1\GINC-SE187\SP\RHF\Aug-CC-pVDZ\C4H7Cl1F1N2(1-)\OHZDE\09-Apr-2025\0\
 \#t hf aug-cc-pvdz iop(5/13=1,5/36=2,99/5=2) pseudo=read geom=check gu
 ess=(read,tcheck) scf=(maxcycle=1)\\title\\-1,1\C,0,0.64664829,0.03131
 333,-0.04916321\H,0,1.68005224,1.88948377,-0.2312839\F,0,-1.31245439,-
 0.01013172,-0.20843615\Cl,0,2.74833801,-0.3094913,0.51663273\C,0,0.651
 26342,1.55736191,-0.08618728\H,0,0.35882452,-0.49755095,0.83785435\C,0
 ,0.68852783,-0.71178882,-1.28470833\N,0,0.74917863,-1.32929337,-2.2832
 3988\C,0,0.14359394,2.05806752,1.26442873\H,0,-0.87163342,1.68475716,1
 .40069171\H,0,0.78180187,1.70288159,2.07949028\H,0,0.1393084,3.1534669
 6,1.28619322\N,0,-0.11940775,2.01501522,-1.23974562\H,0,-0.22727965,3.
 02103637,-1.17696422\H,0,-1.02508195,1.56075233,-1.14321242\\Version=E
 S64L-G16RevC.01\State=1-A\HF=-823.5469164\RMSD=6.727e-03\Dipole=-0.039
 8657,1.9745791,1.1229318\Quadrupole=-7.0532168,6.4660346,0.5871823,0.6
 242961,-2.9746329,-3.6229914\PG=C01 [X(C4H7Cl1F1N2)]\\@


 FROM WHENCE IT HAPPENS, THAT THEY WHICH TRUST TO BOOKS, DO AS THEY THAT CAST UP MANY LITTLE SUMMS INTO GREATER,
 WITHOUT CONSIDERING WETHER THOSE LITTLE SUMMES WERE RIGHTLY CAST UP OR NOT...
 AND AT LAST FINDING THE ERROUR VISIBLE, AND NOT MISTRUSTING THEIR FIRST GROUNDS,
 KNOW NOT WHICH WAY TO CLEERE THEMSELVES...
 BUT SPEND TIME IN FLUTTERING OVER THEIR BOOKES....
 AS BIRDS THAT ENTERING BY THE CHIMNEY, AND FINDING THEMSELVES INCLOSED IN A CHAMBER,
 FLUTTER AT THE FALSE LIGHT OF A GLASSE WINDOW,
 FOR WANT OF WIT TO CONSIDER WHICH WAY THEY CAME IN....
           LEVIATHAN
 Job cpu time:       0 days  0 hours  1 minutes 26.1 seconds.
 Elapsed time:       0 days  0 hours  0 minutes  6.5 seconds.
 File lengths (MBytes):  RWF=     14 Int=      0 D2E=      0 Chk=      9 Scr=      1
 Normal termination of Gaussian 16 at Wed Apr  9 02:44:24 2025.
