 Entering Gaussian System, Link 0=g16
 Input=E2SN2_352_mol1.gjf
 Output=E2SN2_352_mol1.log
 Initial command:
 /arc/software/Gaussian/g16.c01/l1.exe "/tmp/slurm/4859749/Gau-2374118.inp" -scrdir="/tmp/slurm/4859749/"
 Entering Link 1 = /arc/software/Gaussian/g16.c01/l1.exe PID=   2374119.
  
 Copyright (c) 1988-2019, Gaussian, Inc.  All Rights Reserved.
  
 This is part of the Gaussian(R) 16 program.  It is based on
 the Gaussian(R) 09 system (copyright 2009, Gaussian, Inc.),
 the Gaussian(R) 03 system (copyright 2003, Gaussian, Inc.),
 the Gaussian(R) 98 system (copyright 1998, Gaussian, Inc.),
 the Gaussian(R) 94 system (copyright 1995, Gaussian, Inc.),
 the Gaussian 92(TM) system (copyright 1992, Gaussian, Inc.),
 the Gaussian 90(TM) system (copyright 1990, Gaussian, Inc.),
 the Gaussian 88(TM) system (copyright 1988, Gaussian, Inc.),
 the Gaussian 86(TM) system (copyright 1986, Carnegie Mellon
 University), and the Gaussian 82(TM) system (copyright 1983,
 Carnegie Mellon University). Gaussian is a federally registered
 trademark of Gaussian, Inc.
  
 This software contains proprietary and confidential information,
 including trade secrets, belonging to Gaussian, Inc.
  
 This software is provided under written license and may be
 used, copied, transmitted, or stored only in accord with that
 written license.
  
 The following legend is applicable only to US Government
 contracts under FAR:
  
                    RESTRICTED RIGHTS LEGEND
  
 Use, reproduction and disclosure by the US Government is
 subject to restrictions as set forth in subparagraphs (a)
 and (c) of the Commercial Computer Software - Restricted
 Rights clause in FAR 52.227-19.
  
 Gaussian, Inc.
 340 Quinnipiac St., Bldg. 40, Wallingford CT 06492
  
  
 ---------------------------------------------------------------
 Warning -- This program may not be used in any manner that
 competes with the business of Gaussian, Inc. or will provide
 assistance to any competitor of Gaussian, Inc.  The licensee
 of this program is prohibited from giving any competitor of
 Gaussian, Inc. access to this program.  By using this program,
 the user acknowledges that Gaussian, Inc. is engaged in the
 business of creating and licensing software in the field of
 computational chemistry and represents and warrants to the
 licensee that it is not a competitor of Gaussian, Inc. and that
 it will not use this program in any manner prohibited above.
 ---------------------------------------------------------------
  

 Cite this work as:
 Gaussian 16, Revision C.01,
 M. J. Frisch, G. W. Trucks, H. B. Schlegel, G. E. Scuseria, 
 M. A. Robb, J. R. Cheeseman, G. Scalmani, V. Barone, 
 G. A. Petersson, H. Nakatsuji, X. Li, M. Caricato, A. V. Marenich, 
 J. Bloino, B. G. Janesko, R. Gomperts, B. Mennucci, H. P. Hratchian, 
 J. V. Ortiz, A. F. Izmaylov, J. L. Sonnenberg, D. Williams-Young, 
 F. Ding, F. Lipparini, F. Egidi, J. Goings, B. Peng, A. Petrone, 
 T. Henderson, D. Ranasinghe, V. G. Zakrzewski, J. Gao, N. Rega, 
 G. Zheng, W. Liang, M. Hada, M. Ehara, K. Toyota, R. Fukuda, 
 J. Hasegawa, M. Ishida, T. Nakajima, Y. Honda, O. Kitao, H. Nakai, 
 T. Vreven, K. Throssell, J. A. Montgomery, Jr., J. E. Peralta, 
 F. Ogliaro, M. J. Bearpark, J. J. Heyd, E. N. Brothers, K. N. Kudin, 
 V. N. Staroverov, T. A. Keith, R. Kobayashi, J. Normand, 
 K. Raghavachari, A. P. Rendell, J. C. Burant, S. S. Iyengar, 
 J. Tomasi, M. Cossi, J. M. Millam, M. Klene, C. Adamo, R. Cammi, 
 J. W. Ochterski, R. L. Martin, K. Morokuma, O. Farkas, 
 J. B. Foresman, and D. J. Fox, Gaussian, Inc., Wallingford CT, 2019.
 
 ******************************************
 Gaussian 16:  ES64L-G16RevC.01  3-Jul-2019
                 9-Apr-2025 
 ******************************************
 %nprocs=16
 Will use up to   16 processors via shared memory.
 %mem=30GB
 %chk=E2SN2_352_mol1.chk
 ----------------------------------------------------------------------
 #t hf aug-cc-pvdz symm=none int=(grid=ultrafine) guess=(read,tcheck) s
 table=(opt,rrhf)
 ----------------------------------------------------------------------
 -----
 title
 -----
 Symbolic Z-matrix:
 Charge = -1 Multiplicity = 1
 C                     0.46245   0.00787  -0.0126 
 H                     1.45837   1.70624  -0.8119 
 F                    -1.24239  -0.05586  -0.31714 
 H                     2.34997   0.17167   0.32882 
 C                     0.60667   1.55708  -0.13887 
 C                     0.86831  -0.83972  -1.20722 
 H                    -0.03016  -1.26979  -1.66207 
 H                     1.39663  -0.23222  -1.94664 
 H                     1.54374  -1.63901  -0.90651 
 C                     0.2719   -0.69883   1.32396 
 H                     1.21175  -1.07407   1.71939 
 H                    -0.16351   0.00603   2.03399 
 H                    -0.43454  -1.52097   1.1808 
 N                     0.83852   2.12396   1.18397 
 H                     1.00177   3.11579   1.04513 
 H                     1.70796   1.6874    1.48723 
 N                    -0.50766   2.32168  -0.70998 
 H                    -1.32654   2.01058  -0.1989 
 H                    -0.65633   1.95092  -1.64305 
 
                    Distance matrix (angstroms):
                    1          2          3          4          5
     1  C    0.000000
     2  H    2.124902   0.000000
     3  F    1.733001   3.262500   0.000000
     4  H    1.925132   2.109756   3.657062   0.000000
     5  C    1.561022   1.095727   2.460157   2.275340   0.000000
     6  C    1.519949   2.643169   2.421101   2.361703   2.637128
     7  H    2.143790   3.434422   2.179898   3.421473   3.273660
     8  H    2.161215   2.247008   3.106569   2.499944   2.663386
     9  H    2.163441   3.347676   3.258257   2.335515   3.417945
    10  C    1.523845   3.428401   2.323726   2.463014   2.709434
    11  H    2.175273   3.768070   3.347689   2.186573   3.277528
    12  H    2.140173   3.690567   2.587592   3.041812   2.778530
    13  H    2.136850   4.238967   2.245662   3.368147   3.507136
    14  N    2.459889   2.131248   3.366774   2.612887   1.457749
    15  H    3.326985   2.375689   4.117210   3.316407   1.996887
    16  H    2.573247   2.312718   3.872892   2.012837   1.968259
    17  N    2.604067   2.062626   2.519297   3.723928   1.467139
    18  H    2.691850   2.867781   2.071530   4.144491   1.986600
    19  H    2.772273   2.285309   2.475616   4.011460   2.003201
                    6          7          8          9         10
     6  C    0.000000
     7  H    1.095035   0.000000
     8  H    1.093126   1.786967   0.000000
     9  H    1.088806   1.784476   1.755735   0.000000
    10  C    2.604306   3.055096   3.489922   2.734319   0.000000
    11  H    2.955992   3.607617   3.765988   2.706417   1.086504
    12  H    3.505049   3.912334   4.282079   3.777220   1.091124
    13  H    2.804312   2.882454   3.846422   2.878261   1.093377
    14  N    3.808158   4.513546   3.957750   4.362040   2.882493
    15  H    4.553782   5.256151   4.507300   5.168245   3.893805
    16  H    3.788322   4.656621   3.946306   4.101458   2.789798
    17  N    3.483528   3.746081   3.417307   4.464742   3.723984
    18  H    3.736081   3.818679   3.937053   4.696675   3.494993
    19  H    3.209699   3.281074   3.012123   4.274393   4.084837
                   11         12         13         14         15
    11  H    0.000000
    12  H    1.776780   0.000000
    13  H    1.788874   1.770060   0.000000
    14  N    3.263950   2.492429   3.860853   0.000000
    15  H    4.248956   3.465008   4.856015   1.014716   0.000000
    16  H    2.815284   2.574553   3.870117   1.019056   1.653619
    17  N    4.515451   3.606938   4.283261   2.332024   2.447323
    18  H    4.431457   3.218168   3.895002   2.571515   2.861843
    19  H    4.893493   4.188799   4.480774   3.202584   3.366378
                   16         17         18         19
    16  H    0.000000
    17  N    3.184179   0.000000
    18  H    3.486501   1.014185   0.000000
    19  H    3.931659   1.014976   1.593210   0.000000
 Symmetry turned off by external request.
 Rotational constants (GHZ):           3.0500532           2.1243947           1.8305974
   269 basis functions,   433 primitive gaussians,   283 cartesian basis functions
    30 alpha electrons       30 beta electrons
       nuclear repulsion energy       357.0246230124 Hartrees.
 NAtoms=   19 NActive=   19 NUniq=   19 SFac= 1.00D+00 NAtFMM=   60 NAOKFM=F Big=F
 ExpMin= 2.97D-02 ExpMax= 1.47D+04 ExpMxC= 5.03D+02 IAcc=3 IRadAn=         5 AccDes= 0.00D+00
 Harris functional with IExCor=  205 and IRadAn=       5 diagonalized for initial guess.
 HarFok:  IExCor=  205 AccDes= 0.00D+00 IRadAn=         5 IDoV= 1 UseB2=F ITyADJ=14
 ICtDFT=  3500011 ScaDFX=  1.000000  1.000000  1.000000  1.000000
 FoFCou: FMM=F IPFlag=           0 FMFlag=      100000 FMFlg1=           0
         NFxFlg=           0 DoJE=T BraDBF=F KetDBF=T FulRan=T
         wScrn=  0.000000 ICntrl=       500 IOpCl=  0 I1Cent=   200000004 NGrid=           0
         NMat0=    1 NMatS0=      1 NMatT0=    0 NMatD0=    1 NMtDS0=    0 NMtDT0=    0
 Symmetry not used in FoFCou.
 SCF Done:  E(RHF) =  -366.703098708     A.U. after   16 cycles
            NFock= 16  Conv=0.27D-08     -V/T= 2.0010

 **********************************************************************

            Population analysis using the SCF Density.

 **********************************************************************

 Alpha  occ. eigenvalues --  -26.02006 -15.39050 -15.38614 -11.16670 -11.13056
 Alpha  occ. eigenvalues --  -11.07109 -11.06097  -1.29127  -1.06891  -0.96769
 Alpha  occ. eigenvalues --   -0.89550  -0.78699  -0.71643  -0.58483  -0.52839
 Alpha  occ. eigenvalues --   -0.51623  -0.45386  -0.45299  -0.42781  -0.41299
 Alpha  occ. eigenvalues --   -0.38952  -0.37637  -0.37421  -0.35073  -0.33598
 Alpha  occ. eigenvalues --   -0.32751  -0.31918  -0.25216  -0.23944  -0.09167
 Alpha virt. eigenvalues --    0.13835   0.14024   0.14507   0.15414   0.15803
 Alpha virt. eigenvalues --    0.16332   0.16623   0.16980   0.18763   0.19008
 Alpha virt. eigenvalues --    0.19501   0.21530   0.23833   0.24845   0.26127
 Alpha virt. eigenvalues --    0.26498   0.27657   0.27975   0.28502   0.28980
 Alpha virt. eigenvalues --    0.30116   0.30921   0.31271   0.31772   0.32338
 Alpha virt. eigenvalues --    0.33305   0.33991   0.35070   0.35649   0.36695
 Alpha virt. eigenvalues --    0.37010   0.37735   0.38841   0.40738   0.43807
 Alpha virt. eigenvalues --    0.44366   0.45033   0.45850   0.48648   0.50040
 Alpha virt. eigenvalues --    0.50252   0.50465   0.52558   0.53334   0.53592
 Alpha virt. eigenvalues --    0.54144   0.55691   0.56650   0.57089   0.57661
 Alpha virt. eigenvalues --    0.58109   0.58865   0.59952   0.60288   0.61091
 Alpha virt. eigenvalues --    0.61290   0.62426   0.62587   0.63754   0.65306
 Alpha virt. eigenvalues --    0.65550   0.66975   0.67421   0.68035   0.69132
 Alpha virt. eigenvalues --    0.70530   0.70892   0.72028   0.72653   0.73551
 Alpha virt. eigenvalues --    0.74111   0.74913   0.75647   0.76282   0.76476
 Alpha virt. eigenvalues --    0.78227   0.79217   0.79911   0.80528   0.81856
 Alpha virt. eigenvalues --    0.82086   0.83271   0.83785   0.84854   0.85915
 Alpha virt. eigenvalues --    0.87710   0.87878   0.88409   0.88964   0.90559
 Alpha virt. eigenvalues --    0.91355   0.92163   0.92911   0.93637   0.94803
 Alpha virt. eigenvalues --    0.95621   0.96786   0.97956   0.99140   0.99734
 Alpha virt. eigenvalues --    1.00406   1.01419   1.03612   1.04905   1.06198
 Alpha virt. eigenvalues --    1.07447   1.08815   1.09957   1.10443   1.12752
 Alpha virt. eigenvalues --    1.15129   1.15503   1.17233   1.18953   1.21297
 Alpha virt. eigenvalues --    1.21716   1.26119   1.26685   1.27319   1.28605
 Alpha virt. eigenvalues --    1.29826   1.31522   1.33345   1.34108   1.36437
 Alpha virt. eigenvalues --    1.36532   1.38321   1.39283   1.44375   1.46038
 Alpha virt. eigenvalues --    1.48050   1.51140   1.52798   1.54423   1.58178
 Alpha virt. eigenvalues --    1.62457   1.64319   1.65171   1.66939   1.75847
 Alpha virt. eigenvalues --    1.77336   1.77569   1.79068   1.81166   1.84869
 Alpha virt. eigenvalues --    1.86489   1.88147   1.89922   1.91182   1.92145
 Alpha virt. eigenvalues --    1.95429   1.96335   1.96819   1.99405   1.99900
 Alpha virt. eigenvalues --    2.02015   2.03344   2.05192   2.07534   2.08939
 Alpha virt. eigenvalues --    2.10896   2.11851   2.13883   2.15039   2.17436
 Alpha virt. eigenvalues --    2.17880   2.22112   2.23670   2.25730   2.26950
 Alpha virt. eigenvalues --    2.29057   2.31052   2.31544   2.32952   2.35626
 Alpha virt. eigenvalues --    2.39750   2.42035   2.43313   2.45511   2.47418
 Alpha virt. eigenvalues --    2.50035   2.50967   2.52127   2.54556   2.56259
 Alpha virt. eigenvalues --    2.58187   2.61216   2.61730   2.63660   2.64697
 Alpha virt. eigenvalues --    2.65911   2.67720   2.68428   2.70407   2.71728
 Alpha virt. eigenvalues --    2.74598   2.75223   2.78116   2.79522   2.80671
 Alpha virt. eigenvalues --    2.83521   2.85246   2.86404   2.87706   2.90082
 Alpha virt. eigenvalues --    2.90895   2.93166   2.96814   2.97855   3.00255
 Alpha virt. eigenvalues --    3.01703   3.07465   3.08284   3.09921   3.11036
 Alpha virt. eigenvalues --    3.13026   3.15040   3.16918   3.22057   3.26457
 Alpha virt. eigenvalues --    3.30499   3.33529   3.36990   3.40402   3.41209
 Alpha virt. eigenvalues --    3.43853   3.58705   3.60835   3.65269   3.80507
 Alpha virt. eigenvalues --    3.90598   3.99101   4.03724   4.79736   5.38376
 Alpha virt. eigenvalues --    5.42630   5.46178   5.48340   5.53527
          Condensed to atoms (all electrons):
 Mulliken charges:
               1
     1  C   -1.785896
     2  H   -0.235032
     3  F   -0.872051
     4  H   -0.400190
     5  C    1.260510
     6  C    0.815505
     7  H    0.060349
     8  H   -0.060473
     9  H   -0.012700
    10  C    0.946640
    11  H   -0.032788
    12  H    0.050660
    13  H    0.028418
    14  N   -0.331191
    15  H   -0.087381
    16  H    0.116846
    17  N   -0.555643
    18  H    0.066215
    19  H    0.028201
 Sum of Mulliken charges =  -1.00000
 Mulliken charges with hydrogens summed into heavy atoms:
               1
     1  C   -2.186086
     3  F   -0.872051
     5  C    1.025478
     6  C    0.802681
    10  C    0.992931
    14  N   -0.301726
    17  N   -0.461228
 Electronic spatial extent (au):  <R**2>=            949.9165
 Charge=             -1.0000 electrons
 Dipole moment (field-independent basis, Debye):
    X=             -3.3832    Y=             -2.5866    Z=             -1.2381  Tot=              4.4350
 NROrb=    269 NOA=    30 NOB=    30 NVA=   239 NVB=   239

 **** Warning!!: The largest alpha MO coefficient is  0.10238848D+03

    12 initial guesses have been made.
 Iteration     1 Dimension    12 NMult     0 NNew     12
 Iteration     2 Dimension    24 NMult    12 NNew     12
 Iteration     3 Dimension    27 NMult    24 NNew      3
 Iteration     4 Dimension    30 NMult    27 NNew      3
 Iteration     5 Dimension    33 NMult    30 NNew      3
 Iteration     6 Dimension    36 NMult    33 NNew      3
 ***********************************************************************
 Stability analysis using <AA,BB:AA,BB> singles matrix:
 ***********************************************************************
 Ground to excited state transition densities written to RWF  633

 Eigenvectors of the stability matrix:
 
 Excited state symmetry could not be determined.
 Eigenvector   1:      Singlet-?Sym  Eigenvalue= 0.1216590  <S**2>=0.000
      30 -> 31         0.51502
      30 -> 34        -0.31285
      30 -> 35         0.22924
      30 -> 39         0.13935
      30 -> 42         0.11071
      30 -> 50         0.10185
 The wavefunction is stable under the perturbations considered.
 The wavefunction is already stable.

 **********************************************************************

            Population analysis using the SCF Density.

 **********************************************************************

 Alpha  occ. eigenvalues --  -26.02006 -15.39050 -15.38614 -11.16670 -11.13056
 Alpha  occ. eigenvalues --  -11.07109 -11.06097  -1.29127  -1.06891  -0.96769
 Alpha  occ. eigenvalues --   -0.89550  -0.78699  -0.71643  -0.58483  -0.52839
 Alpha  occ. eigenvalues --   -0.51623  -0.45386  -0.45299  -0.42781  -0.41299
 Alpha  occ. eigenvalues --   -0.38952  -0.37637  -0.37421  -0.35073  -0.33598
 Alpha  occ. eigenvalues --   -0.32751  -0.31918  -0.25216  -0.23944  -0.09167
 Alpha virt. eigenvalues --    0.13835   0.14024   0.14507   0.15414   0.15803
 Alpha virt. eigenvalues --    0.16332   0.16623   0.16980   0.18763   0.19008
 Alpha virt. eigenvalues --    0.19501   0.21530   0.23833   0.24845   0.26127
 Alpha virt. eigenvalues --    0.26498   0.27657   0.27975   0.28502   0.28980
 Alpha virt. eigenvalues --    0.30116   0.30921   0.31271   0.31772   0.32338
 Alpha virt. eigenvalues --    0.33305   0.33991   0.35070   0.35649   0.36695
 Alpha virt. eigenvalues --    0.37010   0.37735   0.38841   0.40738   0.43807
 Alpha virt. eigenvalues --    0.44366   0.45033   0.45850   0.48648   0.50040
 Alpha virt. eigenvalues --    0.50252   0.50465   0.52558   0.53334   0.53592
 Alpha virt. eigenvalues --    0.54144   0.55691   0.56650   0.57089   0.57661
 Alpha virt. eigenvalues --    0.58109   0.58865   0.59952   0.60288   0.61091
 Alpha virt. eigenvalues --    0.61290   0.62426   0.62587   0.63754   0.65306
 Alpha virt. eigenvalues --    0.65550   0.66975   0.67421   0.68035   0.69132
 Alpha virt. eigenvalues --    0.70530   0.70892   0.72028   0.72653   0.73551
 Alpha virt. eigenvalues --    0.74111   0.74913   0.75647   0.76282   0.76476
 Alpha virt. eigenvalues --    0.78227   0.79217   0.79911   0.80528   0.81856
 Alpha virt. eigenvalues --    0.82086   0.83271   0.83785   0.84854   0.85915
 Alpha virt. eigenvalues --    0.87710   0.87878   0.88409   0.88964   0.90559
 Alpha virt. eigenvalues --    0.91355   0.92163   0.92911   0.93637   0.94803
 Alpha virt. eigenvalues --    0.95621   0.96786   0.97956   0.99140   0.99734
 Alpha virt. eigenvalues --    1.00406   1.01419   1.03612   1.04905   1.06198
 Alpha virt. eigenvalues --    1.07447   1.08815   1.09957   1.10443   1.12752
 Alpha virt. eigenvalues --    1.15129   1.15503   1.17233   1.18953   1.21297
 Alpha virt. eigenvalues --    1.21716   1.26119   1.26685   1.27319   1.28605
 Alpha virt. eigenvalues --    1.29826   1.31522   1.33345   1.34108   1.36437
 Alpha virt. eigenvalues --    1.36532   1.38321   1.39283   1.44375   1.46038
 Alpha virt. eigenvalues --    1.48050   1.51140   1.52798   1.54423   1.58178
 Alpha virt. eigenvalues --    1.62457   1.64319   1.65171   1.66939   1.75847
 Alpha virt. eigenvalues --    1.77336   1.77569   1.79068   1.81166   1.84869
 Alpha virt. eigenvalues --    1.86489   1.88147   1.89922   1.91182   1.92145
 Alpha virt. eigenvalues --    1.95429   1.96335   1.96819   1.99405   1.99900
 Alpha virt. eigenvalues --    2.02015   2.03344   2.05192   2.07534   2.08939
 Alpha virt. eigenvalues --    2.10896   2.11851   2.13883   2.15039   2.17436
 Alpha virt. eigenvalues --    2.17880   2.22112   2.23670   2.25730   2.26950
 Alpha virt. eigenvalues --    2.29057   2.31052   2.31544   2.32952   2.35626
 Alpha virt. eigenvalues --    2.39750   2.42035   2.43313   2.45511   2.47418
 Alpha virt. eigenvalues --    2.50035   2.50967   2.52127   2.54556   2.56259
 Alpha virt. eigenvalues --    2.58187   2.61216   2.61730   2.63660   2.64697
 Alpha virt. eigenvalues --    2.65911   2.67720   2.68428   2.70407   2.71728
 Alpha virt. eigenvalues --    2.74598   2.75223   2.78116   2.79522   2.80671
 Alpha virt. eigenvalues --    2.83521   2.85246   2.86404   2.87706   2.90082
 Alpha virt. eigenvalues --    2.90895   2.93166   2.96814   2.97855   3.00255
 Alpha virt. eigenvalues --    3.01703   3.07465   3.08284   3.09921   3.11036
 Alpha virt. eigenvalues --    3.13026   3.15040   3.16918   3.22057   3.26457
 Alpha virt. eigenvalues --    3.30499   3.33529   3.36990   3.40402   3.41209
 Alpha virt. eigenvalues --    3.43853   3.58705   3.60835   3.65269   3.80507
 Alpha virt. eigenvalues --    3.90598   3.99101   4.03724   4.79736   5.38376
 Alpha virt. eigenvalues --    5.42630   5.46178   5.48340   5.53527
          Condensed to atoms (all electrons):
 Mulliken charges:
               1
     1  C   -1.785896
     2  H   -0.235032
     3  F   -0.872051
     4  H   -0.400190
     5  C    1.260510
     6  C    0.815505
     7  H    0.060349
     8  H   -0.060473
     9  H   -0.012700
    10  C    0.946640
    11  H   -0.032788
    12  H    0.050660
    13  H    0.028418
    14  N   -0.331191
    15  H   -0.087381
    16  H    0.116846
    17  N   -0.555643
    18  H    0.066215
    19  H    0.028201
 Sum of Mulliken charges =  -1.00000
 Mulliken charges with hydrogens summed into heavy atoms:
               1
     1  C   -2.186086
     3  F   -0.872051
     5  C    1.025478
     6  C    0.802681
    10  C    0.992931
    14  N   -0.301726
    17  N   -0.461228
 Electronic spatial extent (au):  <R**2>=            949.9165
 Charge=             -1.0000 electrons
 Dipole moment (field-independent basis, Debye):
    X=             -3.3832    Y=             -2.5866    Z=             -1.2381  Tot=              4.4350
 Unable to Open any file for archive entry.
 1\1\GINC-SE344\Stability\RHF\Aug-CC-pVDZ\C4H12F1N2\OHZDE\09-Apr-2025\0
 \\#t hf aug-cc-pvdz symm=none int=(grid=ultrafine) guess=(read,tcheck)
  stable=(opt,rrhf)\\title\\-1,1\C,0,0.46245047,0.00786705,-0.01259773\
 H,0,1.45837372,1.7062367,-0.81190154\F,0,-1.24239066,-0.05586317,-0.31
 714436\H,0,2.34997086,0.17167467,0.32881916\C,0,0.60666853,1.55707519,
 -0.13887333\C,0,0.86831277,-0.83972004,-1.20721819\H,0,-0.03015761,-1.
 26979062,-1.66207124\H,0,1.39662529,-0.23221533,-1.9466427\H,0,1.54374
 03,-1.63901308,-0.90650753\C,0,0.27190288,-0.69882572,1.32395802\H,0,1
 .21175254,-1.07407127,1.71938647\H,0,-0.16351019,0.0060333,2.03398715\
 H,0,-0.43453998,-1.52096756,1.180802\N,0,0.83852145,2.12395915,1.18397
 118\H,0,1.00176881,3.11578721,1.04513288\H,0,1.707959,1.6873968,1.4872
 3189\N,0,-0.50765505,2.32167762,-0.70997988\H,0,-1.32654495,2.01057596
 ,-0.19889602\H,0,-0.6563282,1.95092313,-1.64304623\\Version=ES64L-G16R
 evC.01\HF=-366.7030987\RMSD=2.683e-09\Dipole=-0.9322959,0.1254195,-0.4
 58875\Quadrupole=-8.404157,1.6451349,6.7590221,0.6237591,-2.1243109,-0
 .583744\PG=Unknown\\@
 The archive entry for this job was punched.


 THE FIRST MORNING OF CREATION WROTE WHAT THE LAST DAWN OF
 RECKONING SHALL READ. -- OMAR KHAYYAM
 Job cpu time:       0 days  0 hours 14 minutes 17.3 seconds.
 Elapsed time:       0 days  0 hours  0 minutes 59.1 seconds.
 File lengths (MBytes):  RWF=    307 Int=      0 D2E=      0 Chk=     10 Scr=      1
 Normal termination of Gaussian 16 at Wed Apr  9 02:52:18 2025.
 Initial command:
 /arc/software/Gaussian/g16.c01/l1.exe "/tmp/slurm/4859749/Gau-2374118.inp" -scrdir="/tmp/slurm/4859749/"
 Entering Link 1 = /arc/software/Gaussian/g16.c01/l1.exe PID=   2374350.
  
 Copyright (c) 1988-2019, Gaussian, Inc.  All Rights Reserved.
  
 This is part of the Gaussian(R) 16 program.  It is based on
 the Gaussian(R) 09 system (copyright 2009, Gaussian, Inc.),
 the Gaussian(R) 03 system (copyright 2003, Gaussian, Inc.),
 the Gaussian(R) 98 system (copyright 1998, Gaussian, Inc.),
 the Gaussian(R) 94 system (copyright 1995, Gaussian, Inc.),
 the Gaussian 92(TM) system (copyright 1992, Gaussian, Inc.),
 the Gaussian 90(TM) system (copyright 1990, Gaussian, Inc.),
 the Gaussian 88(TM) system (copyright 1988, Gaussian, Inc.),
 the Gaussian 86(TM) system (copyright 1986, Carnegie Mellon
 University), and the Gaussian 82(TM) system (copyright 1983,
 Carnegie Mellon University). Gaussian is a federally registered
 trademark of Gaussian, Inc.
  
 This software contains proprietary and confidential information,
 including trade secrets, belonging to Gaussian, Inc.
  
 This software is provided under written license and may be
 used, copied, transmitted, or stored only in accord with that
 written license.
  
 The following legend is applicable only to US Government
 contracts under FAR:
  
                    RESTRICTED RIGHTS LEGEND
  
 Use, reproduction and disclosure by the US Government is
 subject to restrictions as set forth in subparagraphs (a)
 and (c) of the Commercial Computer Software - Restricted
 Rights clause in FAR 52.227-19.
  
 Gaussian, Inc.
 340 Quinnipiac St., Bldg. 40, Wallingford CT 06492
  
  
 ---------------------------------------------------------------
 Warning -- This program may not be used in any manner that
 competes with the business of Gaussian, Inc. or will provide
 assistance to any competitor of Gaussian, Inc.  The licensee
 of this program is prohibited from giving any competitor of
 Gaussian, Inc. access to this program.  By using this program,
 the user acknowledges that Gaussian, Inc. is engaged in the
 business of creating and licensing software in the field of
 computational chemistry and represents and warrants to the
 licensee that it is not a competitor of Gaussian, Inc. and that
 it will not use this program in any manner prohibited above.
 ---------------------------------------------------------------
  

 Cite this work as:
 Gaussian 16, Revision C.01,
 M. J. Frisch, G. W. Trucks, H. B. Schlegel, G. E. Scuseria, 
 M. A. Robb, J. R. Cheeseman, G. Scalmani, V. Barone, 
 G. A. Petersson, H. Nakatsuji, X. Li, M. Caricato, A. V. Marenich, 
 J. Bloino, B. G. Janesko, R. Gomperts, B. Mennucci, H. P. Hratchian, 
 J. V. Ortiz, A. F. Izmaylov, J. L. Sonnenberg, D. Williams-Young, 
 F. Ding, F. Lipparini, F. Egidi, J. Goings, B. Peng, A. Petrone, 
 T. Henderson, D. Ranasinghe, V. G. Zakrzewski, J. Gao, N. Rega, 
 G. Zheng, W. Liang, M. Hada, M. Ehara, K. Toyota, R. Fukuda, 
 J. Hasegawa, M. Ishida, T. Nakajima, Y. Honda, O. Kitao, H. Nakai, 
 T. Vreven, K. Throssell, J. A. Montgomery, Jr., J. E. Peralta, 
 F. Ogliaro, M. J. Bearpark, J. J. Heyd, E. N. Brothers, K. N. Kudin, 
 V. N. Staroverov, T. A. Keith, R. Kobayashi, J. Normand, 
 K. Raghavachari, A. P. Rendell, J. C. Burant, S. S. Iyengar, 
 J. Tomasi, M. Cossi, J. M. Millam, M. Klene, C. Adamo, R. Cammi, 
 J. W. Ochterski, R. L. Martin, K. Morokuma, O. Farkas, 
 J. B. Foresman, and D. J. Fox, Gaussian, Inc., Wallingford CT, 2019.
 
 ******************************************
 Gaussian 16:  ES64L-G16RevC.01  3-Jul-2019
                 9-Apr-2025 
 ******************************************
 %nprocs=16
 Will use up to   16 processors via shared memory.
 %mem=30GB
 %chk=E2SN2_352_mol1.chk
 ----------------------------------------------------------------------
 #t hf aug-cc-pvdz iop(5/13=1,5/36=2,99/5=2) pseudo=read geom=check gue
 ss=(read,tcheck) scf=(maxcycle=1)
 ----------------------------------------------------------------------
 -----
 title
 -----
 Structure from the checkpoint file:  "E2SN2_352_mol1.chk"
 Charge = -1 Multiplicity = 1
 Z-Matrix found in chk file.
 C,0,0.46245047,0.00786705,-0.01259773
 H,0,1.45837372,1.7062367,-0.81190154
 F,0,-1.24239066,-0.05586317,-0.31714436
 H,0,2.34997086,0.17167467,0.32881916
 C,0,0.60666853,1.55707519,-0.13887333
 C,0,0.86831277,-0.83972004,-1.20721819
 H,0,-0.03015761,-1.26979062,-1.66207124
 H,0,1.39662529,-0.23221533,-1.9466427
 H,0,1.5437403,-1.63901308,-0.90650753
 C,0,0.27190288,-0.69882572,1.32395802
 H,0,1.21175254,-1.07407127,1.71938647
 H,0,-0.16351019,0.0060333,2.03398715
 H,0,-0.43453998,-1.52096756,1.180802
 N,0,0.83852145,2.12395915,1.18397118
 H,0,1.00176881,3.11578721,1.04513288
 H,0,1.707959,1.6873968,1.48723189
 N,0,-0.50765505,2.32167762,-0.70997988
 H,0,-1.32654495,2.01057596,-0.19889602
 H,0,-0.6563282,1.95092313,-1.64304623
 Recover connectivity data from disk.
                    Distance matrix (angstroms):
                    1          2          3          4          5
     1  C    0.000000
     2  H    2.124902   0.000000
     3  F    1.733001   3.262500   0.000000
     4  H    1.925132   2.109756   3.657062   0.000000
     5  C    1.561022   1.095727   2.460157   2.275340   0.000000
     6  C    1.519949   2.643169   2.421101   2.361703   2.637128
     7  H    2.143790   3.434422   2.179898   3.421473   3.273660
     8  H    2.161215   2.247008   3.106569   2.499944   2.663386
     9  H    2.163441   3.347676   3.258257   2.335515   3.417945
    10  C    1.523845   3.428401   2.323726   2.463014   2.709434
    11  H    2.175273   3.768070   3.347689   2.186573   3.277528
    12  H    2.140173   3.690567   2.587592   3.041812   2.778530
    13  H    2.136850   4.238967   2.245662   3.368147   3.507136
    14  N    2.459889   2.131248   3.366774   2.612887   1.457749
    15  H    3.326985   2.375689   4.117210   3.316407   1.996887
    16  H    2.573247   2.312718   3.872892   2.012837   1.968259
    17  N    2.604067   2.062626   2.519297   3.723928   1.467139
    18  H    2.691850   2.867781   2.071530   4.144491   1.986600
    19  H    2.772273   2.285309   2.475616   4.011460   2.003201
                    6          7          8          9         10
     6  C    0.000000
     7  H    1.095035   0.000000
     8  H    1.093126   1.786967   0.000000
     9  H    1.088806   1.784476   1.755735   0.000000
    10  C    2.604306   3.055096   3.489922   2.734319   0.000000
    11  H    2.955992   3.607617   3.765988   2.706417   1.086504
    12  H    3.505049   3.912334   4.282079   3.777220   1.091124
    13  H    2.804312   2.882454   3.846422   2.878261   1.093377
    14  N    3.808158   4.513546   3.957750   4.362040   2.882493
    15  H    4.553782   5.256151   4.507300   5.168245   3.893805
    16  H    3.788322   4.656621   3.946306   4.101458   2.789798
    17  N    3.483528   3.746081   3.417307   4.464742   3.723984
    18  H    3.736081   3.818679   3.937053   4.696675   3.494993
    19  H    3.209699   3.281074   3.012123   4.274393   4.084837
                   11         12         13         14         15
    11  H    0.000000
    12  H    1.776780   0.000000
    13  H    1.788874   1.770060   0.000000
    14  N    3.263950   2.492429   3.860853   0.000000
    15  H    4.248956   3.465008   4.856015   1.014716   0.000000
    16  H    2.815284   2.574553   3.870117   1.019056   1.653619
    17  N    4.515451   3.606938   4.283261   2.332024   2.447323
    18  H    4.431457   3.218168   3.895002   2.571515   2.861843
    19  H    4.893493   4.188799   4.480774   3.202584   3.366378
                   16         17         18         19
    16  H    0.000000
    17  N    3.184179   0.000000
    18  H    3.486501   1.014185   0.000000
    19  H    3.931659   1.014976   1.593210   0.000000
 Framework group  C1[X(C4H12FN2)]
 Deg. of freedom    51
                         Standard orientation:                         
 ---------------------------------------------------------------------
 Center     Atomic      Atomic             Coordinates (Angstroms)
 Number     Number       Type             X           Y           Z
 ---------------------------------------------------------------------
      1          6           0       -0.593655    0.182874    0.185821
      2          1           0        0.985497   -0.150111    1.568070
      3          9           0       -0.708609   -0.980354   -1.093624
      4          1           0       -0.373433    1.463242    1.606488
      5          6           0        0.924602   -0.028454    0.480821
      6          6           0       -1.594084   -0.495894    1.107050
      7          1           0       -2.087646   -1.307721    0.562591
      8          1           0       -1.090163   -0.901110    1.988406
      9          1           0       -2.340731    0.212906    1.461478
     10          6           0       -1.112215    1.279928   -0.735955
     11          1           0       -1.424274    2.159746   -0.180050
     12          1           0       -0.319566    1.555152   -1.433459
     13          1           0       -1.950422    0.877979   -1.311557
     14          7           0        1.668306    1.133436    0.009706
     15          1           0        2.632819    0.987849    0.289291
     16          1           0        1.282491    1.905715    0.551193
     17          7           0        1.597309   -1.194836   -0.101858
     18          1           0        1.354064   -1.171560   -1.086166
     19          1           0        1.101650   -2.009827    0.244967
 ---------------------------------------------------------------------
 Rotational constants (GHZ):           3.0500532           2.1243947           1.8305974
 ======================================================================================================
                                       Pseudopotential Parameters
 ======================================================================================================
  Center     Atomic      Valence      Angular      Power
  Number     Number     Electrons     Momentum     of R      Exponent        Coefficient   SO-Coeffient
 ======================================================================================================
    1          6            6
                                      G and up 
                                                     0        0.0000010       -0.00011185    0.00000000
                                                     2        0.1200000       -0.02301220    0.00000000
                                                     2        0.1400000        0.13317600    0.00000000
                                                     2        0.1600000       -0.19690668    0.00000000
                                                     2        0.2200000        0.23163694    0.00000000
                                                     2        0.3000000       -0.36920489    0.00000000
                                                     2        0.4000000        0.36389709    0.00000000
                                                     2        0.7000000       -0.38862160    0.00000000
                                                     2        1.3000000        0.80803421    0.00000000
                                      S - G
                                                     0        0.0000010        0.00312304    0.00000000
                                                     2        0.1200000       -0.00632892    0.00000000
                                                     2        0.2200000       -0.03780897    0.00000000
                                                     2        0.4000000        0.26269560    0.00000000
                                                     2        0.9000000       -0.28209514    0.00000000
                                                     2        1.5000000       -0.72686737    0.00000000
                                      P - G
                                                     0        0.0000010       -0.01465594    0.00000000
                                                     2        0.1200000        0.07908409    0.00000000
                                                     2        0.1800000       -0.30615861    0.00000000
                                                     2        0.2600000        0.41506950    0.00000000
                                                     2        0.5000000       -0.36252345    0.00000000
                                                     2        0.9000000        0.15124193    0.00000000
                                                     2        3.0000000       -0.80425677    0.00000000
                                      D - G
                                                     0        0.0000010        0.01149631    0.00000000
                                                     2        0.1200000       -0.04713561    0.00000000
                                                     2        0.1600000        0.10865096    0.00000000
                                                     2        0.2800000       -0.15816701    0.00000000
                                                     2        0.7000000        0.65478804    0.00000000
                                                     2        1.3000000       -1.73816624    0.00000000
                                      F - G
                                                     0        0.0000010        0.00481868    0.00000000
                                                     2        0.1200000       -0.04746842    0.00000000
                                                     2        0.1600000        0.09327889    0.00000000
                                                     2        0.4000000       -0.19693326    0.00000000
                                                     2        0.9000000        0.34938253    0.00000000
    2          1            1
                                      F and up 
                                                     0        0.0000010       -0.00000699    0.00000000
                                                     2        0.1200000        0.00123686    0.00000000
                                                     2        0.1800000       -0.00752022    0.00000000
                                                     2        0.2600000        0.02503380    0.00000000
                                                     2        0.4000000       -0.08702670    0.00000000
                                                     2        0.6000000        0.30134159    0.00000000
                                                     2        0.8000000       -0.50204959    0.00000000
                                                     2        1.2000000        0.52208372    0.00000000
                                      S - F
                                                     0        0.0000010       -0.01618346    0.00000000
                                                     2        0.1200000       -0.07880581    0.00000000
                                                     2        0.1600000        0.32040539    0.00000000
                                                     2        0.2400000       -0.47500956    0.00000000
                                                     2        0.5000000        0.54013668    0.00000000
                                                     2        1.5000000       -1.40434292    0.00000000
                                                     2        3.0000000        1.46283806    0.00000000
                                      P - F
                                                     0        0.0000010        0.00612970    0.00000000
                                                     2        0.1200000        0.02254406    0.00000000
                                                     2        0.1800000       -0.13874529    0.00000000
                                                     2        0.3000000        0.38299049    0.00000000
                                                     2        0.5000000       -0.57923512    0.00000000
                                                     2        1.0000000        0.63021625    0.00000000
                                                     2        2.0000000       -0.79201034    0.00000000
                                      D - F
                                                     0        0.0000010       -0.00296226    0.00000000
                                                     2        0.1200000       -0.00547344    0.00000000
                                                     2        0.1400000        0.01837884    0.00000000
                                                     2        0.2400000       -0.05565704    0.00000000
                                                     2        0.4000000        0.15376597    0.00000000
                                                     2        0.8000000       -0.32464795    0.00000000
    3          9            9
                                      G and up 
                                                     0        0.0000010        0.00013061    0.00000000
                                                     2        0.1200000        0.06713281    0.00000000
                                                     2        0.1400000       -0.24167382    0.00000000
                                                     2        0.1800000        0.63223557    0.00000000
                                                     2        0.2200000       -0.82578269    0.00000000
                                                     2        0.3000000        0.62544157    0.00000000
                                                     2        0.5000000       -0.74972011    0.00000000
                                                     2        0.8000000        1.07821461    0.00000000
                                                     2        2.5000000       -1.10703579    0.00000000
                                      S - G
                                                     0        0.0000010        0.01584301    0.00000000
                                                     2        0.1200000        0.08016155    0.00000000
                                                     2        0.1800000       -0.34633115    0.00000000
                                                     2        0.3000000        0.65132194    0.00000000
                                                     2        2.5000000       -2.36634383    0.00000000
                                      P - G
                                                     0        0.0000010        0.01590244    0.00000000
                                                     2        0.1200000       -0.11156199    0.00000000
                                                     2        0.1600000        0.22434929    0.00000000
                                                     2        0.3000000       -0.27751209    0.00000000
                                      D - G
                                                     0        0.0000010       -0.03628923    0.00000000
                                                     2        0.1200000        0.04690238    0.00000000
                                                     2        0.2600000       -0.08720270    0.00000000
                                      F - G
                                                     0        0.0000010        0.01127523    0.00000000
                                                     2        0.1400000       -0.04328550    0.00000000
                                                     2        0.2400000        0.03116441    0.00000000
                                                     2        0.4000000        0.20516616    0.00000000
    4          1            1
                                      F and up 
                                                     0        0.0000010       -0.00000699    0.00000000
                                                     2        0.1200000        0.00123686    0.00000000
                                                     2        0.1800000       -0.00752022    0.00000000
                                                     2        0.2600000        0.02503380    0.00000000
                                                     2        0.4000000       -0.08702670    0.00000000
                                                     2        0.6000000        0.30134159    0.00000000
                                                     2        0.8000000       -0.50204959    0.00000000
                                                     2        1.2000000        0.52208372    0.00000000
                                      S - F
                                                     0        0.0000010       -0.01618346    0.00000000
                                                     2        0.1200000       -0.07880581    0.00000000
                                                     2        0.1600000        0.32040539    0.00000000
                                                     2        0.2400000       -0.47500956    0.00000000
                                                     2        0.5000000        0.54013668    0.00000000
                                                     2        1.5000000       -1.40434292    0.00000000
                                                     2        3.0000000        1.46283806    0.00000000
                                      P - F
                                                     0        0.0000010        0.00612970    0.00000000
                                                     2        0.1200000        0.02254406    0.00000000
                                                     2        0.1800000       -0.13874529    0.00000000
                                                     2        0.3000000        0.38299049    0.00000000
                                                     2        0.5000000       -0.57923512    0.00000000
                                                     2        1.0000000        0.63021625    0.00000000
                                                     2        2.0000000       -0.79201034    0.00000000
                                      D - F
                                                     0        0.0000010       -0.00296226    0.00000000
                                                     2        0.1200000       -0.00547344    0.00000000
                                                     2        0.1400000        0.01837884    0.00000000
                                                     2        0.2400000       -0.05565704    0.00000000
                                                     2        0.4000000        0.15376597    0.00000000
                                                     2        0.8000000       -0.32464795    0.00000000
    5          6            6
                                      G and up 
                                                     0        0.0000010       -0.00011185    0.00000000
                                                     2        0.1200000       -0.02301220    0.00000000
                                                     2        0.1400000        0.13317600    0.00000000
                                                     2        0.1600000       -0.19690668    0.00000000
                                                     2        0.2200000        0.23163694    0.00000000
                                                     2        0.3000000       -0.36920489    0.00000000
                                                     2        0.4000000        0.36389709    0.00000000
                                                     2        0.7000000       -0.38862160    0.00000000
                                                     2        1.3000000        0.80803421    0.00000000
                                      S - G
                                                     0        0.0000010        0.00312304    0.00000000
                                                     2        0.1200000       -0.00632892    0.00000000
                                                     2        0.2200000       -0.03780897    0.00000000
                                                     2        0.4000000        0.26269560    0.00000000
                                                     2        0.9000000       -0.28209514    0.00000000
                                                     2        1.5000000       -0.72686737    0.00000000
                                      P - G
                                                     0        0.0000010       -0.01465594    0.00000000
                                                     2        0.1200000        0.07908409    0.00000000
                                                     2        0.1800000       -0.30615861    0.00000000
                                                     2        0.2600000        0.41506950    0.00000000
                                                     2        0.5000000       -0.36252345    0.00000000
                                                     2        0.9000000        0.15124193    0.00000000
                                                     2        3.0000000       -0.80425677    0.00000000
                                      D - G
                                                     0        0.0000010        0.01149631    0.00000000
                                                     2        0.1200000       -0.04713561    0.00000000
                                                     2        0.1600000        0.10865096    0.00000000
                                                     2        0.2800000       -0.15816701    0.00000000
                                                     2        0.7000000        0.65478804    0.00000000
                                                     2        1.3000000       -1.73816624    0.00000000
                                      F - G
                                                     0        0.0000010        0.00481868    0.00000000
                                                     2        0.1200000       -0.04746842    0.00000000
                                                     2        0.1600000        0.09327889    0.00000000
                                                     2        0.4000000       -0.19693326    0.00000000
                                                     2        0.9000000        0.34938253    0.00000000
    6          6            6
                                      G and up 
                                                     0        0.0000010       -0.00011185    0.00000000
                                                     2        0.1200000       -0.02301220    0.00000000
                                                     2        0.1400000        0.13317600    0.00000000
                                                     2        0.1600000       -0.19690668    0.00000000
                                                     2        0.2200000        0.23163694    0.00000000
                                                     2        0.3000000       -0.36920489    0.00000000
                                                     2        0.4000000        0.36389709    0.00000000
                                                     2        0.7000000       -0.38862160    0.00000000
                                                     2        1.3000000        0.80803421    0.00000000
                                      S - G
                                                     0        0.0000010        0.00312304    0.00000000
                                                     2        0.1200000       -0.00632892    0.00000000
                                                     2        0.2200000       -0.03780897    0.00000000
                                                     2        0.4000000        0.26269560    0.00000000
                                                     2        0.9000000       -0.28209514    0.00000000
                                                     2        1.5000000       -0.72686737    0.00000000
                                      P - G
                                                     0        0.0000010       -0.01465594    0.00000000
                                                     2        0.1200000        0.07908409    0.00000000
                                                     2        0.1800000       -0.30615861    0.00000000
                                                     2        0.2600000        0.41506950    0.00000000
                                                     2        0.5000000       -0.36252345    0.00000000
                                                     2        0.9000000        0.15124193    0.00000000
                                                     2        3.0000000       -0.80425677    0.00000000
                                      D - G
                                                     0        0.0000010        0.01149631    0.00000000
                                                     2        0.1200000       -0.04713561    0.00000000
                                                     2        0.1600000        0.10865096    0.00000000
                                                     2        0.2800000       -0.15816701    0.00000000
                                                     2        0.7000000        0.65478804    0.00000000
                                                     2        1.3000000       -1.73816624    0.00000000
                                      F - G
                                                     0        0.0000010        0.00481868    0.00000000
                                                     2        0.1200000       -0.04746842    0.00000000
                                                     2        0.1600000        0.09327889    0.00000000
                                                     2        0.4000000       -0.19693326    0.00000000
                                                     2        0.9000000        0.34938253    0.00000000
    7          1            1
                                      F and up 
                                                     0        0.0000010       -0.00000699    0.00000000
                                                     2        0.1200000        0.00123686    0.00000000
                                                     2        0.1800000       -0.00752022    0.00000000
                                                     2        0.2600000        0.02503380    0.00000000
                                                     2        0.4000000       -0.08702670    0.00000000
                                                     2        0.6000000        0.30134159    0.00000000
                                                     2        0.8000000       -0.50204959    0.00000000
                                                     2        1.2000000        0.52208372    0.00000000
                                      S - F
                                                     0        0.0000010       -0.01618346    0.00000000
                                                     2        0.1200000       -0.07880581    0.00000000
                                                     2        0.1600000        0.32040539    0.00000000
                                                     2        0.2400000       -0.47500956    0.00000000
                                                     2        0.5000000        0.54013668    0.00000000
                                                     2        1.5000000       -1.40434292    0.00000000
                                                     2        3.0000000        1.46283806    0.00000000
                                      P - F
                                                     0        0.0000010        0.00612970    0.00000000
                                                     2        0.1200000        0.02254406    0.00000000
                                                     2        0.1800000       -0.13874529    0.00000000
                                                     2        0.3000000        0.38299049    0.00000000
                                                     2        0.5000000       -0.57923512    0.00000000
                                                     2        1.0000000        0.63021625    0.00000000
                                                     2        2.0000000       -0.79201034    0.00000000
                                      D - F
                                                     0        0.0000010       -0.00296226    0.00000000
                                                     2        0.1200000       -0.00547344    0.00000000
                                                     2        0.1400000        0.01837884    0.00000000
                                                     2        0.2400000       -0.05565704    0.00000000
                                                     2        0.4000000        0.15376597    0.00000000
                                                     2        0.8000000       -0.32464795    0.00000000
    8          1            1
                                      F and up 
                                                     0        0.0000010       -0.00000699    0.00000000
                                                     2        0.1200000        0.00123686    0.00000000
                                                     2        0.1800000       -0.00752022    0.00000000
                                                     2        0.2600000        0.02503380    0.00000000
                                                     2        0.4000000       -0.08702670    0.00000000
                                                     2        0.6000000        0.30134159    0.00000000
                                                     2        0.8000000       -0.50204959    0.00000000
                                                     2        1.2000000        0.52208372    0.00000000
                                      S - F
                                                     0        0.0000010       -0.01618346    0.00000000
                                                     2        0.1200000       -0.07880581    0.00000000
                                                     2        0.1600000        0.32040539    0.00000000
                                                     2        0.2400000       -0.47500956    0.00000000
                                                     2        0.5000000        0.54013668    0.00000000
                                                     2        1.5000000       -1.40434292    0.00000000
                                                     2        3.0000000        1.46283806    0.00000000
                                      P - F
                                                     0        0.0000010        0.00612970    0.00000000
                                                     2        0.1200000        0.02254406    0.00000000
                                                     2        0.1800000       -0.13874529    0.00000000
                                                     2        0.3000000        0.38299049    0.00000000
                                                     2        0.5000000       -0.57923512    0.00000000
                                                     2        1.0000000        0.63021625    0.00000000
                                                     2        2.0000000       -0.79201034    0.00000000
                                      D - F
                                                     0        0.0000010       -0.00296226    0.00000000
                                                     2        0.1200000       -0.00547344    0.00000000
                                                     2        0.1400000        0.01837884    0.00000000
                                                     2        0.2400000       -0.05565704    0.00000000
                                                     2        0.4000000        0.15376597    0.00000000
                                                     2        0.8000000       -0.32464795    0.00000000
    9          1            1
                                      F and up 
                                                     0        0.0000010       -0.00000699    0.00000000
                                                     2        0.1200000        0.00123686    0.00000000
                                                     2        0.1800000       -0.00752022    0.00000000
                                                     2        0.2600000        0.02503380    0.00000000
                                                     2        0.4000000       -0.08702670    0.00000000
                                                     2        0.6000000        0.30134159    0.00000000
                                                     2        0.8000000       -0.50204959    0.00000000
                                                     2        1.2000000        0.52208372    0.00000000
                                      S - F
                                                     0        0.0000010       -0.01618346    0.00000000
                                                     2        0.1200000       -0.07880581    0.00000000
                                                     2        0.1600000        0.32040539    0.00000000
                                                     2        0.2400000       -0.47500956    0.00000000
                                                     2        0.5000000        0.54013668    0.00000000
                                                     2        1.5000000       -1.40434292    0.00000000
                                                     2        3.0000000        1.46283806    0.00000000
                                      P - F
                                                     0        0.0000010        0.00612970    0.00000000
                                                     2        0.1200000        0.02254406    0.00000000
                                                     2        0.1800000       -0.13874529    0.00000000
                                                     2        0.3000000        0.38299049    0.00000000
                                                     2        0.5000000       -0.57923512    0.00000000
                                                     2        1.0000000        0.63021625    0.00000000
                                                     2        2.0000000       -0.79201034    0.00000000
                                      D - F
                                                     0        0.0000010       -0.00296226    0.00000000
                                                     2        0.1200000       -0.00547344    0.00000000
                                                     2        0.1400000        0.01837884    0.00000000
                                                     2        0.2400000       -0.05565704    0.00000000
                                                     2        0.4000000        0.15376597    0.00000000
                                                     2        0.8000000       -0.32464795    0.00000000
   10          6            6
                                      G and up 
                                                     0        0.0000010       -0.00011185    0.00000000
                                                     2        0.1200000       -0.02301220    0.00000000
                                                     2        0.1400000        0.13317600    0.00000000
                                                     2        0.1600000       -0.19690668    0.00000000
                                                     2        0.2200000        0.23163694    0.00000000
                                                     2        0.3000000       -0.36920489    0.00000000
                                                     2        0.4000000        0.36389709    0.00000000
                                                     2        0.7000000       -0.38862160    0.00000000
                                                     2        1.3000000        0.80803421    0.00000000
                                      S - G
                                                     0        0.0000010        0.00312304    0.00000000
                                                     2        0.1200000       -0.00632892    0.00000000
                                                     2        0.2200000       -0.03780897    0.00000000
                                                     2        0.4000000        0.26269560    0.00000000
                                                     2        0.9000000       -0.28209514    0.00000000
                                                     2        1.5000000       -0.72686737    0.00000000
                                      P - G
                                                     0        0.0000010       -0.01465594    0.00000000
                                                     2        0.1200000        0.07908409    0.00000000
                                                     2        0.1800000       -0.30615861    0.00000000
                                                     2        0.2600000        0.41506950    0.00000000
                                                     2        0.5000000       -0.36252345    0.00000000
                                                     2        0.9000000        0.15124193    0.00000000
                                                     2        3.0000000       -0.80425677    0.00000000
                                      D - G
                                                     0        0.0000010        0.01149631    0.00000000
                                                     2        0.1200000       -0.04713561    0.00000000
                                                     2        0.1600000        0.10865096    0.00000000
                                                     2        0.2800000       -0.15816701    0.00000000
                                                     2        0.7000000        0.65478804    0.00000000
                                                     2        1.3000000       -1.73816624    0.00000000
                                      F - G
                                                     0        0.0000010        0.00481868    0.00000000
                                                     2        0.1200000       -0.04746842    0.00000000
                                                     2        0.1600000        0.09327889    0.00000000
                                                     2        0.4000000       -0.19693326    0.00000000
                                                     2        0.9000000        0.34938253    0.00000000
   11          1            1
                                      F and up 
                                                     0        0.0000010       -0.00000699    0.00000000
                                                     2        0.1200000        0.00123686    0.00000000
                                                     2        0.1800000       -0.00752022    0.00000000
                                                     2        0.2600000        0.02503380    0.00000000
                                                     2        0.4000000       -0.08702670    0.00000000
                                                     2        0.6000000        0.30134159    0.00000000
                                                     2        0.8000000       -0.50204959    0.00000000
                                                     2        1.2000000        0.52208372    0.00000000
                                      S - F
                                                     0        0.0000010       -0.01618346    0.00000000
                                                     2        0.1200000       -0.07880581    0.00000000
                                                     2        0.1600000        0.32040539    0.00000000
                                                     2        0.2400000       -0.47500956    0.00000000
                                                     2        0.5000000        0.54013668    0.00000000
                                                     2        1.5000000       -1.40434292    0.00000000
                                                     2        3.0000000        1.46283806    0.00000000
                                      P - F
                                                     0        0.0000010        0.00612970    0.00000000
                                                     2        0.1200000        0.02254406    0.00000000
                                                     2        0.1800000       -0.13874529    0.00000000
                                                     2        0.3000000        0.38299049    0.00000000
                                                     2        0.5000000       -0.57923512    0.00000000
                                                     2        1.0000000        0.63021625    0.00000000
                                                     2        2.0000000       -0.79201034    0.00000000
                                      D - F
                                                     0        0.0000010       -0.00296226    0.00000000
                                                     2        0.1200000       -0.00547344    0.00000000
                                                     2        0.1400000        0.01837884    0.00000000
                                                     2        0.2400000       -0.05565704    0.00000000
                                                     2        0.4000000        0.15376597    0.00000000
                                                     2        0.8000000       -0.32464795    0.00000000
   12          1            1
                                      F and up 
                                                     0        0.0000010       -0.00000699    0.00000000
                                                     2        0.1200000        0.00123686    0.00000000
                                                     2        0.1800000       -0.00752022    0.00000000
                                                     2        0.2600000        0.02503380    0.00000000
                                                     2        0.4000000       -0.08702670    0.00000000
                                                     2        0.6000000        0.30134159    0.00000000
                                                     2        0.8000000       -0.50204959    0.00000000
                                                     2        1.2000000        0.52208372    0.00000000
                                      S - F
                                                     0        0.0000010       -0.01618346    0.00000000
                                                     2        0.1200000       -0.07880581    0.00000000
                                                     2        0.1600000        0.32040539    0.00000000
                                                     2        0.2400000       -0.47500956    0.00000000
                                                     2        0.5000000        0.54013668    0.00000000
                                                     2        1.5000000       -1.40434292    0.00000000
                                                     2        3.0000000        1.46283806    0.00000000
                                      P - F
                                                     0        0.0000010        0.00612970    0.00000000
                                                     2        0.1200000        0.02254406    0.00000000
                                                     2        0.1800000       -0.13874529    0.00000000
                                                     2        0.3000000        0.38299049    0.00000000
                                                     2        0.5000000       -0.57923512    0.00000000
                                                     2        1.0000000        0.63021625    0.00000000
                                                     2        2.0000000       -0.79201034    0.00000000
                                      D - F
                                                     0        0.0000010       -0.00296226    0.00000000
                                                     2        0.1200000       -0.00547344    0.00000000
                                                     2        0.1400000        0.01837884    0.00000000
                                                     2        0.2400000       -0.05565704    0.00000000
                                                     2        0.4000000        0.15376597    0.00000000
                                                     2        0.8000000       -0.32464795    0.00000000
   13          1            1
                                      F and up 
                                                     0        0.0000010       -0.00000699    0.00000000
                                                     2        0.1200000        0.00123686    0.00000000
                                                     2        0.1800000       -0.00752022    0.00000000
                                                     2        0.2600000        0.02503380    0.00000000
                                                     2        0.4000000       -0.08702670    0.00000000
                                                     2        0.6000000        0.30134159    0.00000000
                                                     2        0.8000000       -0.50204959    0.00000000
                                                     2        1.2000000        0.52208372    0.00000000
                                      S - F
                                                     0        0.0000010       -0.01618346    0.00000000
                                                     2        0.1200000       -0.07880581    0.00000000
                                                     2        0.1600000        0.32040539    0.00000000
                                                     2        0.2400000       -0.47500956    0.00000000
                                                     2        0.5000000        0.54013668    0.00000000
                                                     2        1.5000000       -1.40434292    0.00000000
                                                     2        3.0000000        1.46283806    0.00000000
                                      P - F
                                                     0        0.0000010        0.00612970    0.00000000
                                                     2        0.1200000        0.02254406    0.00000000
                                                     2        0.1800000       -0.13874529    0.00000000
                                                     2        0.3000000        0.38299049    0.00000000
                                                     2        0.5000000       -0.57923512    0.00000000
                                                     2        1.0000000        0.63021625    0.00000000
                                                     2        2.0000000       -0.79201034    0.00000000
                                      D - F
                                                     0        0.0000010       -0.00296226    0.00000000
                                                     2        0.1200000       -0.00547344    0.00000000
                                                     2        0.1400000        0.01837884    0.00000000
                                                     2        0.2400000       -0.05565704    0.00000000
                                                     2        0.4000000        0.15376597    0.00000000
                                                     2        0.8000000       -0.32464795    0.00000000
   14          7            7
                                      G and up 
                                                     0        0.0000010       -0.00000022    0.00000000
                                                     2        0.1200000       -0.00992020    0.00000000
                                                     2        0.1400000        0.02578711    0.00000000
                                                     2        0.2200000       -0.10543517    0.00000000
                                                     2        0.3000000        0.23013665    0.00000000
                                                     2        0.5000000       -0.60834094    0.00000000
                                                     2        0.8000000        1.81436815    0.00000000
                                                     2        1.2000000       -3.87539738    0.00000000
                                                     2        2.0000000        2.94656640    0.00000000
                                      S - G
                                                     0        0.0000010       -0.00223566    0.00000000
                                                     2        0.1200000        0.45247937    0.00000000
                                                     2        0.1600000       -0.78978304    0.00000000
                                                     2        0.4000000        0.84956595    0.00000000
                                                     2        3.0000000       -0.75910174    0.00000000
                                      P - G
                                                     0        0.0000010       -0.25576737    0.00000000
                                                     2        0.1200000       -0.19992277    0.00000000
                                                     2        0.1600000        0.88518512    0.00000000
                                                     2        0.2400000       -1.33293917    0.00000000
                                                     2        0.4000000        1.33451776    0.00000000
                                                     2        0.9000000       -0.55709210    0.00000000
                                                     2        2.5000000        2.48506502    0.00000000
                                      D - G
                                                     0        0.0000010        0.26143746    0.00000000
                                                     2        0.1200000       -0.04492212    0.00000000
                                                     2        0.1400000       -0.18274021    0.00000000
                                                     2        0.2400000        0.53490004    0.00000000
                                                     2        0.4000000       -0.74136473    0.00000000
                                                     2        1.3000000        1.71401021    0.00000000
                                      F - G
                                                     0        0.0000010       -0.07169988    0.00000000
                                                     2        0.1200000        0.04480029    0.00000000
                                                     2        0.2600000       -0.08050831    0.00000000
                                                     2        0.5000000        0.31290809    0.00000000
                                                     2        1.0000000       -0.45253098    0.00000000
   15          1            1
                                      F and up 
                                                     0        0.0000010       -0.00000699    0.00000000
                                                     2        0.1200000        0.00123686    0.00000000
                                                     2        0.1800000       -0.00752022    0.00000000
                                                     2        0.2600000        0.02503380    0.00000000
[...]
                                                     2        2.0000000       -0.79201034    0.00000000
                                      D - F
                                                     0        0.0000010       -0.00296226    0.00000000
                                                     2        0.1200000       -0.00547344    0.00000000
                                                     2        0.1400000        0.01837884    0.00000000
                                                     2        0.2400000       -0.05565704    0.00000000
                                                     2        0.4000000        0.15376597    0.00000000
                                                     2        0.8000000       -0.32464795    0.00000000
   17          7            7
                                      G and up 
                                                     0        0.0000010       -0.00000022    0.00000000
                                                     2        0.1200000       -0.00992020    0.00000000
                                                     2        0.1400000        0.02578711    0.00000000
                                                     2        0.2200000       -0.10543517    0.00000000
                                                     2        0.3000000        0.23013665    0.00000000
                                                     2        0.5000000       -0.60834094    0.00000000
                                                     2        0.8000000        1.81436815    0.00000000
                                                     2        1.2000000       -3.87539738    0.00000000
                                                     2        2.0000000        2.94656640    0.00000000
                                      S - G
                                                     0        0.0000010       -0.00223566    0.00000000
                                                     2        0.1200000        0.45247937    0.00000000
                                                     2        0.1600000       -0.78978304    0.00000000
                                                     2        0.4000000        0.84956595    0.00000000
                                                     2        3.0000000       -0.75910174    0.00000000
                                      P - G
                                                     0        0.0000010       -0.25576737    0.00000000
                                                     2        0.1200000       -0.19992277    0.00000000
                                                     2        0.1600000        0.88518512    0.00000000
                                                     2        0.2400000       -1.33293917    0.00000000
                                                     2        0.4000000        1.33451776    0.00000000
                                                     2        0.9000000       -0.55709210    0.00000000
                                                     2        2.5000000        2.48506502    0.00000000
                                      D - G
                                                     0        0.0000010        0.26143746    0.00000000
                                                     2        0.1200000       -0.04492212    0.00000000
                                                     2        0.1400000       -0.18274021    0.00000000
                                                     2        0.2400000        0.53490004    0.00000000
                                                     2        0.4000000       -0.74136473    0.00000000
                                                     2        1.3000000        1.71401021    0.00000000
                                      F - G
                                                     0        0.0000010       -0.07169988    0.00000000
                                                     2        0.1200000        0.04480029    0.00000000
                                                     2        0.2600000       -0.08050831    0.00000000
                                                     2        0.5000000        0.31290809    0.00000000
                                                     2        1.0000000       -0.45253098    0.00000000
   18          1            1
                                      F and up 
                                                     0        0.0000010       -0.00000699    0.00000000
                                                     2        0.1200000        0.00123686    0.00000000
                                                     2        0.1800000       -0.00752022    0.00000000
                                                     2        0.2600000        0.02503380    0.00000000
                                                     2        0.4000000       -0.08702670    0.00000000
                                                     2        0.6000000        0.30134159    0.00000000
                                                     2        0.8000000       -0.50204959    0.00000000
                                                     2        1.2000000        0.52208372    0.00000000
                                      S - F
                                                     0        0.0000010       -0.01618346    0.00000000
                                                     2        0.1200000       -0.07880581    0.00000000
                                                     2        0.1600000        0.32040539    0.00000000
                                                     2        0.2400000       -0.47500956    0.00000000
                                                     2        0.5000000        0.54013668    0.00000000
                                                     2        1.5000000       -1.40434292    0.00000000
                                                     2        3.0000000        1.46283806    0.00000000
                                      P - F
                                                     0        0.0000010        0.00612970    0.00000000
                                                     2        0.1200000        0.02254406    0.00000000
                                                     2        0.1800000       -0.13874529    0.00000000
                                                     2        0.3000000        0.38299049    0.00000000
                                                     2        0.5000000       -0.57923512    0.00000000
                                                     2        1.0000000        0.63021625    0.00000000
                                                     2        2.0000000       -0.79201034    0.00000000
                                      D - F
                                                     0        0.0000010       -0.00296226    0.00000000
                                                     2        0.1200000       -0.00547344    0.00000000
                                                     2        0.1400000        0.01837884    0.00000000
                                                     2        0.2400000       -0.05565704    0.00000000
                                                     2        0.4000000        0.15376597    0.00000000
                                                     2        0.8000000       -0.32464795    0.00000000
   19          1            1
                                      F and up 
                                                     0        0.0000010       -0.00000699    0.00000000
                                                     2        0.1200000        0.00123686    0.00000000
                                                     2        0.1800000       -0.00752022    0.00000000
                                                     2        0.2600000        0.02503380    0.00000000
                                                     2        0.4000000       -0.08702670    0.00000000
                                                     2        0.6000000        0.30134159    0.00000000
                                                     2        0.8000000       -0.50204959    0.00000000
                                                     2        1.2000000        0.52208372    0.00000000
                                      S - F
                                                     0        0.0000010       -0.01618346    0.00000000
                                                     2        0.1200000       -0.07880581    0.00000000
                                                     2        0.1600000        0.32040539    0.00000000
                                                     2        0.2400000       -0.47500956    0.00000000
                                                     2        0.5000000        0.54013668    0.00000000
                                                     2        1.5000000       -1.40434292    0.00000000
                                                     2        3.0000000        1.46283806    0.00000000
                                      P - F
                                                     0        0.0000010        0.00612970    0.00000000
                                                     2        0.1200000        0.02254406    0.00000000
                                                     2        0.1800000       -0.13874529    0.00000000
                                                     2        0.3000000        0.38299049    0.00000000
                                                     2        0.5000000       -0.57923512    0.00000000
                                                     2        1.0000000        0.63021625    0.00000000
                                                     2        2.0000000       -0.79201034    0.00000000
                                      D - F
                                                     0        0.0000010       -0.00296226    0.00000000
                                                     2        0.1200000       -0.00547344    0.00000000
                                                     2        0.1400000        0.01837884    0.00000000
                                                     2        0.2400000       -0.05565704    0.00000000
                                                     2        0.4000000        0.15376597    0.00000000
                                                     2        0.8000000       -0.32464795    0.00000000
 ======================================================================================================
   269 basis functions,   433 primitive gaussians,   283 cartesian basis functions
    30 alpha electrons       30 beta electrons
       nuclear repulsion energy       357.0246230124 Hartrees.
 NAtoms=   19 NActive=   19 NUniq=   19 SFac= 1.00D+00 NAtFMM=   60 NAOKFM=F Big=F
   1 Symmetry operations used in ECPInt.
 ECPInt:  NShTT=    7626 NPrTT=   30486 LenC2=    7623 LenP2D=   24804.
 LDataN:  DoStor=T MaxTD1= 6 Len=  172
 Initial guess from the checkpoint file:  "E2SN2_352_mol1.chk"
 B after Tr=    -1.138552   -0.102596   -0.399418
         Rot=    0.297624    0.643750    0.593478    0.380514 Ang= 145.37 deg.
 >>>>>>>>>> Convergence criterion not met.
 SCF Done:  E(RHF) =  -366.816436119     A.U. after    2 cycles
            NFock=  1  Conv=0.77D-02     -V/T= 1.9973

 **********************************************************************

            Population analysis using the SCF Density.

 **********************************************************************

 Orbital symmetries:
       Occupied  (A) (A) (A) (A) (A) (A) (A) (A) (A) (A) (A) (A)
                 (A) (A) (A) (A) (A) (A) (A) (A) (A) (A) (A) (A)
                 (A) (A) (A) (A) (A) (A)
       Virtual   (A) (A) (A) (A) (A) (A) (A) (A) (A) (A) (A) (A)
                 (A) (A) (A) (A) (A) (A) (A) (A) (A) (A) (A) (A)
                 (A) (A) (A) (A) (A) (A) (A) (A) (A) (A) (A) (A)
                 (A) (A) (A) (A) (A) (A) (A) (A) (A) (A) (A) (A)
                 (A) (A) (A) (A) (A) (A) (A) (A) (A) (A) (A) (A)
                 (A) (A) (A) (A) (A) (A) (A) (A) (A) (A) (A) (A)
                 (A) (A) (A) (A) (A) (A) (A) (A) (A) (A) (A) (A)
                 (A) (A) (A) (A) (A) (A) (A) (A) (A) (A) (A) (A)
                 (A) (A) (A) (A) (A) (A) (A) (A) (A) (A) (A) (A)
                 (A) (A) (A) (A) (A) (A) (A) (A) (A) (A) (A) (A)
                 (A) (A) (A) (A) (A) (A) (A) (A) (A) (A) (A) (A)
                 (A) (A) (A) (A) (A) (A) (A) (A) (A) (A) (A) (A)
                 (A) (A) (A) (A) (A) (A) (A) (A) (A) (A) (A) (A)
                 (A) (A) (A) (A) (A) (A) (A) (A) (A) (A) (A) (A)
                 (A) (A) (A) (A) (A) (A) (A) (A) (A) (A) (A) (A)
                 (A) (A) (A) (A) (A) (A) (A) (A) (A) (A) (A) (A)
                 (A) (A) (A) (A) (A) (A) (A) (A) (A) (A) (A) (A)
                 (A) (A) (A) (A) (A) (A) (A) (A) (A) (A) (A) (A)
                 (A) (A) (A) (A) (A) (A) (A) (A) (A) (A) (A) (A)
                 (A) (A) (A) (A) (A) (A) (A) (A) (A) (A) (A)
 The electronic state is 1-A.
 Alpha  occ. eigenvalues --  -25.83241 -15.44716 -15.44280 -11.17001 -11.13541
 Alpha  occ. eigenvalues --  -11.07453 -11.06442  -1.33854  -1.03753  -0.93366
 Alpha  occ. eigenvalues --   -0.88854  -0.78297  -0.71109  -0.58897  -0.52969
 Alpha  occ. eigenvalues --   -0.52403  -0.46789  -0.46657  -0.45615  -0.42155
 Alpha  occ. eigenvalues --   -0.40823  -0.38010  -0.37545  -0.36644  -0.36272
 Alpha  occ. eigenvalues --   -0.34824  -0.33501  -0.24914  -0.23550  -0.09437
 Alpha virt. eigenvalues --    0.13675   0.13839   0.14262   0.15141   0.15826
 Alpha virt. eigenvalues --    0.16356   0.16669   0.17137   0.18953   0.19110
 Alpha virt. eigenvalues --    0.19572   0.21525   0.23887   0.24899   0.26063
 Alpha virt. eigenvalues --    0.26527   0.27617   0.28079   0.28504   0.28832
 Alpha virt. eigenvalues --    0.30140   0.30935   0.31188   0.31763   0.32338
 Alpha virt. eigenvalues --    0.33164   0.33872   0.35019   0.35598   0.36635
 Alpha virt. eigenvalues --    0.36861   0.37650   0.38750   0.40728   0.43725
 Alpha virt. eigenvalues --    0.44194   0.45030   0.45732   0.48696   0.49692
 Alpha virt. eigenvalues --    0.50320   0.50528   0.52470   0.53329   0.53630
 Alpha virt. eigenvalues --    0.54052   0.55654   0.56432   0.57019   0.57576
 Alpha virt. eigenvalues --    0.57976   0.58848   0.59890   0.60263   0.61067
 Alpha virt. eigenvalues --    0.61247   0.62354   0.62540   0.63643   0.65278
 Alpha virt. eigenvalues --    0.65432   0.66892   0.67315   0.68021   0.69056
 Alpha virt. eigenvalues --    0.70592   0.70959   0.71955   0.72657   0.73505
 Alpha virt. eigenvalues --    0.74070   0.74830   0.75597   0.76251   0.76479
 Alpha virt. eigenvalues --    0.78213   0.79191   0.79933   0.80548   0.81888
 Alpha virt. eigenvalues --    0.82031   0.83248   0.83791   0.84813   0.85870
 Alpha virt. eigenvalues --    0.87769   0.87822   0.88445   0.88979   0.90651
 Alpha virt. eigenvalues --    0.91252   0.92203   0.92650   0.93607   0.94725
 Alpha virt. eigenvalues --    0.95623   0.96643   0.98021   0.99052   0.99810
 Alpha virt. eigenvalues --    1.00450   1.01357   1.03624   1.04845   1.06193
 Alpha virt. eigenvalues --    1.07433   1.08859   1.09848   1.10436   1.12955
 Alpha virt. eigenvalues --    1.15163   1.15558   1.17352   1.18923   1.21203
 Alpha virt. eigenvalues --    1.21671   1.26020   1.26625   1.27279   1.28659
 Alpha virt. eigenvalues --    1.29976   1.31384   1.33410   1.33903   1.36422
 Alpha virt. eigenvalues --    1.36634   1.38198   1.39094   1.44192   1.45958
 Alpha virt. eigenvalues --    1.48134   1.50644   1.52664   1.53851   1.58082
 Alpha virt. eigenvalues --    1.62298   1.64019   1.65110   1.66590   1.75767
 Alpha virt. eigenvalues --    1.77121   1.77453   1.79404   1.80907   1.84229
 Alpha virt. eigenvalues --    1.86218   1.87664   1.89108   1.90497   1.91713
 Alpha virt. eigenvalues --    1.94358   1.95150   1.96018   1.98910   1.99348
 Alpha virt. eigenvalues --    2.01589   2.02433   2.04889   2.07033   2.08934
 Alpha virt. eigenvalues --    2.10650   2.10960   2.12777   2.14714   2.16130
 Alpha virt. eigenvalues --    2.17116   2.21641   2.23174   2.24986   2.26283
 Alpha virt. eigenvalues --    2.28552   2.30323   2.30993   2.31562   2.35636
 Alpha virt. eigenvalues --    2.38946   2.41718   2.43443   2.44859   2.46499
 Alpha virt. eigenvalues --    2.49582   2.50316   2.52453   2.55162   2.55609
 Alpha virt. eigenvalues --    2.58651   2.60774   2.62243   2.63725   2.65369
 Alpha virt. eigenvalues --    2.67147   2.67407   2.68398   2.69912   2.71606
 Alpha virt. eigenvalues --    2.73923   2.75243   2.77801   2.81063   2.81785
 Alpha virt. eigenvalues --    2.85012   2.86019   2.86496   2.88638   2.89622
 Alpha virt. eigenvalues --    2.91498   2.92597   2.96772   2.97576   2.99633
 Alpha virt. eigenvalues --    3.04025   3.08635   3.10053   3.11120   3.14952
 Alpha virt. eigenvalues --    3.17686   3.19268   3.20258   3.23566   3.26776
 Alpha virt. eigenvalues --    3.32867   3.34881   3.37660   3.42149   3.44251
 Alpha virt. eigenvalues --    3.48620   3.65254   3.68782   3.70654   3.81423
 Alpha virt. eigenvalues --    3.90336   4.04517   4.10356   4.80037   5.36633
 Alpha virt. eigenvalues --    5.40800   5.44241   5.46421   5.51785
          Condensed to atoms (all electrons):
 Mulliken charges:
               1
     1  C   -2.077573
     2  H   -0.239823
     3  F   -0.729417
     4  H   -0.413112
     5  C    1.489112
     6  C    0.658614
     7  H    0.072627
     8  H   -0.042785
     9  H   -0.005575
    10  C    0.898682
    11  H   -0.019487
    12  H    0.055524
    13  H    0.034617
    14  N   -0.345976
    15  H   -0.070850
    16  H    0.126489
    17  N   -0.508174
    18  H    0.066616
    19  H    0.050490
 Sum of Mulliken charges =  -1.00000
 Mulliken charges with hydrogens summed into heavy atoms:
               1
     1  C   -2.490685
     3  F   -0.729417
     5  C    1.249289
     6  C    0.682881
    10  C    0.969335
    14  N   -0.290336
    17  N   -0.391068
 Electronic spatial extent (au):  <R**2>=            860.4222
 Charge=             -1.0000 electrons
 Dipole moment (field-independent basis, Debye):
    X=              0.1696    Y=             -2.0737    Z=             -1.1227  Tot=              2.3642

 Test job not archived.
 1\1\GINC-SE344\SP\RHF\Aug-CC-pVDZ\C4H12F1N2(1-)\OHZDE\09-Apr-2025\0\\#
 t hf aug-cc-pvdz iop(5/13=1,5/36=2,99/5=2) pseudo=read geom=check gues
 s=(read,tcheck) scf=(maxcycle=1)\\title\\-1,1\C,0,0.46245047,0.0078670
 5,-0.01259773\H,0,1.45837372,1.7062367,-0.81190154\F,0,-1.24239066,-0.
 05586317,-0.31714436\H,0,2.34997086,0.17167467,0.32881916\C,0,0.606668
 53,1.55707519,-0.13887333\C,0,0.86831277,-0.83972004,-1.20721819\H,0,-
 0.03015761,-1.26979062,-1.66207124\H,0,1.39662529,-0.23221533,-1.94664
 27\H,0,1.5437403,-1.63901308,-0.90650753\C,0,0.27190288,-0.69882572,1.
 32395802\H,0,1.21175254,-1.07407127,1.71938647\H,0,-0.16351019,0.00603
 33,2.03398715\H,0,-0.43453998,-1.52096756,1.180802\N,0,0.83852145,2.12
 395915,1.18397118\H,0,1.00176881,3.11578721,1.04513288\H,0,1.707959,1.
 6873968,1.48723189\N,0,-0.50765505,2.32167762,-0.70997988\H,0,-1.32654
 495,2.01057596,-0.19889602\H,0,-0.6563282,1.95092313,-1.64304623\\Vers
 ion=ES64L-G16RevC.01\State=1-A\HF=-366.8164361\RMSD=7.684e-03\Dipole=-
 0.8106381,0.1324468,-0.4364418\Quadrupole=-8.1606342,2.0330605,6.12757
 37,1.9525643,-1.9433494,-0.0666496\PG=C01 [X(C4H12F1N2)]\\@


 ABALONE: AN EXPRESSION OF DISBELIEF.
 Job cpu time:       0 days  0 hours  1 minutes 49.4 seconds.
 Elapsed time:       0 days  0 hours  0 minutes  8.0 seconds.
 File lengths (MBytes):  RWF=     14 Int=      0 D2E=      0 Chk=     10 Scr=      1
 Normal termination of Gaussian 16 at Wed Apr  9 02:52:26 2025.
