 Entering Gaussian System, Link 0=g16
 Input=E2SN2_243_mol1.gjf
 Output=E2SN2_243_mol1.log
 Initial command:
 /arc/software/Gaussian/g16.c01/l1.exe "/tmp/slurm/4858945/Gau-3489749.inp" -scrdir="/tmp/slurm/4858945/"
 Entering Link 1 = /arc/software/Gaussian/g16.c01/l1.exe PID=   3489750.
  
 Copyright (c) 1988-2019, Gaussian, Inc.  All Rights Reserved.
  
 This is part of the Gaussian(R) 16 program.  It is based on
 the Gaussian(R) 09 system (copyright 2009, Gaussian, Inc.),
 the Gaussian(R) 03 system (copyright 2003, Gaussian, Inc.),
 the Gaussian(R) 98 system (copyright 1998, Gaussian, Inc.),
 the Gaussian(R) 94 system (copyright 1995, Gaussian, Inc.),
 the Gaussian 92(TM) system (copyright 1992, Gaussian, Inc.),
 the Gaussian 90(TM) system (copyright 1990, Gaussian, Inc.),
 the Gaussian 88(TM) system (copyright 1988, Gaussian, Inc.),
 the Gaussian 86(TM) system (copyright 1986, Carnegie Mellon
 University), and the Gaussian 82(TM) system (copyright 1983,
 Carnegie Mellon University). Gaussian is a federally registered
 trademark of Gaussian, Inc.
  
 This software contains proprietary and confidential information,
 including trade secrets, belonging to Gaussian, Inc.
  
 This software is provided under written license and may be
 used, copied, transmitted, or stored only in accord with that
 written license.
  
 The following legend is applicable only to US Government
 contracts under FAR:
  
                    RESTRICTED RIGHTS LEGEND
  
 Use, reproduction and disclosure by the US Government is
 subject to restrictions as set forth in subparagraphs (a)
 and (c) of the Commercial Computer Software - Restricted
 Rights clause in FAR 52.227-19.
  
 Gaussian, Inc.
 340 Quinnipiac St., Bldg. 40, Wallingford CT 06492
  
  
 ---------------------------------------------------------------
 Warning -- This program may not be used in any manner that
 competes with the business of Gaussian, Inc. or will provide
 assistance to any competitor of Gaussian, Inc.  The licensee
 of this program is prohibited from giving any competitor of
 Gaussian, Inc. access to this program.  By using this program,
 the user acknowledges that Gaussian, Inc. is engaged in the
 business of creating and licensing software in the field of
 computational chemistry and represents and warrants to the
 licensee that it is not a competitor of Gaussian, Inc. and that
 it will not use this program in any manner prohibited above.
 ---------------------------------------------------------------
  

 Cite this work as:
 Gaussian 16, Revision C.01,
 M. J. Frisch, G. W. Trucks, H. B. Schlegel, G. E. Scuseria, 
 M. A. Robb, J. R. Cheeseman, G. Scalmani, V. Barone, 
 G. A. Petersson, H. Nakatsuji, X. Li, M. Caricato, A. V. Marenich, 
 J. Bloino, B. G. Janesko, R. Gomperts, B. Mennucci, H. P. Hratchian, 
 J. V. Ortiz, A. F. Izmaylov, J. L. Sonnenberg, D. Williams-Young, 
 F. Ding, F. Lipparini, F. Egidi, J. Goings, B. Peng, A. Petrone, 
 T. Henderson, D. Ranasinghe, V. G. Zakrzewski, J. Gao, N. Rega, 
 G. Zheng, W. Liang, M. Hada, M. Ehara, K. Toyota, R. Fukuda, 
 J. Hasegawa, M. Ishida, T. Nakajima, Y. Honda, O. Kitao, H. Nakai, 
 T. Vreven, K. Throssell, J. A. Montgomery, Jr., J. E. Peralta, 
 F. Ogliaro, M. J. Bearpark, J. J. Heyd, E. N. Brothers, K. N. Kudin, 
 V. N. Staroverov, T. A. Keith, R. Kobayashi, J. Normand, 
 K. Raghavachari, A. P. Rendell, J. C. Burant, S. S. Iyengar, 
 J. Tomasi, M. Cossi, J. M. Millam, M. Klene, C. Adamo, R. Cammi, 
 J. W. Ochterski, R. L. Martin, K. Morokuma, O. Farkas, 
 J. B. Foresman, and D. J. Fox, Gaussian, Inc., Wallingford CT, 2019.
 
 ******************************************
 Gaussian 16:  ES64L-G16RevC.01  3-Jul-2019
                 9-Apr-2025 
 ******************************************
 %nprocs=16
 Will use up to   16 processors via shared memory.
 %mem=30GB
 %chk=E2SN2_243_mol1.chk
 ----------------------------------------------------------------------
 #t hf aug-cc-pvdz symm=none int=(grid=ultrafine) guess=(read,tcheck) s
 table=(opt,rrhf)
 ----------------------------------------------------------------------
 -----
 title
 -----
 Symbolic Z-matrix:
 Charge = -1 Multiplicity = 1
 C                     0.76652  -0.02437   0.00301 
 H                     1.74475   1.87385   0.2056 
 F                    -1.12039   0.05532  -0.1606 
 Cl                    2.97304  -0.23459  -0.18322 
 C                     0.73094   1.51376   0.02901 
 N                     0.61847  -0.87437  -1.25967 
 O                     0.6402   -0.3388   -2.35287 
 O                     0.48905  -2.07445  -1.05231 
 N                     0.68419  -0.67489   1.24341 
 H                     1.24355  -1.51524   1.22351 
 H                    -0.29634  -0.8996    1.36733 
 C                    -0.05932   1.91735   1.21897 
 N                    -0.63409   2.41775   2.11382 
 N                     0.22951   2.1317   -1.18635 
 H                     0.11101   3.12208  -1.00526 
 H                    -0.68319   1.71945  -1.34414 
 
                    Distance matrix (angstroms):
                    1          2          3          4          5
     1  C    0.000000
     2  H    2.145047   0.000000
     3  F    1.895660   3.413233   0.000000
     4  Cl   2.224320   2.470912   4.103739   0.000000
     5  C    1.538761   1.090257   2.364404   2.851099   0.000000
     6  N    1.529304   3.311834   2.257408   2.666840   2.715971
     7  O    2.380126   3.558320   2.839197   3.187532   3.018867
     8  O    2.322391   4.329917   2.814487   3.211009   3.755394
     9  N    1.403048   2.949220   2.400200   2.732757   2.503425
    10  H    1.984908   3.573969   3.157630   2.571003   3.296123
    11  H    1.938307   3.634232   1.981287   3.679024   2.944602
    12  C    2.435335   2.069656   2.548775   3.973939   1.484390
    13  N    3.518688   3.097733   3.315204   5.032160   2.650835
    14  N    2.520236   2.073636   2.680620   3.759325   1.452713
    15  H    3.368447   2.386075   3.410981   4.487109   2.010152
    16  H    2.637681   2.884512   2.088357   4.305108   1.981817
                    6          7          8          9         10
     6  N    0.000000
     7  O    1.217541   0.000000
     8  O    1.224715   2.174115   0.000000
     9  N    2.511874   3.612221   2.695772   0.000000
    10  H    2.639618   3.812940   2.461976   1.009690   0.000000
    11  H    2.781832   3.877043   2.802094   1.013548   1.664618
    12  C    3.794308   4.282245   4.625353   2.696870   3.671535
    13  N    4.877230   5.401269   5.609426   3.472734   4.448214
    14  N    3.032016   2.762752   4.216276   3.739973   4.487297
    15  H    4.036563   3.751502   5.210469   4.449944   5.268278
    16  H    2.903333   2.646746   3.981575   3.781269   4.557229
                   11         12         13         14         15
    11  H    0.000000
    12  C    2.830793   0.000000
    13  N    3.417039   1.175373   0.000000
    14  N    3.998316   2.432067   3.423263   0.000000
    15  H    4.687108   2.535272   3.283276   1.013748   0.000000
    16  H    3.789607   2.645362   3.528108   1.013834   1.647106
                   16
    16  H    0.000000
 Symmetry turned off by external request.
 Rotational constants (GHZ):           1.2915796           0.8180584           0.7268235
   302 basis functions,   566 primitive gaussians,   324 cartesian basis functions
    47 alpha electrons       47 beta electrons
       nuclear repulsion energy       771.7700978371 Hartrees.
 NAtoms=   16 NActive=   16 NUniq=   16 SFac= 1.00D+00 NAtFMM=   60 NAOKFM=F Big=F
 ExpMin= 2.97D-02 ExpMax= 1.28D+05 ExpMxC= 1.24D+03 IAcc=3 IRadAn=         5 AccDes= 0.00D+00
 Harris functional with IExCor=  205 and IRadAn=       5 diagonalized for initial guess.
 HarFok:  IExCor=  205 AccDes= 0.00D+00 IRadAn=         5 IDoV= 1 UseB2=F ITyADJ=14
 ICtDFT=  3500011 ScaDFX=  1.000000  1.000000  1.000000  1.000000
 FoFCou: FMM=F IPFlag=           0 FMFlag=      100000 FMFlg1=           0
         NFxFlg=           0 DoJE=T BraDBF=F KetDBF=T FulRan=T
         wScrn=  0.000000 ICntrl=       500 IOpCl=  0 I1Cent=   200000004 NGrid=           0
         NMat0=    1 NMatS0=      1 NMatT0=    0 NMatD0=    1 NMtDS0=    0 NMtDT0=    0
 Symmetry not used in FoFCou.
 SCF Done:  E(RHF) =  -1042.92126786     A.U. after   17 cycles
            NFock= 17  Conv=0.55D-08     -V/T= 2.0009

 **********************************************************************

            Population analysis using the SCF Density.

 **********************************************************************

 Alpha  occ. eigenvalues -- -104.63475 -26.04497 -20.48273 -20.48055 -15.73706
 Alpha  occ. eigenvalues --  -15.46242 -15.45697 -15.44741 -11.32953 -11.21277
 Alpha  occ. eigenvalues --  -11.17132 -10.36111  -7.82786  -7.82631  -7.82619
 Alpha  occ. eigenvalues --   -1.48125  -1.31485  -1.27626  -1.13698  -1.10234
 Alpha  occ. eigenvalues --   -1.07564  -0.93175  -0.86847  -0.86134  -0.69873
 Alpha  occ. eigenvalues --   -0.63868  -0.61230  -0.60360  -0.59012  -0.57476
 Alpha  occ. eigenvalues --   -0.56409  -0.49561  -0.47235  -0.44339  -0.41321
 Alpha  occ. eigenvalues --   -0.39579  -0.38778  -0.38259  -0.36883  -0.34831
 Alpha  occ. eigenvalues --   -0.33197  -0.32578  -0.31803  -0.29478  -0.27803
 Alpha  occ. eigenvalues --   -0.27499  -0.27302
 Alpha virt. eigenvalues --    0.12823   0.13701   0.14546   0.16774   0.17358
 Alpha virt. eigenvalues --    0.18418   0.19172   0.21126   0.21642   0.22929
 Alpha virt. eigenvalues --    0.23715   0.24473   0.25281   0.26295   0.26679
 Alpha virt. eigenvalues --    0.27005   0.28031   0.28593   0.28716   0.29869
 Alpha virt. eigenvalues --    0.30457   0.30771   0.31242   0.32040   0.32628
 Alpha virt. eigenvalues --    0.33561   0.34374   0.34811   0.35592   0.36072
 Alpha virt. eigenvalues --    0.36995   0.38431   0.38623   0.39696   0.40142
 Alpha virt. eigenvalues --    0.41573   0.43585   0.43790   0.44006   0.44428
 Alpha virt. eigenvalues --    0.45915   0.47040   0.47985   0.48352   0.48811
 Alpha virt. eigenvalues --    0.49755   0.51071   0.51656   0.51818   0.53057
 Alpha virt. eigenvalues --    0.53535   0.54211   0.54646   0.55712   0.57274
 Alpha virt. eigenvalues --    0.58161   0.59335   0.59658   0.60707   0.62178
 Alpha virt. eigenvalues --    0.62254   0.63121   0.63935   0.65388   0.66187
 Alpha virt. eigenvalues --    0.67358   0.68008   0.69342   0.69786   0.70194
 Alpha virt. eigenvalues --    0.71190   0.71779   0.73139   0.73536   0.74137
 Alpha virt. eigenvalues --    0.75266   0.76107   0.77395   0.78767   0.79824
 Alpha virt. eigenvalues --    0.80660   0.81687   0.82419   0.82917   0.85340
 Alpha virt. eigenvalues --    0.86466   0.86914   0.88525   0.89371   0.90295
 Alpha virt. eigenvalues --    0.92352   0.94278   0.95154   0.96239   0.97377
 Alpha virt. eigenvalues --    0.97880   0.99058   1.00738   1.01006   1.02845
 Alpha virt. eigenvalues --    1.03902   1.04707   1.07778   1.08808   1.09277
 Alpha virt. eigenvalues --    1.11025   1.11211   1.12718   1.14664   1.16054
 Alpha virt. eigenvalues --    1.17413   1.19118   1.19487   1.21859   1.22337
 Alpha virt. eigenvalues --    1.23828   1.26009   1.27796   1.28376   1.30420
 Alpha virt. eigenvalues --    1.30853   1.32443   1.33222   1.34719   1.36753
 Alpha virt. eigenvalues --    1.37983   1.38399   1.39450   1.41987   1.42224
 Alpha virt. eigenvalues --    1.43720   1.44743   1.45211   1.46081   1.48217
 Alpha virt. eigenvalues --    1.50207   1.52748   1.53455   1.54273   1.57274
 Alpha virt. eigenvalues --    1.60743   1.61727   1.62521   1.63062   1.64811
 Alpha virt. eigenvalues --    1.66136   1.66718   1.69159   1.70577   1.72183
 Alpha virt. eigenvalues --    1.73621   1.74672   1.77168   1.79011   1.80175
 Alpha virt. eigenvalues --    1.82058   1.82533   1.84878   1.86179   1.88943
 Alpha virt. eigenvalues --    1.90342   1.90780   1.91778   1.93790   1.94387
 Alpha virt. eigenvalues --    1.96905   1.99385   2.01773   2.04255   2.06377
 Alpha virt. eigenvalues --    2.06586   2.09573   2.11302   2.13156   2.15814
 Alpha virt. eigenvalues --    2.17959   2.18818   2.20594   2.24318   2.25988
 Alpha virt. eigenvalues --    2.28354   2.29183   2.32967   2.35864   2.36580
 Alpha virt. eigenvalues --    2.38087   2.39052   2.43445   2.43812   2.46292
 Alpha virt. eigenvalues --    2.48799   2.50831   2.51151   2.56574   2.57097
 Alpha virt. eigenvalues --    2.59256   2.61484   2.62856   2.64256   2.66996
 Alpha virt. eigenvalues --    2.67263   2.68651   2.70053   2.70803   2.72922
 Alpha virt. eigenvalues --    2.75625   2.76407   2.78370   2.81320   2.82112
 Alpha virt. eigenvalues --    2.84546   2.86111   2.87380   2.93336   2.96301
 Alpha virt. eigenvalues --    3.00807   3.01387   3.03560   3.09460   3.12461
 Alpha virt. eigenvalues --    3.15108   3.17998   3.19881   3.21368   3.26076
 Alpha virt. eigenvalues --    3.30550   3.37043   3.41788   3.50562   3.53694
 Alpha virt. eigenvalues --    3.56299   3.64512   3.70246   3.75899   3.79311
 Alpha virt. eigenvalues --    3.85351   3.87838   3.90339   3.91411   3.92772
 Alpha virt. eigenvalues --    3.96176   4.00927   4.03527   4.04614   4.10098
 Alpha virt. eigenvalues --    4.17579   4.31071   4.36159   4.40476   5.23732
 Alpha virt. eigenvalues --    5.36240   5.38454   5.42530   5.49981   5.60409
          Condensed to atoms (all electrons):
 Mulliken charges:
               1
     1  C    0.820483
     2  H   -0.072566
     3  F   -0.836207
     4  Cl  -0.563197
     5  C    1.200928
     6  N    1.142503
     7  O   -0.957956
     8  O   -0.957724
     9  N   -0.325425
    10  H    0.105134
    11  H    0.105178
    12  C    0.099529
    13  N   -0.490681
    14  N   -0.346941
    15  H   -0.038044
    16  H    0.114988
 Sum of Mulliken charges =  -1.00000
 Mulliken charges with hydrogens summed into heavy atoms:
               1
     1  C    0.820483
     3  F   -0.836207
     4  Cl  -0.563197
     5  C    1.128362
     6  N    1.142503
     7  O   -0.957956
     8  O   -0.957724
     9  N   -0.115113
    12  C    0.099529
    13  N   -0.490681
    14  N   -0.269997
 Electronic spatial extent (au):  <R**2>=           1960.9578
 Charge=             -1.0000 electrons
 Dipole moment (field-independent basis, Debye):
    X=             -3.2194    Y=             -0.2712    Z=              1.0009  Tot=              3.3823
 NROrb=    302 NOA=    47 NOB=    47 NVA=   255 NVB=   255

 **** Warning!!: The largest alpha MO coefficient is  0.10286535D+03

    12 initial guesses have been made.
 Iteration     1 Dimension    12 NMult     0 NNew     12
 Iteration     2 Dimension    24 NMult    12 NNew     12
 New state      1 was old state      3
 Iteration     3 Dimension    27 NMult    24 NNew      3
 Iteration     4 Dimension    30 NMult    27 NNew      3
 Iteration     5 Dimension    33 NMult    30 NNew      3
 Iteration     6 Dimension    36 NMult    33 NNew      3
 Iteration     7 Dimension    39 NMult    36 NNew      3
 Iteration     8 Dimension    42 NMult    39 NNew      3
 Iteration     9 Dimension    45 NMult    42 NNew      3
 ***********************************************************************
 Stability analysis using <AA,BB:AA,BB> singles matrix:
 ***********************************************************************
 Ground to excited state transition densities written to RWF  633

 Eigenvectors of the stability matrix:
 
 Excited state symmetry could not be determined.
 Eigenvector   1:      Singlet-?Sym  Eigenvalue= 0.1876453  <S**2>=0.000
      35 -> 54        -0.14964
      38 -> 54         0.19073
      39 -> 54        -0.21716
      39 -> 55         0.11116
      40 -> 54        -0.17905
      43 -> 54         0.17831
      44 -> 54        -0.22842
      44 -> 55         0.10423
      45 -> 54        -0.16442
 The wavefunction is stable under the perturbations considered.
 The wavefunction is already stable.

 **********************************************************************

            Population analysis using the SCF Density.

 **********************************************************************

 Alpha  occ. eigenvalues -- -104.63475 -26.04497 -20.48273 -20.48055 -15.73706
 Alpha  occ. eigenvalues --  -15.46242 -15.45697 -15.44741 -11.32953 -11.21277
 Alpha  occ. eigenvalues --  -11.17132 -10.36111  -7.82786  -7.82631  -7.82619
 Alpha  occ. eigenvalues --   -1.48125  -1.31485  -1.27626  -1.13698  -1.10234
 Alpha  occ. eigenvalues --   -1.07564  -0.93175  -0.86847  -0.86134  -0.69873
 Alpha  occ. eigenvalues --   -0.63868  -0.61230  -0.60360  -0.59012  -0.57476
 Alpha  occ. eigenvalues --   -0.56409  -0.49561  -0.47235  -0.44339  -0.41321
 Alpha  occ. eigenvalues --   -0.39579  -0.38778  -0.38259  -0.36883  -0.34831
 Alpha  occ. eigenvalues --   -0.33197  -0.32578  -0.31803  -0.29478  -0.27803
 Alpha  occ. eigenvalues --   -0.27499  -0.27302
 Alpha virt. eigenvalues --    0.12823   0.13701   0.14546   0.16774   0.17358
 Alpha virt. eigenvalues --    0.18418   0.19172   0.21126   0.21642   0.22929
 Alpha virt. eigenvalues --    0.23715   0.24473   0.25281   0.26295   0.26679
 Alpha virt. eigenvalues --    0.27005   0.28031   0.28593   0.28716   0.29869
 Alpha virt. eigenvalues --    0.30457   0.30771   0.31242   0.32040   0.32628
 Alpha virt. eigenvalues --    0.33561   0.34374   0.34811   0.35592   0.36072
 Alpha virt. eigenvalues --    0.36995   0.38431   0.38623   0.39696   0.40142
 Alpha virt. eigenvalues --    0.41573   0.43585   0.43790   0.44006   0.44428
 Alpha virt. eigenvalues --    0.45915   0.47040   0.47985   0.48352   0.48811
 Alpha virt. eigenvalues --    0.49755   0.51071   0.51656   0.51818   0.53057
 Alpha virt. eigenvalues --    0.53535   0.54211   0.54646   0.55712   0.57274
 Alpha virt. eigenvalues --    0.58161   0.59335   0.59658   0.60707   0.62178
 Alpha virt. eigenvalues --    0.62254   0.63121   0.63935   0.65388   0.66187
 Alpha virt. eigenvalues --    0.67358   0.68008   0.69342   0.69786   0.70194
 Alpha virt. eigenvalues --    0.71190   0.71779   0.73139   0.73536   0.74137
 Alpha virt. eigenvalues --    0.75266   0.76107   0.77395   0.78767   0.79824
 Alpha virt. eigenvalues --    0.80660   0.81687   0.82419   0.82917   0.85340
 Alpha virt. eigenvalues --    0.86466   0.86914   0.88525   0.89371   0.90295
 Alpha virt. eigenvalues --    0.92352   0.94278   0.95154   0.96239   0.97377
 Alpha virt. eigenvalues --    0.97880   0.99058   1.00738   1.01006   1.02845
 Alpha virt. eigenvalues --    1.03902   1.04707   1.07778   1.08808   1.09277
 Alpha virt. eigenvalues --    1.11025   1.11211   1.12718   1.14664   1.16054
 Alpha virt. eigenvalues --    1.17413   1.19118   1.19487   1.21859   1.22337
 Alpha virt. eigenvalues --    1.23828   1.26009   1.27796   1.28376   1.30420
 Alpha virt. eigenvalues --    1.30853   1.32443   1.33222   1.34719   1.36753
 Alpha virt. eigenvalues --    1.37983   1.38399   1.39450   1.41987   1.42224
 Alpha virt. eigenvalues --    1.43720   1.44743   1.45211   1.46081   1.48217
 Alpha virt. eigenvalues --    1.50207   1.52748   1.53455   1.54273   1.57274
 Alpha virt. eigenvalues --    1.60743   1.61727   1.62521   1.63062   1.64811
 Alpha virt. eigenvalues --    1.66136   1.66718   1.69159   1.70577   1.72183
 Alpha virt. eigenvalues --    1.73621   1.74672   1.77168   1.79011   1.80175
 Alpha virt. eigenvalues --    1.82058   1.82533   1.84878   1.86179   1.88943
 Alpha virt. eigenvalues --    1.90342   1.90780   1.91778   1.93790   1.94387
 Alpha virt. eigenvalues --    1.96905   1.99385   2.01773   2.04255   2.06377
 Alpha virt. eigenvalues --    2.06586   2.09573   2.11302   2.13156   2.15814
 Alpha virt. eigenvalues --    2.17959   2.18818   2.20594   2.24318   2.25988
 Alpha virt. eigenvalues --    2.28354   2.29183   2.32967   2.35864   2.36580
 Alpha virt. eigenvalues --    2.38087   2.39052   2.43445   2.43812   2.46292
 Alpha virt. eigenvalues --    2.48799   2.50831   2.51151   2.56574   2.57097
 Alpha virt. eigenvalues --    2.59256   2.61484   2.62856   2.64256   2.66996
 Alpha virt. eigenvalues --    2.67263   2.68651   2.70053   2.70803   2.72922
 Alpha virt. eigenvalues --    2.75625   2.76407   2.78370   2.81320   2.82112
 Alpha virt. eigenvalues --    2.84546   2.86111   2.87380   2.93336   2.96301
 Alpha virt. eigenvalues --    3.00807   3.01387   3.03560   3.09460   3.12461
 Alpha virt. eigenvalues --    3.15108   3.17998   3.19881   3.21368   3.26076
 Alpha virt. eigenvalues --    3.30550   3.37043   3.41788   3.50562   3.53694
 Alpha virt. eigenvalues --    3.56299   3.64512   3.70246   3.75899   3.79311
 Alpha virt. eigenvalues --    3.85351   3.87838   3.90339   3.91411   3.92772
 Alpha virt. eigenvalues --    3.96176   4.00927   4.03527   4.04614   4.10098
 Alpha virt. eigenvalues --    4.17579   4.31071   4.36159   4.40476   5.23732
 Alpha virt. eigenvalues --    5.36240   5.38454   5.42530   5.49981   5.60409
          Condensed to atoms (all electrons):
 Mulliken charges:
               1
     1  C    0.820483
     2  H   -0.072566
     3  F   -0.836207
     4  Cl  -0.563197
     5  C    1.200928
     6  N    1.142503
     7  O   -0.957956
     8  O   -0.957724
     9  N   -0.325425
    10  H    0.105134
    11  H    0.105178
    12  C    0.099529
    13  N   -0.490681
    14  N   -0.346941
    15  H   -0.038044
    16  H    0.114988
 Sum of Mulliken charges =  -1.00000
 Mulliken charges with hydrogens summed into heavy atoms:
               1
     1  C    0.820483
     3  F   -0.836207
     4  Cl  -0.563197
     5  C    1.128362
     6  N    1.142503
     7  O   -0.957956
     8  O   -0.957724
     9  N   -0.115113
    12  C    0.099529
    13  N   -0.490681
    14  N   -0.269997
 Electronic spatial extent (au):  <R**2>=           1960.9578
 Charge=             -1.0000 electrons
 Dipole moment (field-independent basis, Debye):
    X=             -3.2194    Y=             -0.2712    Z=              1.0009  Tot=              3.3823
 Unable to Open any file for archive entry.
 1\1\GINC-SE457\Stability\RHF\Aug-CC-pVDZ\C3H5Cl1F1N4O2\OHZDE\09-Apr-20
 25\0\\#t hf aug-cc-pvdz symm=none int=(grid=ultrafine) guess=(read,tch
 eck) stable=(opt,rrhf)\\title\\-1,1\C,0,0.76651651,-0.0243716,0.003010
 7\H,0,1.74474561,1.87385162,0.20560303\F,0,-1.12038793,0.05531831,-0.1
 6060369\Cl,0,2.97303584,-0.23458938,-0.18322011\C,0,0.73093714,1.51375
 854,0.02900809\N,0,0.61847011,-0.87437285,-1.25966549\O,0,0.64020134,-
 0.33880193,-2.3528708\O,0,0.48905078,-2.07444849,-1.05230875\N,0,0.684
 18973,-0.67488763,1.24341222\H,0,1.24355297,-1.51523848,1.22350692\H,0
 ,-0.2963355,-0.89959962,1.36732595\C,0,-0.05932306,1.91735016,1.218972
 95\N,0,-0.63408612,2.41775308,2.11381726\N,0,0.22950799,2.13169661,-1.
 18635076\H,0,0.1110101,3.12207571,-1.00526305\H,0,-0.68318551,1.719445
 96,-1.34414448\\Version=ES64L-G16RevC.01\HF=-1042.9212679\RMSD=5.483e-
 09\Dipole=0.0851939,0.359573,0.0388142\Quadrupole=-5.2799526,7.1886619
 ,-1.9087093,3.6982937,5.0624591,-10.1867303\PG=Unknown\\@
 The archive entry for this job was punched.


 ERROR IS A HARDY PLANT... IT FLOURISHETH IN EVERY SOIL.
            MARTIN FARQUHAR TUPPER
 Job cpu time:       0 days  0 hours 23 minutes 52.4 seconds.
 Elapsed time:       0 days  0 hours  1 minutes 38.1 seconds.
 File lengths (MBytes):  RWF=    493 Int=      0 D2E=      0 Chk=     13 Scr=      1
 Normal termination of Gaussian 16 at Wed Apr  9 02:42:51 2025.
 Initial command:
 /arc/software/Gaussian/g16.c01/l1.exe "/tmp/slurm/4858945/Gau-3489749.inp" -scrdir="/tmp/slurm/4858945/"
 Entering Link 1 = /arc/software/Gaussian/g16.c01/l1.exe PID=   3489987.
  
 Copyright (c) 1988-2019, Gaussian, Inc.  All Rights Reserved.
  
 This is part of the Gaussian(R) 16 program.  It is based on
 the Gaussian(R) 09 system (copyright 2009, Gaussian, Inc.),
 the Gaussian(R) 03 system (copyright 2003, Gaussian, Inc.),
 the Gaussian(R) 98 system (copyright 1998, Gaussian, Inc.),
 the Gaussian(R) 94 system (copyright 1995, Gaussian, Inc.),
 the Gaussian 92(TM) system (copyright 1992, Gaussian, Inc.),
 the Gaussian 90(TM) system (copyright 1990, Gaussian, Inc.),
 the Gaussian 88(TM) system (copyright 1988, Gaussian, Inc.),
 the Gaussian 86(TM) system (copyright 1986, Carnegie Mellon
 University), and the Gaussian 82(TM) system (copyright 1983,
 Carnegie Mellon University). Gaussian is a federally registered
 trademark of Gaussian, Inc.
  
 This software contains proprietary and confidential information,
 including trade secrets, belonging to Gaussian, Inc.
  
 This software is provided under written license and may be
 used, copied, transmitted, or stored only in accord with that
 written license.
  
 The following legend is applicable only to US Government
 contracts under FAR:
  
                    RESTRICTED RIGHTS LEGEND
  
 Use, reproduction and disclosure by the US Government is
 subject to restrictions as set forth in subparagraphs (a)
 and (c) of the Commercial Computer Software - Restricted
 Rights clause in FAR 52.227-19.
  
 Gaussian, Inc.
 340 Quinnipiac St., Bldg. 40, Wallingford CT 06492
  
  
 ---------------------------------------------------------------
 Warning -- This program may not be used in any manner that
 competes with the business of Gaussian, Inc. or will provide
 assistance to any competitor of Gaussian, Inc.  The licensee
 of this program is prohibited from giving any competitor of
 Gaussian, Inc. access to this program.  By using this program,
 the user acknowledges that Gaussian, Inc. is engaged in the
 business of creating and licensing software in the field of
 computational chemistry and represents and warrants to the
 licensee that it is not a competitor of Gaussian, Inc. and that
 it will not use this program in any manner prohibited above.
 ---------------------------------------------------------------
  

 Cite this work as:
 Gaussian 16, Revision C.01,
 M. J. Frisch, G. W. Trucks, H. B. Schlegel, G. E. Scuseria, 
 M. A. Robb, J. R. Cheeseman, G. Scalmani, V. Barone, 
 G. A. Petersson, H. Nakatsuji, X. Li, M. Caricato, A. V. Marenich, 
 J. Bloino, B. G. Janesko, R. Gomperts, B. Mennucci, H. P. Hratchian, 
 J. V. Ortiz, A. F. Izmaylov, J. L. Sonnenberg, D. Williams-Young, 
 F. Ding, F. Lipparini, F. Egidi, J. Goings, B. Peng, A. Petrone, 
 T. Henderson, D. Ranasinghe, V. G. Zakrzewski, J. Gao, N. Rega, 
 G. Zheng, W. Liang, M. Hada, M. Ehara, K. Toyota, R. Fukuda, 
 J. Hasegawa, M. Ishida, T. Nakajima, Y. Honda, O. Kitao, H. Nakai, 
 T. Vreven, K. Throssell, J. A. Montgomery, Jr., J. E. Peralta, 
 F. Ogliaro, M. J. Bearpark, J. J. Heyd, E. N. Brothers, K. N. Kudin, 
 V. N. Staroverov, T. A. Keith, R. Kobayashi, J. Normand, 
 K. Raghavachari, A. P. Rendell, J. C. Burant, S. S. Iyengar, 
 J. Tomasi, M. Cossi, J. M. Millam, M. Klene, C. Adamo, R. Cammi, 
 J. W. Ochterski, R. L. Martin, K. Morokuma, O. Farkas, 
 J. B. Foresman, and D. J. Fox, Gaussian, Inc., Wallingford CT, 2019.
 
 ******************************************
 Gaussian 16:  ES64L-G16RevC.01  3-Jul-2019
                 9-Apr-2025 
 ******************************************
 %nprocs=16
 Will use up to   16 processors via shared memory.
 %mem=30GB
 %chk=E2SN2_243_mol1.chk
 ----------------------------------------------------------------------
 #t hf aug-cc-pvdz iop(5/13=1,5/36=2,99/5=2) pseudo=read geom=check gue
 ss=(read,tcheck) scf=(maxcycle=1)
 ----------------------------------------------------------------------
 -----
 title
 -----
 Structure from the checkpoint file:  "E2SN2_243_mol1.chk"
 Charge = -1 Multiplicity = 1
 Z-Matrix found in chk file.
 C,0,0.76651651,-0.0243716,0.0030107
 H,0,1.74474561,1.87385162,0.20560303
 F,0,-1.12038793,0.05531831,-0.16060369
 Cl,0,2.97303584,-0.23458938,-0.18322011
 C,0,0.73093714,1.51375854,0.02900809
 N,0,0.61847011,-0.87437285,-1.25966549
 O,0,0.64020134,-0.33880193,-2.3528708
 O,0,0.48905078,-2.07444849,-1.05230875
 N,0,0.68418973,-0.67488763,1.24341222
 H,0,1.24355297,-1.51523848,1.22350692
 H,0,-0.2963355,-0.89959962,1.36732595
 C,0,-0.05932306,1.91735016,1.21897295
 N,0,-0.63408612,2.41775308,2.11381726
 N,0,0.22950799,2.13169661,-1.18635076
 H,0,0.1110101,3.12207571,-1.00526305
 H,0,-0.68318551,1.71944596,-1.34414448
 Recover connectivity data from disk.
                    Distance matrix (angstroms):
                    1          2          3          4          5
     1  C    0.000000
     2  H    2.145047   0.000000
     3  F    1.895660   3.413233   0.000000
     4  Cl   2.224320   2.470912   4.103739   0.000000
     5  C    1.538761   1.090257   2.364404   2.851099   0.000000
     6  N    1.529304   3.311834   2.257408   2.666840   2.715971
     7  O    2.380126   3.558320   2.839197   3.187532   3.018867
     8  O    2.322391   4.329917   2.814487   3.211009   3.755394
     9  N    1.403048   2.949220   2.400200   2.732757   2.503425
    10  H    1.984908   3.573969   3.157630   2.571003   3.296123
    11  H    1.938307   3.634232   1.981287   3.679024   2.944602
    12  C    2.435335   2.069656   2.548775   3.973939   1.484390
    13  N    3.518688   3.097733   3.315204   5.032160   2.650835
    14  N    2.520236   2.073636   2.680620   3.759325   1.452713
    15  H    3.368447   2.386075   3.410981   4.487109   2.010152
    16  H    2.637681   2.884512   2.088357   4.305108   1.981817
                    6          7          8          9         10
     6  N    0.000000
     7  O    1.217541   0.000000
     8  O    1.224715   2.174115   0.000000
     9  N    2.511874   3.612221   2.695772   0.000000
    10  H    2.639618   3.812940   2.461976   1.009690   0.000000
    11  H    2.781832   3.877043   2.802094   1.013548   1.664618
    12  C    3.794308   4.282245   4.625353   2.696870   3.671535
    13  N    4.877230   5.401269   5.609426   3.472734   4.448214
    14  N    3.032016   2.762752   4.216276   3.739973   4.487297
    15  H    4.036563   3.751502   5.210469   4.449944   5.268278
    16  H    2.903333   2.646746   3.981575   3.781269   4.557229
                   11         12         13         14         15
    11  H    0.000000
    12  C    2.830793   0.000000
    13  N    3.417039   1.175373   0.000000
    14  N    3.998316   2.432067   3.423263   0.000000
    15  H    4.687108   2.535272   3.283276   1.013748   0.000000
    16  H    3.789607   2.645362   3.528108   1.013834   1.647106
                   16
    16  H    0.000000
 Framework group  C1[X(C3H5ClFN4O2)]
 Deg. of freedom    42
                         Standard orientation:                         
 ---------------------------------------------------------------------
 Center     Atomic      Atomic             Coordinates (Angstroms)
 Number     Number       Type             X           Y           Z
 ---------------------------------------------------------------------
      1          6           0       -0.132230    0.092059   -0.294252
      2          1           0        0.900795    1.366589    1.087652
      3          9           0        0.742423   -1.542305   -0.690947
      4         17           0       -1.423069    1.782022    0.357942
      5          6           0        1.031025    0.365833    0.675115
      6          7           0       -1.296500   -0.856795   -0.006289
      7          8           0       -1.438278   -1.314781    1.112887
      8          8           0       -2.019976   -1.080490   -0.968822
      9          7           0        0.024407    0.555877   -1.609122
     10          1           0       -0.869882    0.850546   -1.973665
     11          1           0        0.383324   -0.233270   -2.134198
     12          6           0        2.276107    0.415036   -0.131584
     13          7           0        3.348303    0.505259   -0.604614
     14          7           0        1.139216   -0.574466    1.777163
     15          1           0        2.012661   -0.390654    2.257780
     16          1           0        1.192104   -1.491360    1.347785
 ---------------------------------------------------------------------
 Rotational constants (GHZ):           1.2915796           0.8180584           0.7268235
 ======================================================================================================
                                       Pseudopotential Parameters
 ======================================================================================================
  Center     Atomic      Valence      Angular      Power
  Number     Number     Electrons     Momentum     of R      Exponent        Coefficient   SO-Coeffient
 ======================================================================================================
    1          6            6
                                      G and up 
                                                     0        0.0000010       -0.00011185    0.00000000
                                                     2        0.1200000       -0.02301220    0.00000000
                                                     2        0.1400000        0.13317600    0.00000000
                                                     2        0.1600000       -0.19690668    0.00000000
                                                     2        0.2200000        0.23163694    0.00000000
                                                     2        0.3000000       -0.36920489    0.00000000
                                                     2        0.4000000        0.36389709    0.00000000
                                                     2        0.7000000       -0.38862160    0.00000000
                                                     2        1.3000000        0.80803421    0.00000000
                                      S - G
                                                     0        0.0000010        0.00312304    0.00000000
                                                     2        0.1200000       -0.00632892    0.00000000
                                                     2        0.2200000       -0.03780897    0.00000000
                                                     2        0.4000000        0.26269560    0.00000000
                                                     2        0.9000000       -0.28209514    0.00000000
                                                     2        1.5000000       -0.72686737    0.00000000
                                      P - G
                                                     0        0.0000010       -0.01465594    0.00000000
                                                     2        0.1200000        0.07908409    0.00000000
                                                     2        0.1800000       -0.30615861    0.00000000
                                                     2        0.2600000        0.41506950    0.00000000
                                                     2        0.5000000       -0.36252345    0.00000000
                                                     2        0.9000000        0.15124193    0.00000000
                                                     2        3.0000000       -0.80425677    0.00000000
                                      D - G
                                                     0        0.0000010        0.01149631    0.00000000
                                                     2        0.1200000       -0.04713561    0.00000000
                                                     2        0.1600000        0.10865096    0.00000000
                                                     2        0.2800000       -0.15816701    0.00000000
                                                     2        0.7000000        0.65478804    0.00000000
                                                     2        1.3000000       -1.73816624    0.00000000
                                      F - G
                                                     0        0.0000010        0.00481868    0.00000000
                                                     2        0.1200000       -0.04746842    0.00000000
                                                     2        0.1600000        0.09327889    0.00000000
                                                     2        0.4000000       -0.19693326    0.00000000
                                                     2        0.9000000        0.34938253    0.00000000
    2          1            1
                                      F and up 
                                                     0        0.0000010       -0.00000699    0.00000000
                                                     2        0.1200000        0.00123686    0.00000000
                                                     2        0.1800000       -0.00752022    0.00000000
                                                     2        0.2600000        0.02503380    0.00000000
                                                     2        0.4000000       -0.08702670    0.00000000
                                                     2        0.6000000        0.30134159    0.00000000
                                                     2        0.8000000       -0.50204959    0.00000000
                                                     2        1.2000000        0.52208372    0.00000000
                                      S - F
                                                     0        0.0000010       -0.01618346    0.00000000
                                                     2        0.1200000       -0.07880581    0.00000000
                                                     2        0.1600000        0.32040539    0.00000000
                                                     2        0.2400000       -0.47500956    0.00000000
                                                     2        0.5000000        0.54013668    0.00000000
                                                     2        1.5000000       -1.40434292    0.00000000
                                                     2        3.0000000        1.46283806    0.00000000
                                      P - F
                                                     0        0.0000010        0.00612970    0.00000000
                                                     2        0.1200000        0.02254406    0.00000000
                                                     2        0.1800000       -0.13874529    0.00000000
                                                     2        0.3000000        0.38299049    0.00000000
                                                     2        0.5000000       -0.57923512    0.00000000
                                                     2        1.0000000        0.63021625    0.00000000
                                                     2        2.0000000       -0.79201034    0.00000000
                                      D - F
                                                     0        0.0000010       -0.00296226    0.00000000
                                                     2        0.1200000       -0.00547344    0.00000000
                                                     2        0.1400000        0.01837884    0.00000000
                                                     2        0.2400000       -0.05565704    0.00000000
                                                     2        0.4000000        0.15376597    0.00000000
                                                     2        0.8000000       -0.32464795    0.00000000
    3          9            9
                                      G and up 
                                                     0        0.0000010        0.00013061    0.00000000
                                                     2        0.1200000        0.06713281    0.00000000
                                                     2        0.1400000       -0.24167382    0.00000000
                                                     2        0.1800000        0.63223557    0.00000000
                                                     2        0.2200000       -0.82578269    0.00000000
                                                     2        0.3000000        0.62544157    0.00000000
                                                     2        0.5000000       -0.74972011    0.00000000
                                                     2        0.8000000        1.07821461    0.00000000
                                                     2        2.5000000       -1.10703579    0.00000000
                                      S - G
                                                     0        0.0000010        0.01584301    0.00000000
                                                     2        0.1200000        0.08016155    0.00000000
                                                     2        0.1800000       -0.34633115    0.00000000
                                                     2        0.3000000        0.65132194    0.00000000
                                                     2        2.5000000       -2.36634383    0.00000000
                                      P - G
                                                     0        0.0000010        0.01590244    0.00000000
                                                     2        0.1200000       -0.11156199    0.00000000
                                                     2        0.1600000        0.22434929    0.00000000
                                                     2        0.3000000       -0.27751209    0.00000000
                                      D - G
                                                     0        0.0000010       -0.03628923    0.00000000
                                                     2        0.1200000        0.04690238    0.00000000
                                                     2        0.2600000       -0.08720270    0.00000000
                                      F - G
                                                     0        0.0000010        0.01127523    0.00000000
                                                     2        0.1400000       -0.04328550    0.00000000
                                                     2        0.2400000        0.03116441    0.00000000
                                                     2        0.4000000        0.20516616    0.00000000
    4         17           17
                                      G and up 
                                                     0        0.0000010       -0.00005841    0.00000000
                                                     2        0.1200000       -0.00031502    0.00000000
                                                     2        0.1400000        0.00458821    0.00000000
                                                     2        0.2600000       -0.03604686    0.00000000
                                                     2        0.4000000        0.03832573    0.00000000
                                                     2        1.1000000       -0.21042623    0.00000000
                                      S - G
                                                     0        0.0000010        0.00274387    0.00000000
                                                     2        0.1800000        0.09962839    0.00000000
                                                     2        0.4000000       -0.20830181    0.00000000
                                      P - G
                                                     0        0.0000010       -0.01867126    0.00000000
                                                     2        0.1200000        0.19610675    0.00000000
                                                     2        0.1600000       -0.37005054    0.00000000
                                                     2        0.3000000        0.29573883    0.00000000
                                      D - G
                                                     0        0.0000010        0.06766179    0.00000000
                                                     2        0.1200000       -0.07333140    0.00000000
                                                     2        0.2200000        0.05439691    0.00000000
                                      F - G
                                                     0        0.0000010       -0.02719671    0.00000000
                                                     2        0.1200000       -0.06013675    0.00000000
                                                     2        0.2000000        0.35339430    0.00000000
                                                     2        0.4000000       -0.66518555    0.00000000
    5          6            6
                                      G and up 
                                                     0        0.0000010       -0.00011185    0.00000000
                                                     2        0.1200000       -0.02301220    0.00000000
                                                     2        0.1400000        0.13317600    0.00000000
                                                     2        0.1600000       -0.19690668    0.00000000
                                                     2        0.2200000        0.23163694    0.00000000
                                                     2        0.3000000       -0.36920489    0.00000000
                                                     2        0.4000000        0.36389709    0.00000000
                                                     2        0.7000000       -0.38862160    0.00000000
                                                     2        1.3000000        0.80803421    0.00000000
                                      S - G
                                                     0        0.0000010        0.00312304    0.00000000
                                                     2        0.1200000       -0.00632892    0.00000000
                                                     2        0.2200000       -0.03780897    0.00000000
                                                     2        0.4000000        0.26269560    0.00000000
                                                     2        0.9000000       -0.28209514    0.00000000
                                                     2        1.5000000       -0.72686737    0.00000000
                                      P - G
                                                     0        0.0000010       -0.01465594    0.00000000
                                                     2        0.1200000        0.07908409    0.00000000
                                                     2        0.1800000       -0.30615861    0.00000000
                                                     2        0.2600000        0.41506950    0.00000000
                                                     2        0.5000000       -0.36252345    0.00000000
                                                     2        0.9000000        0.15124193    0.00000000
                                                     2        3.0000000       -0.80425677    0.00000000
                                      D - G
                                                     0        0.0000010        0.01149631    0.00000000
                                                     2        0.1200000       -0.04713561    0.00000000
                                                     2        0.1600000        0.10865096    0.00000000
                                                     2        0.2800000       -0.15816701    0.00000000
                                                     2        0.7000000        0.65478804    0.00000000
                                                     2        1.3000000       -1.73816624    0.00000000
                                      F - G
                                                     0        0.0000010        0.00481868    0.00000000
                                                     2        0.1200000       -0.04746842    0.00000000
                                                     2        0.1600000        0.09327889    0.00000000
                                                     2        0.4000000       -0.19693326    0.00000000
                                                     2        0.9000000        0.34938253    0.00000000
    6          7            7
                                      G and up 
                                                     0        0.0000010       -0.00000022    0.00000000
                                                     2        0.1200000       -0.00992020    0.00000000
                                                     2        0.1400000        0.02578711    0.00000000
                                                     2        0.2200000       -0.10543517    0.00000000
                                                     2        0.3000000        0.23013665    0.00000000
                                                     2        0.5000000       -0.60834094    0.00000000
                                                     2        0.8000000        1.81436815    0.00000000
                                                     2        1.2000000       -3.87539738    0.00000000
                                                     2        2.0000000        2.94656640    0.00000000
                                      S - G
                                                     0        0.0000010       -0.00223566    0.00000000
                                                     2        0.1200000        0.45247937    0.00000000
                                                     2        0.1600000       -0.78978304    0.00000000
                                                     2        0.4000000        0.84956595    0.00000000
                                                     2        3.0000000       -0.75910174    0.00000000
                                      P - G
                                                     0        0.0000010       -0.25576737    0.00000000
                                                     2        0.1200000       -0.19992277    0.00000000
                                                     2        0.1600000        0.88518512    0.00000000
                                                     2        0.2400000       -1.33293917    0.00000000
                                                     2        0.4000000        1.33451776    0.00000000
                                                     2        0.9000000       -0.55709210    0.00000000
                                                     2        2.5000000        2.48506502    0.00000000
                                      D - G
                                                     0        0.0000010        0.26143746    0.00000000
                                                     2        0.1200000       -0.04492212    0.00000000
                                                     2        0.1400000       -0.18274021    0.00000000
                                                     2        0.2400000        0.53490004    0.00000000
                                                     2        0.4000000       -0.74136473    0.00000000
                                                     2        1.3000000        1.71401021    0.00000000
                                      F - G
                                                     0        0.0000010       -0.07169988    0.00000000
                                                     2        0.1200000        0.04480029    0.00000000
                                                     2        0.2600000       -0.08050831    0.00000000
                                                     2        0.5000000        0.31290809    0.00000000
                                                     2        1.0000000       -0.45253098    0.00000000
    7          8            8
                                      G and up 
                                                     0        0.0000010        0.00001165    0.00000000
                                                     2        0.1200000       -0.01744018    0.00000000
                                                     2        0.1400000        0.05401326    0.00000000
                                                     2        0.1800000       -0.08231208    0.00000000
                                                     2        0.2600000        0.11570222    0.00000000
                                                     2        0.4000000       -0.20630360    0.00000000
                                                     2        0.7000000        0.38074319    0.00000000
                                                     2        1.2000000       -0.17045091    0.00000000
                                                     2        2.0000000       -1.45433187    0.00000000
                                      S - G
                                                     0        0.0000010       -0.00117944    0.00000000
                                                     2        0.1400000        0.04368312    0.00000000
                                                     2        0.3000000       -0.33477926    0.00000000
                                                     2        0.6000000        1.52630657    0.00000000
                                                     2        1.5000000       -2.50804716    0.00000000
                                                     2        3.0000000        2.89751681    0.00000000
                                      P - G
                                                     0        0.0000010        0.06576007    0.00000000
                                                     2        0.1200000       -0.10329304    0.00000000
                                                     2        0.2000000        0.24891756    0.00000000
                                                     2        0.4000000       -0.50800022    0.00000000
                                                     2        0.9000000        0.81480796    0.00000000
                                      D - G
                                                     0        0.0000010       -0.14101855    0.00000000
                                                     2        0.1200000        0.22105937    0.00000000
                                                     2        0.1800000       -0.45814988    0.00000000
                                                     2        0.3000000        0.46029282    0.00000000
                                      F - G
                                                     0        0.0000010        0.07483044    0.00000000
                                                     2        0.1200000       -0.09134252    0.00000000
                                                     2        0.1400000        0.04125459    0.00000000
                                                     2        0.3000000        0.37914837    0.00000000
                                                     2        0.5000000       -0.86881279    0.00000000
    8          8            8
                                      G and up 
                                                     0        0.0000010        0.00001165    0.00000000
                                                     2        0.1200000       -0.01744018    0.00000000
                                                     2        0.1400000        0.05401326    0.00000000
                                                     2        0.1800000       -0.08231208    0.00000000
                                                     2        0.2600000        0.11570222    0.00000000
                                                     2        0.4000000       -0.20630360    0.00000000
                                                     2        0.7000000        0.38074319    0.00000000
                                                     2        1.2000000       -0.17045091    0.00000000
                                                     2        2.0000000       -1.45433187    0.00000000
                                      S - G
                                                     0        0.0000010       -0.00117944    0.00000000
                                                     2        0.1400000        0.04368312    0.00000000
                                                     2        0.3000000       -0.33477926    0.00000000
                                                     2        0.6000000        1.52630657    0.00000000
                                                     2        1.5000000       -2.50804716    0.00000000
                                                     2        3.0000000        2.89751681    0.00000000
                                      P - G
                                                     0        0.0000010        0.06576007    0.00000000
                                                     2        0.1200000       -0.10329304    0.00000000
                                                     2        0.2000000        0.24891756    0.00000000
                                                     2        0.4000000       -0.50800022    0.00000000
                                                     2        0.9000000        0.81480796    0.00000000
                                      D - G
                                                     0        0.0000010       -0.14101855    0.00000000
                                                     2        0.1200000        0.22105937    0.00000000
                                                     2        0.1800000       -0.45814988    0.00000000
                                                     2        0.3000000        0.46029282    0.00000000
                                      F - G
                                                     0        0.0000010        0.07483044    0.00000000
                                                     2        0.1200000       -0.09134252    0.00000000
                                                     2        0.1400000        0.04125459    0.00000000
                                                     2        0.3000000        0.37914837    0.00000000
                                                     2        0.5000000       -0.86881279    0.00000000
    9          7            7
                                      G and up 
                                                     0        0.0000010       -0.00000022    0.00000000
                                                     2        0.1200000       -0.00992020    0.00000000
                                                     2        0.1400000        0.02578711    0.00000000
                                                     2        0.2200000       -0.10543517    0.00000000
                                                     2        0.3000000        0.23013665    0.00000000
                                                     2        0.5000000       -0.60834094    0.00000000
                                                     2        0.8000000        1.81436815    0.00000000
                                                     2        1.2000000       -3.87539738    0.00000000
                                                     2        2.0000000        2.94656640    0.00000000
                                      S - G
                                                     0        0.0000010       -0.00223566    0.00000000
                                                     2        0.1200000        0.45247937    0.00000000
                                                     2        0.1600000       -0.78978304    0.00000000
                                                     2        0.4000000        0.84956595    0.00000000
                                                     2        3.0000000       -0.75910174    0.00000000
                                      P - G
                                                     0        0.0000010       -0.25576737    0.00000000
                                                     2        0.1200000       -0.19992277    0.00000000
                                                     2        0.1600000        0.88518512    0.00000000
                                                     2        0.2400000       -1.33293917    0.00000000
                                                     2        0.4000000        1.33451776    0.00000000
                                                     2        0.9000000       -0.55709210    0.00000000
                                                     2        2.5000000        2.48506502    0.00000000
                                      D - G
                                                     0        0.0000010        0.26143746    0.00000000
                                                     2        0.1200000       -0.04492212    0.00000000
                                                     2        0.1400000       -0.18274021    0.00000000
                                                     2        0.2400000        0.53490004    0.00000000
                                                     2        0.4000000       -0.74136473    0.00000000
                                                     2        1.3000000        1.71401021    0.00000000
                                      F - G
                                                     0        0.0000010       -0.07169988    0.00000000
                                                     2        0.1200000        0.04480029    0.00000000
                                                     2        0.2600000       -0.08050831    0.00000000
                                                     2        0.5000000        0.31290809    0.00000000
                                                     2        1.0000000       -0.45253098    0.00000000
   10          1            1
                                      F and up 
                                                     0        0.0000010       -0.00000699    0.00000000
                                                     2        0.1200000        0.00123686    0.00000000
                                                     2        0.1800000       -0.00752022    0.00000000
                                                     2        0.2600000        0.02503380    0.00000000
                                                     2        0.4000000       -0.08702670    0.00000000
                                                     2        0.6000000        0.30134159    0.00000000
                                                     2        0.8000000       -0.50204959    0.00000000
                                                     2        1.2000000        0.52208372    0.00000000
                                      S - F
                                                     0        0.0000010       -0.01618346    0.00000000
                                                     2        0.1200000       -0.07880581    0.00000000
                                                     2        0.1600000        0.32040539    0.00000000
                                                     2        0.2400000       -0.47500956    0.00000000
                                                     2        0.5000000        0.54013668    0.00000000
                                                     2        1.5000000       -1.40434292    0.00000000
                                                     2        3.0000000        1.46283806    0.00000000
                                      P - F
                                                     0        0.0000010        0.00612970    0.00000000
                                                     2        0.1200000        0.02254406    0.00000000
                                                     2        0.1800000       -0.13874529    0.00000000
                                                     2        0.3000000        0.38299049    0.00000000
                                                     2        0.5000000       -0.57923512    0.00000000
                                                     2        1.0000000        0.63021625    0.00000000
                                                     2        2.0000000       -0.79201034    0.00000000
                                      D - F
                                                     0        0.0000010       -0.00296226    0.00000000
                                                     2        0.1200000       -0.00547344    0.00000000
                                                     2        0.1400000        0.01837884    0.00000000
                                                     2        0.2400000       -0.05565704    0.00000000
                                                     2        0.4000000        0.15376597    0.00000000
                                                     2        0.8000000       -0.32464795    0.00000000
   11          1            1
                                      F and up 
                                                     0        0.0000010       -0.00000699    0.00000000
                                                     2        0.1200000        0.00123686    0.00000000
                                                     2        0.1800000       -0.00752022    0.00000000
                                                     2        0.2600000        0.02503380    0.00000000
                                                     2        0.4000000       -0.08702670    0.00000000
                                                     2        0.6000000        0.30134159    0.00000000
                                                     2        0.8000000       -0.50204959    0.00000000
                                                     2        1.2000000        0.52208372    0.00000000
                                      S - F
                                                     0        0.0000010       -0.01618346    0.00000000
                                                     2        0.1200000       -0.07880581    0.00000000
                                                     2        0.1600000        0.32040539    0.00000000
                                                     2        0.2400000       -0.47500956    0.00000000
                                                     2        0.5000000        0.54013668    0.00000000
                                                     2        1.5000000       -1.40434292    0.00000000
                                                     2        3.0000000        1.46283806    0.00000000
                                      P - F
                                                     0        0.0000010        0.00612970    0.00000000
                                                     2        0.1200000        0.02254406    0.00000000
                                                     2        0.1800000       -0.13874529    0.00000000
                                                     2        0.3000000        0.38299049    0.00000000
                                                     2        0.5000000       -0.57923512    0.00000000
                                                     2        1.0000000        0.63021625    0.00000000
                                                     2        2.0000000       -0.79201034    0.00000000
                                      D - F
                                                     0        0.0000010       -0.00296226    0.00000000
                                                     2        0.1200000       -0.00547344    0.00000000
                                                     2        0.1400000        0.01837884    0.00000000
                                                     2        0.2400000       -0.05565704    0.00000000
                                                     2        0.4000000        0.15376597    0.00000000
                                                     2        0.8000000       -0.32464795    0.00000000
   12          6            6
                                      G and up 
                                                     0        0.0000010       -0.00011185    0.00000000
                                                     2        0.1200000       -0.02301220    0.00000000
                                                     2        0.1400000        0.13317600    0.00000000
                                                     2        0.1600000       -0.19690668    0.00000000
                                                     2        0.2200000        0.23163694    0.00000000
                                                     2        0.3000000       -0.36920489    0.00000000
                                                     2        0.4000000        0.36389709    0.00000000
                                                     2        0.7000000       -0.38862160    0.00000000
                                                     2        1.3000000        0.80803421    0.00000000
                                      S - G
                                                     0        0.0000010        0.00312304    0.00000000
                                                     2        0.1200000       -0.00632892    0.00000000
                                                     2        0.2200000       -0.03780897    0.00000000
                                                     2        0.4000000        0.26269560    0.00000000
                                                     2        0.9000000       -0.28209514    0.00000000
                                                     2        1.5000000       -0.72686737    0.00000000
                                      P - G
                                                     0        0.0000010       -0.01465594    0.00000000
                                                     2        0.1200000        0.07908409    0.00000000
                                                     2        0.1800000       -0.30615861    0.00000000
                                                     2        0.2600000        0.41506950    0.00000000
                                                     2        0.5000000       -0.36252345    0.00000000
                                                     2        0.9000000        0.15124193    0.00000000
                                                     2        3.0000000       -0.80425677    0.00000000
                                      D - G
                                                     0        0.0000010        0.01149631    0.00000000
                                                     2        0.1200000       -0.04713561    0.00000000
                                                     2        0.1600000        0.10865096    0.00000000
                                                     2        0.2800000       -0.15816701    0.00000000
                                                     2        0.7000000        0.65478804    0.00000000
                                                     2        1.3000000       -1.73816624    0.00000000
                                      F - G
                                                     0        0.0000010        0.00481868    0.00000000
                                                     2        0.1200000       -0.04746842    0.00000000
                                                     2        0.1600000        0.09327889    0.00000000
                                                     2        0.4000000       -0.19693326    0.00000000
                                                     2        0.9000000        0.34938253    0.00000000
   13          7            7
                                      G and up 
                                                     0        0.0000010       -0.00000022    0.00000000
                                                     2        0.1200000       -0.00992020    0.00000000
                                                     2        0.1400000        0.02578711    0.00000000
                                                     2        0.2200000       -0.10543517    0.00000000
                                                     2        0.3000000        0.23013665    0.00000000
                                                     2        0.5000000       -0.60834094    0.00000000
                                                     2        0.8000000        1.81436815    0.00000000
                                                     2        1.2000000       -3.87539738    0.00000000
                                                     2        2.0000000        2.94656640    0.00000000
                                      S - G
                                                     0        0.0000010       -0.00223566    0.00000000
                                                     2        0.1200000        0.45247937    0.00000000
                                                     2        0.1600000       -0.78978304    0.00000000
                                                     2        0.4000000        0.84956595    0.00000000
                                                     2        3.0000000       -0.75910174    0.00000000
                                      P - G
                                                     0        0.0000010       -0.25576737    0.00000000
                                                     2        0.1200000       -0.19992277    0.00000000
                                                     2        0.1600000        0.88518512    0.00000000
                                                     2        0.2400000       -1.33293917    0.00000000
                                                     2        0.4000000        1.33451776    0.00000000
                                                     2        0.9000000       -0.55709210    0.00000000
                                                     2        2.5000000        2.48506502    0.00000000
                                      D - G
                                                     0        0.0000010        0.26143746    0.00000000
                                                     2        0.1200000       -0.04492212    0.00000000
                                                     2        0.1400000       -0.18274021    0.00000000
                                                     2        0.2400000        0.53490004    0.00000000
                                                     2        0.4000000       -0.74136473    0.00000000
                                                     2        1.3000000        1.71401021    0.00000000
                                      F - G
                                                     0        0.0000010       -0.07169988    0.00000000
                                                     2        0.1200000        0.04480029    0.00000000
                                                     2        0.2600000       -0.08050831    0.00000000
                                                     2        0.5000000        0.31290809    0.00000000
                                                     2        1.0000000       -0.45253098    0.00000000
   14          7            7
                                      G and up 
                                                     0        0.0000010       -0.00000022    0.00000000
                                                     2        0.1200000       -0.00992020    0.00000000
                                                     2        0.1400000        0.02578711    0.00000000
                                                     2        0.2200000       -0.10543517    0.00000000
                                                     2        0.3000000        0.23013665    0.00000000
                                                     2        0.5000000       -0.60834094    0.00000000
                                                     2        0.8000000        1.81436815    0.00000000
                                                     2        1.2000000       -3.87539738    0.00000000
                                                     2        2.0000000        2.94656640    0.00000000
                                      S - G
                                                     0        0.0000010       -0.00223566    0.00000000
                                                     2        0.1200000        0.45247937    0.00000000
                                                     2        0.1600000       -0.78978304    0.00000000
                                                     2        0.4000000        0.84956595    0.00000000
                                                     2        3.0000000       -0.75910174    0.00000000
                                      P - G
                                                     0        0.0000010       -0.25576737    0.00000000
                                                     2        0.1200000       -0.19992277    0.00000000
                                                     2        0.1600000        0.88518512    0.00000000
                                                     2        0.2400000       -1.33293917    0.00000000
                                                     2        0.4000000        1.33451776    0.00000000
                                                     2        0.9000000       -0.55709210    0.00000000
                                                     2        2.5000000        2.48506502    0.00000000
                                      D - G
                                                     0        0.0000010        0.26143746    0.00000000
                                                     2        0.1200000       -0.04492212    0.00000000
                                                     2        0.1400000       -0.18274021    0.00000000
                                                     2        0.2400000        0.53490004    0.00000000
                                                     2        0.4000000       -0.74136473    0.00000000
                                                     2        1.3000000        1.71401021    0.00000000
                                      F - G
                                                     0        0.0000010       -0.07169988    0.00000000
                                                     2        0.1200000        0.04480029    0.00000000
                                                     2        0.2600000       -0.08050831    0.00000000
                                                     2        0.5000000        0.31290809    0.00000000
                                                     2        1.0000000       -0.45253098    0.00000000
   15          1            1
                                      F and up 
                                                     0        0.0000010       -0.00000699    0.00000000
                                                     2        0.1200000        0.00123686    0.00000000
                                                     2        0.1800000       -0.00752022    0.00000000
                                                     2        0.2600000        0.02503380    0.00000000
                                                     2        0.4000000       -0.08702670    0.00000000
                                                     2        0.6000000        0.30134159    0.00000000
                                                     2        0.8000000       -0.50204959    0.00000000
                                                     2        1.2000000        0.52208372    0.00000000
                                      S - F
                                                     0        0.0000010       -0.01618346    0.00000000
                                                     2        0.1200000       -0.07880581    0.00000000
                                                     2        0.1600000        0.32040539    0.00000000
                                                     2        0.2400000       -0.47500956    0.00000000
                                                     2        0.5000000        0.54013668    0.00000000
                                                     2        1.5000000       -1.40434292    0.00000000
                                                     2        3.0000000        1.46283806    0.00000000
                                      P - F
                                                     0        0.0000010        0.00612970    0.00000000
                                                     2        0.1200000        0.02254406    0.00000000
                                                     2        0.1800000       -0.13874529    0.00000000
                                                     2        0.3000000        0.38299049    0.00000000
                                                     2        0.5000000       -0.57923512    0.00000000
                                                     2        1.0000000        0.63021625    0.00000000
                                                     2        2.0000000       -0.79201034    0.00000000
                                      D - F
                                                     0        0.0000010       -0.00296226    0.00000000
                                                     2        0.1200000       -0.00547344    0.00000000
                                                     2        0.1400000        0.01837884    0.00000000
                                                     2        0.2400000       -0.05565704    0.00000000
                                                     2        0.4000000        0.15376597    0.00000000
                                                     2        0.8000000       -0.32464795    0.00000000
   16          1            1
                                      F and up 
                                                     0        0.0000010       -0.00000699    0.00000000
                                                     2        0.1200000        0.00123686    0.00000000
                                                     2        0.1800000       -0.00752022    0.00000000
                                                     2        0.2600000        0.02503380    0.00000000
                                                     2        0.4000000       -0.08702670    0.00000000
                                                     2        0.6000000        0.30134159    0.00000000
                                                     2        0.8000000       -0.50204959    0.00000000
                                                     2        1.2000000        0.52208372    0.00000000
                                      S - F
                                                     0        0.0000010       -0.01618346    0.00000000
                                                     2        0.1200000       -0.07880581    0.00000000
                                                     2        0.1600000        0.32040539    0.00000000
                                                     2        0.2400000       -0.47500956    0.00000000
                                                     2        0.5000000        0.54013668    0.00000000
                                                     2        1.5000000       -1.40434292    0.00000000
                                                     2        3.0000000        1.46283806    0.00000000
                                      P - F
                                                     0        0.0000010        0.00612970    0.00000000
                                                     2        0.1200000        0.02254406    0.00000000
                                                     2        0.1800000       -0.13874529    0.00000000
                                                     2        0.3000000        0.38299049    0.00000000
                                                     2        0.5000000       -0.57923512    0.00000000
                                                     2        1.0000000        0.63021625    0.00000000
                                                     2        2.0000000       -0.79201034    0.00000000
                                      D - F
                                                     0        0.0000010       -0.00296226    0.00000000
                                                     2        0.1200000       -0.00547344    0.00000000
                                                     2        0.1400000        0.01837884    0.00000000
                                                     2        0.2400000       -0.05565704    0.00000000
                                                     2        0.4000000        0.15376597    0.00000000
                                                     2        0.8000000       -0.32464795    0.00000000
 ======================================================================================================
   302 basis functions,   566 primitive gaussians,   324 cartesian basis functions
    47 alpha electrons       47 beta electrons
       nuclear repulsion energy       771.7700978371 Hartrees.
 NAtoms=   16 NActive=   16 NUniq=   16 SFac= 1.00D+00 NAtFMM=   60 NAOKFM=F Big=F
   1 Symmetry operations used in ECPInt.
 ECPInt:  NShTT=    8001 NPrTT=   48173 LenC2=    7940 LenP2D=   32457.
 LDataN:  DoStor=T MaxTD1= 6 Len=  172
 Initial guess from the checkpoint file:  "E2SN2_243_mol1.chk"
 B after Tr=     0.468142   -1.020253   -0.954321
         Rot=   -0.059559    0.509292    0.768486    0.382759 Ang= 186.83 deg.
 >>>>>>>>>> Convergence criterion not met.
 SCF Done:  E(RHF) =  -1043.10708319     A.U. after    2 cycles
            NFock=  1  Conv=0.72D-02     -V/T= 1.9977

 **********************************************************************

            Population analysis using the SCF Density.

 **********************************************************************

 Orbital symmetries:
       Occupied  (A) (A) (A) (A) (A) (A) (A) (A) (A) (A) (A) (A)
                 (A) (A) (A) (A) (A) (A) (A) (A) (A) (A) (A) (A)
                 (A) (A) (A) (A) (A) (A) (A) (A) (A) (A) (A) (A)
                 (A) (A) (A) (A) (A) (A) (A) (A) (A) (A) (A)
       Virtual   (A) (A) (A) (A) (A) (A) (A) (A) (A) (A) (A) (A)
                 (A) (A) (A) (A) (A) (A) (A) (A) (A) (A) (A) (A)
                 (A) (A) (A) (A) (A) (A) (A) (A) (A) (A) (A) (A)
                 (A) (A) (A) (A) (A) (A) (A) (A) (A) (A) (A) (A)
                 (A) (A) (A) (A) (A) (A) (A) (A) (A) (A) (A) (A)
                 (A) (A) (A) (A) (A) (A) (A) (A) (A) (A) (A) (A)
                 (A) (A) (A) (A) (A) (A) (A) (A) (A) (A) (A) (A)
                 (A) (A) (A) (A) (A) (A) (A) (A) (A) (A) (A) (A)
                 (A) (A) (A) (A) (A) (A) (A) (A) (A) (A) (A) (A)
                 (A) (A) (A) (A) (A) (A) (A) (A) (A) (A) (A) (A)
                 (A) (A) (A) (A) (A) (A) (A) (A) (A) (A) (A) (A)
                 (A) (A) (A) (A) (A) (A) (A) (A) (A) (A) (A) (A)
                 (A) (A) (A) (A) (A) (A) (A) (A) (A) (A) (A) (A)
                 (A) (A) (A) (A) (A) (A) (A) (A) (A) (A) (A) (A)
                 (A) (A) (A) (A) (A) (A) (A) (A) (A) (A) (A) (A)
                 (A) (A) (A) (A) (A) (A) (A) (A) (A) (A) (A) (A)
                 (A) (A) (A) (A) (A) (A) (A) (A) (A) (A) (A) (A)
                 (A) (A) (A) (A) (A) (A) (A) (A) (A) (A) (A) (A)
                 (A) (A) (A) (A) (A) (A) (A) (A) (A) (A) (A) (A)
                 (A) (A) (A) (A) (A) (A) (A) (A) (A) (A) (A) (A)
                 (A) (A) (A) (A) (A) (A) (A) (A) (A) (A) (A) (A)
                 (A) (A) (A)
 The electronic state is 1-A.
 Alpha  occ. eigenvalues -- -103.46157 -25.85744 -20.48798 -20.48579 -15.79572
 Alpha  occ. eigenvalues --  -15.51978 -15.51367 -15.50402 -11.33412 -11.21719
 Alpha  occ. eigenvalues --  -11.17571 -10.49481  -8.15130  -8.14980  -8.14965
 Alpha  occ. eigenvalues --   -1.42133  -1.35991  -1.23697  -1.11270  -1.07033
 Alpha  occ. eigenvalues --   -1.04250  -0.93890  -0.88791  -0.85126  -0.69844
 Alpha  occ. eigenvalues --   -0.64290  -0.61714  -0.61161  -0.59697  -0.57835
 Alpha  occ. eigenvalues --   -0.56892  -0.49736  -0.47797  -0.45202  -0.44496
 Alpha  occ. eigenvalues --   -0.43450  -0.42808  -0.40237  -0.38981  -0.35146
 Alpha  occ. eigenvalues --   -0.34521  -0.33332  -0.32089  -0.29329  -0.29196
 Alpha  occ. eigenvalues --   -0.28712  -0.28261
 Alpha virt. eigenvalues --    0.12585   0.13478   0.14143   0.16676   0.17537
 Alpha virt. eigenvalues --    0.18108   0.18625   0.21194   0.21482   0.22861
 Alpha virt. eigenvalues --    0.23833   0.24427   0.25352   0.26303   0.26643
 Alpha virt. eigenvalues --    0.26828   0.27842   0.28682   0.28860   0.29715
 Alpha virt. eigenvalues --    0.30400   0.30703   0.31233   0.32004   0.32617
 Alpha virt. eigenvalues --    0.33571   0.34173   0.34800   0.35490   0.36011
 Alpha virt. eigenvalues --    0.37005   0.38374   0.38531   0.39663   0.40108
 Alpha virt. eigenvalues --    0.41463   0.43541   0.43569   0.43895   0.44338
 Alpha virt. eigenvalues --    0.45896   0.47024   0.48051   0.48354   0.48661
 Alpha virt. eigenvalues --    0.49706   0.51150   0.51593   0.51688   0.53124
 Alpha virt. eigenvalues --    0.53376   0.54175   0.54513   0.55663   0.57231
 Alpha virt. eigenvalues --    0.58131   0.59226   0.59502   0.60527   0.61947
 Alpha virt. eigenvalues --    0.62209   0.62983   0.63897   0.65306   0.66124
 Alpha virt. eigenvalues --    0.67301   0.67814   0.69101   0.69690   0.70030
 Alpha virt. eigenvalues --    0.70924   0.71627   0.72873   0.73326   0.73813
 Alpha virt. eigenvalues --    0.74905   0.75874   0.77354   0.78545   0.79647
 Alpha virt. eigenvalues --    0.80603   0.81425   0.82320   0.82869   0.85195
 Alpha virt. eigenvalues --    0.86432   0.86993   0.88360   0.89406   0.90177
 Alpha virt. eigenvalues --    0.92114   0.94314   0.95080   0.96330   0.97428
 Alpha virt. eigenvalues --    0.97991   0.99182   1.00768   1.01250   1.02894
 Alpha virt. eigenvalues --    1.04068   1.04730   1.07963   1.08750   1.09473
 Alpha virt. eigenvalues --    1.10972   1.11190   1.12707   1.14692   1.16100
 Alpha virt. eigenvalues --    1.17416   1.19137   1.19672   1.21645   1.22394
 Alpha virt. eigenvalues --    1.23546   1.26170   1.27452   1.28023   1.30417
 Alpha virt. eigenvalues --    1.30910   1.32427   1.33114   1.34549   1.36816
 Alpha virt. eigenvalues --    1.37586   1.37754   1.39037   1.41543   1.42044
 Alpha virt. eigenvalues --    1.43231   1.44490   1.44752   1.45624   1.48094
 Alpha virt. eigenvalues --    1.50071   1.52263   1.53383   1.54081   1.57109
 Alpha virt. eigenvalues --    1.60056   1.61144   1.62108   1.62745   1.64182
 Alpha virt. eigenvalues --    1.65473   1.65936   1.68796   1.70066   1.71425
 Alpha virt. eigenvalues --    1.72998   1.74104   1.76796   1.78639   1.79336
 Alpha virt. eigenvalues --    1.81193   1.81785   1.84078   1.85578   1.88275
 Alpha virt. eigenvalues --    1.89647   1.90295   1.91113   1.93118   1.93623
 Alpha virt. eigenvalues --    1.96707   1.98510   2.00275   2.03165   2.05477
 Alpha virt. eigenvalues --    2.06031   2.08410   2.10261   2.12665   2.14808
 Alpha virt. eigenvalues --    2.17542   2.17959   2.20069   2.23498   2.25688
 Alpha virt. eigenvalues --    2.27406   2.28337   2.32213   2.34945   2.36390
 Alpha virt. eigenvalues --    2.37028   2.38706   2.41572   2.43724   2.44891
 Alpha virt. eigenvalues --    2.48840   2.50854   2.53061   2.57059   2.59577
 Alpha virt. eigenvalues --    2.60108   2.62466   2.64509   2.66114   2.67032
 Alpha virt. eigenvalues --    2.68767   2.70072   2.72586   2.74065   2.74597
 Alpha virt. eigenvalues --    2.78075   2.80174   2.84347   2.84380   2.86160
 Alpha virt. eigenvalues --    2.89957   2.91326   2.92624   2.96358   3.01357
 Alpha virt. eigenvalues --    3.03043   3.07087   3.09245   3.15672   3.20592
 Alpha virt. eigenvalues --    3.21839   3.23822   3.25722   3.28649   3.32630
 Alpha virt. eigenvalues --    3.36258   3.41580   3.44671   3.53848   3.57627
 Alpha virt. eigenvalues --    3.63320   3.64434   3.66697   3.71377   3.73002
 Alpha virt. eigenvalues --    3.75310   3.77829   3.79693   3.81370   3.83700
 Alpha virt. eigenvalues --    3.90709   3.97121   3.98657   4.03418   4.06094
 Alpha virt. eigenvalues --    4.11100   4.23920   4.26514   4.35966   5.23487
 Alpha virt. eigenvalues --    5.34467   5.36626   5.40604   5.47986   5.59494
          Condensed to atoms (all electrons):
 Mulliken charges:
               1
     1  C    0.585101
     2  H   -0.080039
     3  F   -0.769187
     4  Cl  -0.541514
     5  C    1.200342
     6  N    0.740598
     7  O   -0.683281
     8  O   -0.702288
     9  N   -0.226664
    10  H    0.095015
    11  H    0.121579
    12  C   -0.174085
    13  N   -0.325580
    14  N   -0.351243
    15  H   -0.023312
    16  H    0.134559
 Sum of Mulliken charges =  -1.00000
 Mulliken charges with hydrogens summed into heavy atoms:
               1
     1  C    0.585101
     3  F   -0.769187
     4  Cl  -0.541514
     5  C    1.120303
     6  N    0.740598
     7  O   -0.683281
     8  O   -0.702288
     9  N   -0.010071
    12  C   -0.174085
    13  N   -0.325580
    14  N   -0.239996
 Electronic spatial extent (au):  <R**2>=           1755.9617
 Charge=             -1.0000 electrons
 Dipole moment (field-independent basis, Debye):
    X=              0.7613    Y=              0.7077    Z=              0.5667  Tot=              1.1839

 Test job not archived.
 1\1\GINC-SE457\SP\RHF\Aug-CC-pVDZ\C3H5Cl1F1N4O2(1-)\OHZDE\09-Apr-2025\
 0\\#t hf aug-cc-pvdz iop(5/13=1,5/36=2,99/5=2) pseudo=read geom=check 
 guess=(read,tcheck) scf=(maxcycle=1)\\title\\-1,1\C,0,0.76651651,-0.02
 43716,0.0030107\H,0,1.74474561,1.87385162,0.20560303\F,0,-1.12038793,0
 .05531831,-0.16060369\Cl,0,2.97303584,-0.23458938,-0.18322011\C,0,0.73
 093714,1.51375854,0.02900809\N,0,0.61847011,-0.87437285,-1.25966549\O,
 0,0.64020134,-0.33880193,-2.3528708\O,0,0.48905078,-2.07444849,-1.0523
 0875\N,0,0.68418973,-0.67488763,1.24341222\H,0,1.24355297,-1.51523848,
 1.22350692\H,0,-0.2963355,-0.89959962,1.36732595\C,0,-0.05932306,1.917
 35016,1.21897295\N,0,-0.63408612,2.41775308,2.11381726\N,0,0.22950799,
 2.13169661,-1.18635076\H,0,0.1110101,3.12207571,-1.00526305\H,0,-0.683
 18551,1.71944596,-1.34414448\\Version=ES64L-G16RevC.01\State=1-A\HF=-1
 043.1070832\RMSD=7.174e-03\Dipole=0.1551135,0.4178935,0.1350629\Quadru
 pole=-4.2491373,6.5266683,-2.277531,3.6456385,4.4503743,-10.1456059\PG
 =C01 [X(C3H5Cl1F1N4O2)]\\@


 The hours that make us happy make us wise.
                         -- John Masefield
 Job cpu time:       0 days  0 hours  2 minutes 14.1 seconds.
 Elapsed time:       0 days  0 hours  0 minutes  9.6 seconds.
 File lengths (MBytes):  RWF=     15 Int=      0 D2E=      0 Chk=     13 Scr=      1
 Normal termination of Gaussian 16 at Wed Apr  9 02:43:00 2025.
