 Entering Gaussian System, Link 0=g16
 Input=E2SN2_280_mol1.gjf
 Output=E2SN2_280_mol1.log
 Initial command:
 /arc/software/Gaussian/g16.c01/l1.exe "/tmp/slurm/4859233/Gau-2396296.inp" -scrdir="/tmp/slurm/4859233/"
 Entering Link 1 = /arc/software/Gaussian/g16.c01/l1.exe PID=   2396297.
  
 Copyright (c) 1988-2019, Gaussian, Inc.  All Rights Reserved.
  
 This is part of the Gaussian(R) 16 program.  It is based on
 the Gaussian(R) 09 system (copyright 2009, Gaussian, Inc.),
 the Gaussian(R) 03 system (copyright 2003, Gaussian, Inc.),
 the Gaussian(R) 98 system (copyright 1998, Gaussian, Inc.),
 the Gaussian(R) 94 system (copyright 1995, Gaussian, Inc.),
 the Gaussian 92(TM) system (copyright 1992, Gaussian, Inc.),
 the Gaussian 90(TM) system (copyright 1990, Gaussian, Inc.),
 the Gaussian 88(TM) system (copyright 1988, Gaussian, Inc.),
 the Gaussian 86(TM) system (copyright 1986, Carnegie Mellon
 University), and the Gaussian 82(TM) system (copyright 1983,
 Carnegie Mellon University). Gaussian is a federally registered
 trademark of Gaussian, Inc.
  
 This software contains proprietary and confidential information,
 including trade secrets, belonging to Gaussian, Inc.
  
 This software is provided under written license and may be
 used, copied, transmitted, or stored only in accord with that
 written license.
  
 The following legend is applicable only to US Government
 contracts under FAR:
  
                    RESTRICTED RIGHTS LEGEND
  
 Use, reproduction and disclosure by the US Government is
 subject to restrictions as set forth in subparagraphs (a)
 and (c) of the Commercial Computer Software - Restricted
 Rights clause in FAR 52.227-19.
  
 Gaussian, Inc.
 340 Quinnipiac St., Bldg. 40, Wallingford CT 06492
  
  
 ---------------------------------------------------------------
 Warning -- This program may not be used in any manner that
 competes with the business of Gaussian, Inc. or will provide
 assistance to any competitor of Gaussian, Inc.  The licensee
 of this program is prohibited from giving any competitor of
 Gaussian, Inc. access to this program.  By using this program,
 the user acknowledges that Gaussian, Inc. is engaged in the
 business of creating and licensing software in the field of
 computational chemistry and represents and warrants to the
 licensee that it is not a competitor of Gaussian, Inc. and that
 it will not use this program in any manner prohibited above.
 ---------------------------------------------------------------
  

 Cite this work as:
 Gaussian 16, Revision C.01,
 M. J. Frisch, G. W. Trucks, H. B. Schlegel, G. E. Scuseria, 
 M. A. Robb, J. R. Cheeseman, G. Scalmani, V. Barone, 
 G. A. Petersson, H. Nakatsuji, X. Li, M. Caricato, A. V. Marenich, 
 J. Bloino, B. G. Janesko, R. Gomperts, B. Mennucci, H. P. Hratchian, 
 J. V. Ortiz, A. F. Izmaylov, J. L. Sonnenberg, D. Williams-Young, 
 F. Ding, F. Lipparini, F. Egidi, J. Goings, B. Peng, A. Petrone, 
 T. Henderson, D. Ranasinghe, V. G. Zakrzewski, J. Gao, N. Rega, 
 G. Zheng, W. Liang, M. Hada, M. Ehara, K. Toyota, R. Fukuda, 
 J. Hasegawa, M. Ishida, T. Nakajima, Y. Honda, O. Kitao, H. Nakai, 
 T. Vreven, K. Throssell, J. A. Montgomery, Jr., J. E. Peralta, 
 F. Ogliaro, M. J. Bearpark, J. J. Heyd, E. N. Brothers, K. N. Kudin, 
 V. N. Staroverov, T. A. Keith, R. Kobayashi, J. Normand, 
 K. Raghavachari, A. P. Rendell, J. C. Burant, S. S. Iyengar, 
 J. Tomasi, M. Cossi, J. M. Millam, M. Klene, C. Adamo, R. Cammi, 
 J. W. Ochterski, R. L. Martin, K. Morokuma, O. Farkas, 
 J. B. Foresman, and D. J. Fox, Gaussian, Inc., Wallingford CT, 2019.
 
 ******************************************
 Gaussian 16:  ES64L-G16RevC.01  3-Jul-2019
                 9-Apr-2025 
 ******************************************
 %nprocs=16
 Will use up to   16 processors via shared memory.
 %mem=30GB
 %chk=E2SN2_280_mol1.chk
 ----------------------------------------------------------------------
 #t hf aug-cc-pvdz symm=none int=(grid=ultrafine) guess=(read,tcheck) s
 table=(opt,rrhf)
 ----------------------------------------------------------------------
 -----
 title
 -----
 Symbolic Z-matrix:
 Charge = -1 Multiplicity = 1
 C                     0.45983  -0.10112   0.04763 
 H                     1.56108   1.59392   0.66664 
 Cl                   -1.7312   -0.2815    0.56006 
 F                     2.20862   0.09741  -0.6498 
 C                     0.61228   1.40657   0.17924 
 C                     0.20093  -0.78098  -1.19949 
 N                     0.03079  -1.449    -2.15279 
 C                     0.90281  -0.93406   1.23313 
 H                     1.98144  -1.06264   1.16861 
 H                     0.62674  -0.42878   2.158 
 H                     0.39908  -1.89815   1.20959 
 N                    -0.40341   2.14289   1.02886 
 O                    -1.20765   2.88794   0.48691 
 O                    -0.26317   1.9758    2.23537 
 N                     0.66493   2.1331   -1.12063 
 O                     1.40513   3.11431  -1.13855 
 O                    -0.06127   1.75676  -2.03 
 
                    Distance matrix (angstroms):
                    1          2          3          4          5
     1  C    0.000000
     2  H    2.114022   0.000000
     3  Cl   2.257371   3.790471   0.000000
     4  F    1.893176   2.095687   4.138787   0.000000
     5  C    1.521075   1.082995   2.913160   2.224750   0.000000
     6  C    1.443804   3.312497   2.660575   2.259326   2.618297
     7  N    2.615863   4.421582   3.439078   3.064852   3.732395
     8  C    1.515067   2.672996   2.795866   2.512865   2.583332
     9  H    2.120483   2.736062   3.842429   2.168858   2.991732
    10  H    2.142168   2.681130   2.852196   3.265419   2.698926
    11  H    2.140831   3.720163   2.752009   3.273225   3.468173
    12  N    2.596832   2.071660   2.803649   3.718148   1.515143
    13  O    3.450781   3.061475   3.213221   4.555229   2.366702
    14  O    3.102016   2.436106   3.171305   4.238200   2.306104
    15  N    2.529548   2.070777   3.794269   2.597823   1.490061
    16  O    3.555224   2.365296   4.924774   3.160096   2.298169
    17  O    2.835454   3.151256   3.694808   3.132220   2.336034
                    6          7          8          9         10
     6  C    0.000000
     7  N    1.176425   0.000000
     8  C    2.536480   3.534126   0.000000
     9  H    2.976153   3.871179   1.088187   0.000000
    10  H    3.402669   4.469783   1.089452   1.793290   0.000000
    11  H    2.662894   3.412176   1.088015   1.789867   1.763628
    12  N    3.725561   4.818001   3.348957   3.997810   2.991595
    13  O    4.276567   5.225976   4.429281   5.122708   4.142242
    14  O    4.428716   5.574195   3.291088   3.925355   2.565139
    15  N    2.951841   3.781394   3.873525   4.145669   4.161021
    16  O    4.077636   4.872509   4.718739   4.806465   4.901699
    17  O    2.683019   3.209430   4.337966   4.727876   4.773816
                   11         12         13         14         15
    11  H    0.000000
    12  N    4.123911   0.000000
    13  O    5.100049   1.222954   0.000000
    14  O    4.061812   1.226069   2.186584   0.000000
    15  N    4.663855   2.400371   2.580806   3.485522   0.000000
    16  O    5.625894   2.985326   3.085449   3.932274   1.229224
    17  O    4.905629   3.102068   2.988082   4.275764   1.223096
                   16         17
    16  O    0.000000
    17  O    2.188143   0.000000
 Symmetry turned off by external request.
 Rotational constants (GHZ):           0.8334378           0.7639355           0.5801725
   339 basis functions,   641 primitive gaussians,   365 cartesian basis functions
    54 alpha electrons       54 beta electrons
       nuclear repulsion energy       996.8367172153 Hartrees.
 NAtoms=   17 NActive=   17 NUniq=   17 SFac= 1.00D+00 NAtFMM=   60 NAOKFM=F Big=F
 ExpMin= 2.97D-02 ExpMax= 1.28D+05 ExpMxC= 1.24D+03 IAcc=3 IRadAn=         5 AccDes= 0.00D+00
 Harris functional with IExCor=  205 and IRadAn=       5 diagonalized for initial guess.
 HarFok:  IExCor=  205 AccDes= 0.00D+00 IRadAn=         5 IDoV= 1 UseB2=F ITyADJ=14
 ICtDFT=  3500011 ScaDFX=  1.000000  1.000000  1.000000  1.000000
 FoFCou: FMM=F IPFlag=           0 FMFlag=      100000 FMFlg1=           0
         NFxFlg=           0 DoJE=T BraDBF=F KetDBF=T FulRan=T
         wScrn=  0.000000 ICntrl=       500 IOpCl=  0 I1Cent=   200000004 NGrid=           0
         NMat0=    1 NMatS0=      1 NMatT0=    0 NMatD0=    1 NMtDS0=    0 NMtDT0=    0
 Symmetry not used in FoFCou.
 SCF Done:  E(RHF) =  -1175.36269175     A.U. after   18 cycles
            NFock= 18  Conv=0.68D-08     -V/T= 2.0011

 **********************************************************************

            Population analysis using the SCF Density.

 **********************************************************************

 Alpha  occ. eigenvalues -- -104.63826 -26.05826 -20.52950 -20.52449 -20.52360
 Alpha  occ. eigenvalues --  -20.51746 -15.77357 -15.76565 -15.46205 -11.30863
 Alpha  occ. eigenvalues --  -11.29094 -11.18269 -11.14433 -10.36465  -7.83139
 Alpha  occ. eigenvalues --   -7.82982  -7.82968  -1.52652  -1.50643  -1.32640
 Alpha  occ. eigenvalues --   -1.31776  -1.30924  -1.10119  -1.07568  -0.97547
 Alpha  occ. eigenvalues --   -0.87911  -0.86907  -0.81412  -0.75376  -0.69274
 Alpha  occ. eigenvalues --   -0.68865  -0.65857  -0.63189  -0.62114  -0.59944
 Alpha  occ. eigenvalues --   -0.54136  -0.51497  -0.50801  -0.46901  -0.44513
 Alpha  occ. eigenvalues --   -0.43514  -0.42905  -0.41491  -0.40021  -0.39641
 Alpha  occ. eigenvalues --   -0.38763  -0.37632  -0.36599  -0.35367  -0.33389
 Alpha  occ. eigenvalues --   -0.32832  -0.28584  -0.27840  -0.26748
 Alpha virt. eigenvalues --    0.12687   0.13732   0.15079   0.15611   0.16769
 Alpha virt. eigenvalues --    0.17858   0.18697   0.19348   0.20025   0.21446
 Alpha virt. eigenvalues --    0.21807   0.22603   0.23733   0.24729   0.24950
 Alpha virt. eigenvalues --    0.25451   0.25879   0.26903   0.27422   0.27719
 Alpha virt. eigenvalues --    0.28281   0.28782   0.29877   0.30404   0.30790
 Alpha virt. eigenvalues --    0.31586   0.32540   0.34497   0.35192   0.35627
 Alpha virt. eigenvalues --    0.36162   0.36852   0.37255   0.37405   0.38382
 Alpha virt. eigenvalues --    0.39590   0.40360   0.41348   0.41638   0.42800
 Alpha virt. eigenvalues --    0.42880   0.43361   0.43871   0.44775   0.45247
 Alpha virt. eigenvalues --    0.45684   0.46408   0.47315   0.47483   0.48192
 Alpha virt. eigenvalues --    0.49348   0.49808   0.50730   0.51289   0.52538
 Alpha virt. eigenvalues --    0.52593   0.53109   0.54752   0.55170   0.55813
 Alpha virt. eigenvalues --    0.56358   0.56715   0.57626   0.58630   0.59034
 Alpha virt. eigenvalues --    0.59702   0.60906   0.61731   0.62207   0.62829
 Alpha virt. eigenvalues --    0.63831   0.64515   0.65416   0.67425   0.67681
 Alpha virt. eigenvalues --    0.68034   0.68777   0.69757   0.70869   0.71428
 Alpha virt. eigenvalues --    0.72205   0.73730   0.74958   0.76163   0.77462
 Alpha virt. eigenvalues --    0.78209   0.78454   0.79614   0.80535   0.81059
 Alpha virt. eigenvalues --    0.82634   0.83669   0.84637   0.85847   0.87499
 Alpha virt. eigenvalues --    0.88687   0.89483   0.90447   0.90888   0.91745
 Alpha virt. eigenvalues --    0.92850   0.93312   0.94607   0.95828   0.96982
 Alpha virt. eigenvalues --    0.98039   0.99339   1.01718   1.02638   1.04240
 Alpha virt. eigenvalues --    1.04488   1.06395   1.07362   1.09197   1.09731
 Alpha virt. eigenvalues --    1.11155   1.12583   1.14925   1.14967   1.15468
 Alpha virt. eigenvalues --    1.17172   1.19208   1.20578   1.21344   1.22339
 Alpha virt. eigenvalues --    1.23592   1.23759   1.25611   1.26536   1.27639
 Alpha virt. eigenvalues --    1.29129   1.30215   1.31187   1.32613   1.33011
 Alpha virt. eigenvalues --    1.35183   1.36559   1.37309   1.37830   1.39295
 Alpha virt. eigenvalues --    1.39855   1.40446   1.41684   1.42146   1.42758
 Alpha virt. eigenvalues --    1.44456   1.45130   1.47147   1.49163   1.49876
 Alpha virt. eigenvalues --    1.51868   1.52824   1.53296   1.55328   1.56977
 Alpha virt. eigenvalues --    1.57075   1.58651   1.60031   1.61186   1.62570
 Alpha virt. eigenvalues --    1.64763   1.66190   1.66937   1.68393   1.68723
 Alpha virt. eigenvalues --    1.69707   1.72562   1.72736   1.73761   1.75431
 Alpha virt. eigenvalues --    1.77818   1.78591   1.79173   1.81295   1.81806
 Alpha virt. eigenvalues --    1.84442   1.85807   1.87382   1.88557   1.90336
 Alpha virt. eigenvalues --    1.90500   1.92991   1.95260   1.95776   1.97661
 Alpha virt. eigenvalues --    1.98695   2.01300   2.01834   2.02997   2.03747
 Alpha virt. eigenvalues --    2.04516   2.07281   2.09127   2.10517   2.12670
 Alpha virt. eigenvalues --    2.14720   2.16256   2.17735   2.21601   2.22082
 Alpha virt. eigenvalues --    2.22648   2.26230   2.26590   2.29333   2.30413
 Alpha virt. eigenvalues --    2.32988   2.35205   2.36403   2.38690   2.40009
 Alpha virt. eigenvalues --    2.44631   2.44998   2.47042   2.47993   2.50134
 Alpha virt. eigenvalues --    2.54342   2.55210   2.56863   2.58692   2.59552
 Alpha virt. eigenvalues --    2.62733   2.64321   2.65138   2.68179   2.70601
 Alpha virt. eigenvalues --    2.72215   2.73285   2.77045   2.79365   2.81154
 Alpha virt. eigenvalues --    2.81529   2.82384   2.84136   2.86903   2.89486
 Alpha virt. eigenvalues --    2.93247   2.96250   2.99621   3.03028   3.06489
 Alpha virt. eigenvalues --    3.08846   3.11749   3.13919   3.16014   3.17425
 Alpha virt. eigenvalues --    3.20558   3.24284   3.25696   3.31959   3.33805
 Alpha virt. eigenvalues --    3.51770   3.60417   3.66123   3.68369   3.71026
 Alpha virt. eigenvalues --    3.74537   3.81215   3.81895   3.83549   3.84309
 Alpha virt. eigenvalues --    3.85007   3.86441   3.87962   3.90848   3.92574
 Alpha virt. eigenvalues --    3.93053   3.96322   3.99721   4.02631   4.05081
 Alpha virt. eigenvalues --    4.08305   4.12714   4.13554   4.26833   4.29925
 Alpha virt. eigenvalues --    4.30773   4.36055   4.53745   4.71051   4.94590
 Alpha virt. eigenvalues --    5.28734   5.37561   5.39825   5.42530   5.52203
          Condensed to atoms (all electrons):
 Mulliken charges:
               1
     1  C    0.128263
     2  H   -0.068325
     3  Cl  -0.612539
     4  F   -0.809873
     5  C    2.003618
     6  C   -0.449045
     7  N   -0.446437
     8  C    0.723712
     9  H    0.144759
    10  H    0.096482
    11  H    0.016471
    12  N    0.846294
    13  O   -0.824797
    14  O   -0.879461
    15  N    0.806832
    16  O   -0.865504
    17  O   -0.810450
 Sum of Mulliken charges =  -1.00000
 Mulliken charges with hydrogens summed into heavy atoms:
               1
     1  C    0.128263
     3  Cl  -0.612539
     4  F   -0.809873
     5  C    1.935294
     6  C   -0.449045
     7  N   -0.446437
     8  C    0.981424
    12  N    0.846294
    13  O   -0.824797
    14  O   -0.879461
    15  N    0.806832
    16  O   -0.865504
    17  O   -0.810450
 Electronic spatial extent (au):  <R**2>=           2445.2912
 Charge=             -1.0000 electrons
 Dipole moment (field-independent basis, Debye):
    X=              1.3574    Y=             -2.5982    Z=              4.6932  Tot=              5.5334
 NROrb=    339 NOA=    54 NOB=    54 NVA=   285 NVB=   285

 **** Warning!!: The largest alpha MO coefficient is  0.81896586D+02

    12 initial guesses have been made.
 Iteration     1 Dimension    12 NMult     0 NNew     12
 New state      1 was old state      8
 Iteration     2 Dimension    24 NMult    12 NNew     12
 Iteration     3 Dimension    27 NMult    24 NNew      3
 Iteration     4 Dimension    30 NMult    27 NNew      3
 Iteration     5 Dimension    33 NMult    30 NNew      3
 Iteration     6 Dimension    36 NMult    33 NNew      3
 Iteration     7 Dimension    39 NMult    36 NNew      3
 Iteration     8 Dimension    42 NMult    39 NNew      3
 Iteration     9 Dimension    45 NMult    42 NNew      3
 Iteration    10 Dimension    48 NMult    45 NNew      3
 Iteration    11 Dimension    51 NMult    48 NNew      3
 Iteration    12 Dimension    54 NMult    51 NNew      3
 Iteration    13 Dimension    57 NMult    54 NNew      3
 Iteration    14 Dimension    60 NMult    57 NNew      3
 Iteration    15 Dimension    63 NMult    60 NNew      3
 Iteration    16 Dimension    66 NMult    63 NNew      3
 Iteration    17 Dimension    69 NMult    66 NNew      3
 Iteration    18 Dimension    72 NMult    69 NNew      3
 Iteration    19 Dimension    75 NMult    72 NNew      3
 ***********************************************************************
 Stability analysis using <AA,BB:AA,BB> singles matrix:
 ***********************************************************************
 Ground to excited state transition densities written to RWF  633

 Eigenvectors of the stability matrix:
 
 Excited state symmetry could not be determined.
 Eigenvector   1:      Singlet-?Sym  Eigenvalue= 0.1827090  <S**2>=0.000
      43 -> 59         0.17077
      43 -> 60        -0.17196
      44 -> 59        -0.38267
      44 -> 60         0.32077
      44 -> 64         0.14651
      44 -> 65         0.10865
      51 -> 59         0.13976
      51 -> 60        -0.10225
 The wavefunction is stable under the perturbations considered.
 The wavefunction is already stable.

 **********************************************************************

            Population analysis using the SCF Density.

 **********************************************************************

 Alpha  occ. eigenvalues -- -104.63826 -26.05826 -20.52950 -20.52449 -20.52360
 Alpha  occ. eigenvalues --  -20.51746 -15.77357 -15.76565 -15.46205 -11.30863
 Alpha  occ. eigenvalues --  -11.29094 -11.18269 -11.14433 -10.36465  -7.83139
 Alpha  occ. eigenvalues --   -7.82982  -7.82968  -1.52652  -1.50643  -1.32640
 Alpha  occ. eigenvalues --   -1.31776  -1.30924  -1.10119  -1.07568  -0.97547
 Alpha  occ. eigenvalues --   -0.87911  -0.86907  -0.81412  -0.75376  -0.69274
 Alpha  occ. eigenvalues --   -0.68865  -0.65857  -0.63189  -0.62114  -0.59944
 Alpha  occ. eigenvalues --   -0.54136  -0.51497  -0.50801  -0.46901  -0.44513
 Alpha  occ. eigenvalues --   -0.43514  -0.42905  -0.41491  -0.40021  -0.39641
 Alpha  occ. eigenvalues --   -0.38763  -0.37632  -0.36599  -0.35367  -0.33389
 Alpha  occ. eigenvalues --   -0.32832  -0.28584  -0.27840  -0.26748
 Alpha virt. eigenvalues --    0.12687   0.13732   0.15079   0.15611   0.16769
 Alpha virt. eigenvalues --    0.17858   0.18697   0.19348   0.20025   0.21446
 Alpha virt. eigenvalues --    0.21807   0.22603   0.23733   0.24729   0.24950
 Alpha virt. eigenvalues --    0.25451   0.25879   0.26903   0.27422   0.27719
 Alpha virt. eigenvalues --    0.28281   0.28782   0.29877   0.30404   0.30790
 Alpha virt. eigenvalues --    0.31586   0.32540   0.34497   0.35192   0.35627
 Alpha virt. eigenvalues --    0.36162   0.36852   0.37255   0.37405   0.38382
 Alpha virt. eigenvalues --    0.39590   0.40360   0.41348   0.41638   0.42800
 Alpha virt. eigenvalues --    0.42880   0.43361   0.43871   0.44775   0.45247
 Alpha virt. eigenvalues --    0.45684   0.46408   0.47315   0.47483   0.48192
 Alpha virt. eigenvalues --    0.49348   0.49808   0.50730   0.51289   0.52538
 Alpha virt. eigenvalues --    0.52593   0.53109   0.54752   0.55170   0.55813
 Alpha virt. eigenvalues --    0.56358   0.56715   0.57626   0.58630   0.59034
 Alpha virt. eigenvalues --    0.59702   0.60906   0.61731   0.62207   0.62829
 Alpha virt. eigenvalues --    0.63831   0.64515   0.65416   0.67425   0.67681
 Alpha virt. eigenvalues --    0.68034   0.68777   0.69757   0.70869   0.71428
 Alpha virt. eigenvalues --    0.72205   0.73730   0.74958   0.76163   0.77462
 Alpha virt. eigenvalues --    0.78209   0.78454   0.79614   0.80535   0.81059
 Alpha virt. eigenvalues --    0.82634   0.83669   0.84637   0.85847   0.87499
 Alpha virt. eigenvalues --    0.88687   0.89483   0.90447   0.90888   0.91745
 Alpha virt. eigenvalues --    0.92850   0.93312   0.94607   0.95828   0.96982
 Alpha virt. eigenvalues --    0.98039   0.99339   1.01718   1.02638   1.04240
 Alpha virt. eigenvalues --    1.04488   1.06395   1.07362   1.09197   1.09731
 Alpha virt. eigenvalues --    1.11155   1.12583   1.14925   1.14967   1.15468
 Alpha virt. eigenvalues --    1.17172   1.19208   1.20578   1.21344   1.22339
 Alpha virt. eigenvalues --    1.23592   1.23759   1.25611   1.26536   1.27639
 Alpha virt. eigenvalues --    1.29129   1.30215   1.31187   1.32613   1.33011
 Alpha virt. eigenvalues --    1.35183   1.36559   1.37309   1.37830   1.39295
 Alpha virt. eigenvalues --    1.39855   1.40446   1.41684   1.42146   1.42758
 Alpha virt. eigenvalues --    1.44456   1.45130   1.47147   1.49163   1.49876
 Alpha virt. eigenvalues --    1.51868   1.52824   1.53296   1.55328   1.56977
 Alpha virt. eigenvalues --    1.57075   1.58651   1.60031   1.61186   1.62570
 Alpha virt. eigenvalues --    1.64763   1.66190   1.66937   1.68393   1.68723
 Alpha virt. eigenvalues --    1.69707   1.72562   1.72736   1.73761   1.75431
 Alpha virt. eigenvalues --    1.77818   1.78591   1.79173   1.81295   1.81806
 Alpha virt. eigenvalues --    1.84442   1.85807   1.87382   1.88557   1.90336
 Alpha virt. eigenvalues --    1.90500   1.92991   1.95260   1.95776   1.97661
 Alpha virt. eigenvalues --    1.98695   2.01300   2.01834   2.02997   2.03747
 Alpha virt. eigenvalues --    2.04516   2.07281   2.09127   2.10517   2.12670
 Alpha virt. eigenvalues --    2.14720   2.16256   2.17735   2.21601   2.22082
 Alpha virt. eigenvalues --    2.22648   2.26230   2.26590   2.29333   2.30413
 Alpha virt. eigenvalues --    2.32988   2.35205   2.36403   2.38690   2.40009
 Alpha virt. eigenvalues --    2.44631   2.44998   2.47042   2.47993   2.50134
 Alpha virt. eigenvalues --    2.54342   2.55210   2.56863   2.58692   2.59552
 Alpha virt. eigenvalues --    2.62733   2.64321   2.65138   2.68179   2.70601
 Alpha virt. eigenvalues --    2.72215   2.73285   2.77045   2.79365   2.81154
 Alpha virt. eigenvalues --    2.81529   2.82384   2.84136   2.86903   2.89486
 Alpha virt. eigenvalues --    2.93247   2.96250   2.99621   3.03028   3.06489
 Alpha virt. eigenvalues --    3.08846   3.11749   3.13919   3.16014   3.17425
 Alpha virt. eigenvalues --    3.20558   3.24284   3.25696   3.31959   3.33805
 Alpha virt. eigenvalues --    3.51770   3.60417   3.66123   3.68369   3.71026
 Alpha virt. eigenvalues --    3.74537   3.81215   3.81895   3.83549   3.84309
 Alpha virt. eigenvalues --    3.85007   3.86441   3.87962   3.90848   3.92574
 Alpha virt. eigenvalues --    3.93053   3.96322   3.99721   4.02631   4.05081
 Alpha virt. eigenvalues --    4.08305   4.12714   4.13554   4.26833   4.29925
 Alpha virt. eigenvalues --    4.30773   4.36055   4.53745   4.71051   4.94590
 Alpha virt. eigenvalues --    5.28734   5.37561   5.39825   5.42530   5.52203
          Condensed to atoms (all electrons):
 Mulliken charges:
               1
     1  C    0.128263
     2  H   -0.068325
     3  Cl  -0.612539
     4  F   -0.809873
     5  C    2.003618
     6  C   -0.449045
     7  N   -0.446437
     8  C    0.723712
     9  H    0.144759
    10  H    0.096482
    11  H    0.016471
    12  N    0.846294
    13  O   -0.824797
    14  O   -0.879461
    15  N    0.806832
    16  O   -0.865504
    17  O   -0.810450
 Sum of Mulliken charges =  -1.00000
 Mulliken charges with hydrogens summed into heavy atoms:
               1
     1  C    0.128263
     3  Cl  -0.612539
     4  F   -0.809873
     5  C    1.935294
     6  C   -0.449045
     7  N   -0.446437
     8  C    0.981424
    12  N    0.846294
    13  O   -0.824797
    14  O   -0.879461
    15  N    0.806832
    16  O   -0.865504
    17  O   -0.810450
 Electronic spatial extent (au):  <R**2>=           2445.2912
 Charge=             -1.0000 electrons
 Dipole moment (field-independent basis, Debye):
    X=              1.3574    Y=             -2.5982    Z=              4.6932  Tot=              5.5334
 Unable to Open any file for archive entry.
 1\1\GINC-SE423\Stability\RHF\Aug-CC-pVDZ\C4H4Cl1F1N3O4\OHZDE\09-Apr-20
 25\0\\#t hf aug-cc-pvdz symm=none int=(grid=ultrafine) guess=(read,tch
 eck) stable=(opt,rrhf)\\title\\-1,1\C,0,0.45982502,-0.1011158,0.047634
 07\H,0,1.56107534,1.59392476,0.66664365\Cl,0,-1.73120298,-0.28149957,0
 .56006365\F,0,2.20862192,0.09740681,-0.64979901\C,0,0.61227974,1.40656
 618,0.17924103\C,0,0.20092967,-0.78097979,-1.19949409\N,0,0.03078975,-
 1.44900327,-2.15278994\C,0,0.90280858,-0.93405601,1.2331312\H,0,1.9814
 4311,-1.06264339,1.16861155\H,0,0.62674471,-0.42877872,2.15800367\H,0,
 0.39908069,-1.89815169,1.20958571\N,0,-0.40341231,2.14288641,1.0288646
 7\O,0,-1.2076534,2.88793754,0.48691289\O,0,-0.26317191,1.97580016,2.23
 537177\N,0,0.66493427,2.13309708,-1.12062849\O,0,1.40512684,3.1143138,
 -1.13855003\O,0,-0.06126901,1.7567555,-2.03000231\\Version=ES64L-G16Re
 vC.01\HF=-1175.3626917\RMSD=6.803e-09\Dipole=0.6947607,0.5585578,1.690
 2632\Quadrupole=-0.7214266,0.2553612,0.4660654,-0.5186397,7.2354536,-3
 .1091637\PG=Unknown\\@
 The archive entry for this job was punched.


 Where a calculator on the ENIAC is equipped with 18,000
 vacuum tubes and weighs 30 tons, computers inthe future
 may  have only 1,000 vacuum tubes and weigh only 1 1/2 tons.
              ---Popular Mechanics, March 1949
 Job cpu time:       0 days  0 hours 46 minutes 27.3 seconds.
 Elapsed time:       0 days  0 hours  3 minutes 10.6 seconds.
 File lengths (MBytes):  RWF=    648 Int=      0 D2E=      0 Chk=     16 Scr=      1
 Normal termination of Gaussian 16 at Wed Apr  9 02:48:25 2025.
 Initial command:
 /arc/software/Gaussian/g16.c01/l1.exe "/tmp/slurm/4859233/Gau-2396296.inp" -scrdir="/tmp/slurm/4859233/"
 Entering Link 1 = /arc/software/Gaussian/g16.c01/l1.exe PID=   2396576.
  
 Copyright (c) 1988-2019, Gaussian, Inc.  All Rights Reserved.
  
 This is part of the Gaussian(R) 16 program.  It is based on
 the Gaussian(R) 09 system (copyright 2009, Gaussian, Inc.),
 the Gaussian(R) 03 system (copyright 2003, Gaussian, Inc.),
 the Gaussian(R) 98 system (copyright 1998, Gaussian, Inc.),
 the Gaussian(R) 94 system (copyright 1995, Gaussian, Inc.),
 the Gaussian 92(TM) system (copyright 1992, Gaussian, Inc.),
 the Gaussian 90(TM) system (copyright 1990, Gaussian, Inc.),
 the Gaussian 88(TM) system (copyright 1988, Gaussian, Inc.),
 the Gaussian 86(TM) system (copyright 1986, Carnegie Mellon
 University), and the Gaussian 82(TM) system (copyright 1983,
 Carnegie Mellon University). Gaussian is a federally registered
 trademark of Gaussian, Inc.
  
 This software contains proprietary and confidential information,
 including trade secrets, belonging to Gaussian, Inc.
  
 This software is provided under written license and may be
 used, copied, transmitted, or stored only in accord with that
 written license.
  
 The following legend is applicable only to US Government
 contracts under FAR:
  
                    RESTRICTED RIGHTS LEGEND
  
 Use, reproduction and disclosure by the US Government is
 subject to restrictions as set forth in subparagraphs (a)
 and (c) of the Commercial Computer Software - Restricted
 Rights clause in FAR 52.227-19.
  
 Gaussian, Inc.
 340 Quinnipiac St., Bldg. 40, Wallingford CT 06492
  
  
 ---------------------------------------------------------------
 Warning -- This program may not be used in any manner that
 competes with the business of Gaussian, Inc. or will provide
 assistance to any competitor of Gaussian, Inc.  The licensee
 of this program is prohibited from giving any competitor of
 Gaussian, Inc. access to this program.  By using this program,
 the user acknowledges that Gaussian, Inc. is engaged in the
 business of creating and licensing software in the field of
 computational chemistry and represents and warrants to the
 licensee that it is not a competitor of Gaussian, Inc. and that
 it will not use this program in any manner prohibited above.
 ---------------------------------------------------------------
  

 Cite this work as:
 Gaussian 16, Revision C.01,
 M. J. Frisch, G. W. Trucks, H. B. Schlegel, G. E. Scuseria, 
 M. A. Robb, J. R. Cheeseman, G. Scalmani, V. Barone, 
 G. A. Petersson, H. Nakatsuji, X. Li, M. Caricato, A. V. Marenich, 
 J. Bloino, B. G. Janesko, R. Gomperts, B. Mennucci, H. P. Hratchian, 
 J. V. Ortiz, A. F. Izmaylov, J. L. Sonnenberg, D. Williams-Young, 
 F. Ding, F. Lipparini, F. Egidi, J. Goings, B. Peng, A. Petrone, 
 T. Henderson, D. Ranasinghe, V. G. Zakrzewski, J. Gao, N. Rega, 
 G. Zheng, W. Liang, M. Hada, M. Ehara, K. Toyota, R. Fukuda, 
 J. Hasegawa, M. Ishida, T. Nakajima, Y. Honda, O. Kitao, H. Nakai, 
 T. Vreven, K. Throssell, J. A. Montgomery, Jr., J. E. Peralta, 
 F. Ogliaro, M. J. Bearpark, J. J. Heyd, E. N. Brothers, K. N. Kudin, 
 V. N. Staroverov, T. A. Keith, R. Kobayashi, J. Normand, 
 K. Raghavachari, A. P. Rendell, J. C. Burant, S. S. Iyengar, 
 J. Tomasi, M. Cossi, J. M. Millam, M. Klene, C. Adamo, R. Cammi, 
 J. W. Ochterski, R. L. Martin, K. Morokuma, O. Farkas, 
 J. B. Foresman, and D. J. Fox, Gaussian, Inc., Wallingford CT, 2019.
 
 ******************************************
 Gaussian 16:  ES64L-G16RevC.01  3-Jul-2019
                 9-Apr-2025 
 ******************************************
 %nprocs=16
 Will use up to   16 processors via shared memory.
 %mem=30GB
 %chk=E2SN2_280_mol1.chk
 ----------------------------------------------------------------------
 #t hf aug-cc-pvdz iop(5/13=1,5/36=2,99/5=2) pseudo=read geom=check gue
 ss=(read,tcheck) scf=(maxcycle=1)
 ----------------------------------------------------------------------
 -----
 title
 -----
 Structure from the checkpoint file:  "E2SN2_280_mol1.chk"
 Charge = -1 Multiplicity = 1
 Z-Matrix found in chk file.
 C,0,0.45982502,-0.1011158,0.04763407
 H,0,1.56107534,1.59392476,0.66664365
 Cl,0,-1.73120298,-0.28149957,0.56006365
 F,0,2.20862192,0.09740681,-0.64979901
 C,0,0.61227974,1.40656618,0.17924103
 C,0,0.20092967,-0.78097979,-1.19949409
 N,0,0.03078975,-1.44900327,-2.15278994
 C,0,0.90280858,-0.93405601,1.2331312
 H,0,1.98144311,-1.06264339,1.16861155
 H,0,0.62674471,-0.42877872,2.15800367
 H,0,0.39908069,-1.89815169,1.20958571
 N,0,-0.40341231,2.14288641,1.02886467
 O,0,-1.2076534,2.88793754,0.48691289
 O,0,-0.26317191,1.97580016,2.23537177
 N,0,0.66493427,2.13309708,-1.12062849
 O,0,1.40512684,3.1143138,-1.13855003
 O,0,-0.06126901,1.7567555,-2.03000231
 Recover connectivity data from disk.
                    Distance matrix (angstroms):
                    1          2          3          4          5
     1  C    0.000000
     2  H    2.114022   0.000000
     3  Cl   2.257371   3.790471   0.000000
     4  F    1.893176   2.095687   4.138787   0.000000
     5  C    1.521075   1.082995   2.913160   2.224750   0.000000
     6  C    1.443804   3.312497   2.660575   2.259326   2.618297
     7  N    2.615863   4.421582   3.439078   3.064852   3.732395
     8  C    1.515067   2.672996   2.795866   2.512865   2.583332
     9  H    2.120483   2.736062   3.842429   2.168858   2.991732
    10  H    2.142168   2.681130   2.852196   3.265419   2.698926
    11  H    2.140831   3.720163   2.752009   3.273225   3.468173
    12  N    2.596832   2.071660   2.803649   3.718148   1.515143
    13  O    3.450781   3.061475   3.213221   4.555229   2.366702
    14  O    3.102016   2.436106   3.171305   4.238200   2.306104
    15  N    2.529548   2.070777   3.794269   2.597823   1.490061
    16  O    3.555224   2.365296   4.924774   3.160096   2.298169
    17  O    2.835454   3.151256   3.694808   3.132220   2.336034
                    6          7          8          9         10
     6  C    0.000000
     7  N    1.176425   0.000000
     8  C    2.536480   3.534126   0.000000
     9  H    2.976153   3.871179   1.088187   0.000000
    10  H    3.402669   4.469783   1.089452   1.793290   0.000000
    11  H    2.662894   3.412176   1.088015   1.789867   1.763628
    12  N    3.725561   4.818001   3.348957   3.997810   2.991595
    13  O    4.276567   5.225976   4.429281   5.122708   4.142242
    14  O    4.428716   5.574195   3.291088   3.925355   2.565139
    15  N    2.951841   3.781394   3.873525   4.145669   4.161021
    16  O    4.077636   4.872509   4.718739   4.806465   4.901699
    17  O    2.683019   3.209430   4.337966   4.727876   4.773816
                   11         12         13         14         15
    11  H    0.000000
    12  N    4.123911   0.000000
    13  O    5.100049   1.222954   0.000000
    14  O    4.061812   1.226069   2.186584   0.000000
    15  N    4.663855   2.400371   2.580806   3.485522   0.000000
    16  O    5.625894   2.985326   3.085449   3.932274   1.229224
    17  O    4.905629   3.102068   2.988082   4.275764   1.223096
                   16         17
    16  O    0.000000
    17  O    2.188143   0.000000
 Framework group  C1[X(C4H4ClFN3O4)]
 Deg. of freedom    45
                         Standard orientation:                         
 ---------------------------------------------------------------------
 Center     Atomic      Atomic             Coordinates (Angstroms)
 Number     Number       Type             X           Y           Z
 ---------------------------------------------------------------------
      1          6           0       -0.907319    0.014854    0.461623
      2          1           0        0.846937   -0.439865    1.550155
      3         17           0       -0.947290    1.782640   -0.941610
      4          9           0       -0.872966   -1.628058    1.401716
      5          6           0        0.596190   -0.207441    0.522545
      6          6           0       -1.792185   -0.689073   -0.436191
      7          7           0       -2.615107   -1.221449   -1.086844
      8          6           0       -1.525722    0.789826    1.607234
      9          1           0       -1.686590    0.098374    2.431955
     10          1           0       -0.858497    1.598583    1.903256
     11          1           0       -2.467763    1.227955    1.284158
     12          7           0        1.493072    0.960949    0.167402
     13          8           0        2.146947    0.919709   -0.865246
     14          8           0        1.539946    1.835807    1.025114
     15          7           0        1.079068   -1.358568   -0.291100
     16          8           0        2.025571   -1.976399    0.192025
     17          8           0        0.562728   -1.560733   -1.381278
 ---------------------------------------------------------------------
 Rotational constants (GHZ):           0.8334378           0.7639355           0.5801725
 ======================================================================================================
                                       Pseudopotential Parameters
 ======================================================================================================
  Center     Atomic      Valence      Angular      Power
  Number     Number     Electrons     Momentum     of R      Exponent        Coefficient   SO-Coeffient
 ======================================================================================================
    1          6            6
                                      G and up 
                                                     0        0.0000010       -0.00011185    0.00000000
                                                     2        0.1200000       -0.02301220    0.00000000
                                                     2        0.1400000        0.13317600    0.00000000
                                                     2        0.1600000       -0.19690668    0.00000000
                                                     2        0.2200000        0.23163694    0.00000000
                                                     2        0.3000000       -0.36920489    0.00000000
                                                     2        0.4000000        0.36389709    0.00000000
                                                     2        0.7000000       -0.38862160    0.00000000
                                                     2        1.3000000        0.80803421    0.00000000
                                      S - G
                                                     0        0.0000010        0.00312304    0.00000000
                                                     2        0.1200000       -0.00632892    0.00000000
                                                     2        0.2200000       -0.03780897    0.00000000
                                                     2        0.4000000        0.26269560    0.00000000
                                                     2        0.9000000       -0.28209514    0.00000000
                                                     2        1.5000000       -0.72686737    0.00000000
                                      P - G
                                                     0        0.0000010       -0.01465594    0.00000000
                                                     2        0.1200000        0.07908409    0.00000000
                                                     2        0.1800000       -0.30615861    0.00000000
                                                     2        0.2600000        0.41506950    0.00000000
                                                     2        0.5000000       -0.36252345    0.00000000
                                                     2        0.9000000        0.15124193    0.00000000
                                                     2        3.0000000       -0.80425677    0.00000000
                                      D - G
                                                     0        0.0000010        0.01149631    0.00000000
                                                     2        0.1200000       -0.04713561    0.00000000
                                                     2        0.1600000        0.10865096    0.00000000
                                                     2        0.2800000       -0.15816701    0.00000000
                                                     2        0.7000000        0.65478804    0.00000000
                                                     2        1.3000000       -1.73816624    0.00000000
                                      F - G
                                                     0        0.0000010        0.00481868    0.00000000
                                                     2        0.1200000       -0.04746842    0.00000000
                                                     2        0.1600000        0.09327889    0.00000000
                                                     2        0.4000000       -0.19693326    0.00000000
                                                     2        0.9000000        0.34938253    0.00000000
    2          1            1
                                      F and up 
                                                     0        0.0000010       -0.00000699    0.00000000
                                                     2        0.1200000        0.00123686    0.00000000
                                                     2        0.1800000       -0.00752022    0.00000000
                                                     2        0.2600000        0.02503380    0.00000000
                                                     2        0.4000000       -0.08702670    0.00000000
                                                     2        0.6000000        0.30134159    0.00000000
                                                     2        0.8000000       -0.50204959    0.00000000
                                                     2        1.2000000        0.52208372    0.00000000
                                      S - F
                                                     0        0.0000010       -0.01618346    0.00000000
                                                     2        0.1200000       -0.07880581    0.00000000
                                                     2        0.1600000        0.32040539    0.00000000
                                                     2        0.2400000       -0.47500956    0.00000000
                                                     2        0.5000000        0.54013668    0.00000000
                                                     2        1.5000000       -1.40434292    0.00000000
                                                     2        3.0000000        1.46283806    0.00000000
                                      P - F
                                                     0        0.0000010        0.00612970    0.00000000
                                                     2        0.1200000        0.02254406    0.00000000
                                                     2        0.1800000       -0.13874529    0.00000000
                                                     2        0.3000000        0.38299049    0.00000000
                                                     2        0.5000000       -0.57923512    0.00000000
                                                     2        1.0000000        0.63021625    0.00000000
                                                     2        2.0000000       -0.79201034    0.00000000
                                      D - F
                                                     0        0.0000010       -0.00296226    0.00000000
                                                     2        0.1200000       -0.00547344    0.00000000
                                                     2        0.1400000        0.01837884    0.00000000
                                                     2        0.2400000       -0.05565704    0.00000000
                                                     2        0.4000000        0.15376597    0.00000000
                                                     2        0.8000000       -0.32464795    0.00000000
    3         17           17
                                      G and up 
                                                     0        0.0000010       -0.00005841    0.00000000
                                                     2        0.1200000       -0.00031502    0.00000000
                                                     2        0.1400000        0.00458821    0.00000000
                                                     2        0.2600000       -0.03604686    0.00000000
                                                     2        0.4000000        0.03832573    0.00000000
                                                     2        1.1000000       -0.21042623    0.00000000
                                      S - G
                                                     0        0.0000010        0.00274387    0.00000000
                                                     2        0.1800000        0.09962839    0.00000000
                                                     2        0.4000000       -0.20830181    0.00000000
                                      P - G
                                                     0        0.0000010       -0.01867126    0.00000000
                                                     2        0.1200000        0.19610675    0.00000000
                                                     2        0.1600000       -0.37005054    0.00000000
                                                     2        0.3000000        0.29573883    0.00000000
                                      D - G
                                                     0        0.0000010        0.06766179    0.00000000
                                                     2        0.1200000       -0.07333140    0.00000000
                                                     2        0.2200000        0.05439691    0.00000000
                                      F - G
                                                     0        0.0000010       -0.02719671    0.00000000
                                                     2        0.1200000       -0.06013675    0.00000000
                                                     2        0.2000000        0.35339430    0.00000000
                                                     2        0.4000000       -0.66518555    0.00000000
    4          9            9
                                      G and up 
                                                     0        0.0000010        0.00013061    0.00000000
                                                     2        0.1200000        0.06713281    0.00000000
                                                     2        0.1400000       -0.24167382    0.00000000
                                                     2        0.1800000        0.63223557    0.00000000
                                                     2        0.2200000       -0.82578269    0.00000000
                                                     2        0.3000000        0.62544157    0.00000000
                                                     2        0.5000000       -0.74972011    0.00000000
                                                     2        0.8000000        1.07821461    0.00000000
                                                     2        2.5000000       -1.10703579    0.00000000
                                      S - G
                                                     0        0.0000010        0.01584301    0.00000000
                                                     2        0.1200000        0.08016155    0.00000000
                                                     2        0.1800000       -0.34633115    0.00000000
                                                     2        0.3000000        0.65132194    0.00000000
                                                     2        2.5000000       -2.36634383    0.00000000
                                      P - G
                                                     0        0.0000010        0.01590244    0.00000000
                                                     2        0.1200000       -0.11156199    0.00000000
                                                     2        0.1600000        0.22434929    0.00000000
                                                     2        0.3000000       -0.27751209    0.00000000
                                      D - G
                                                     0        0.0000010       -0.03628923    0.00000000
                                                     2        0.1200000        0.04690238    0.00000000
                                                     2        0.2600000       -0.08720270    0.00000000
                                      F - G
                                                     0        0.0000010        0.01127523    0.00000000
                                                     2        0.1400000       -0.04328550    0.00000000
                                                     2        0.2400000        0.03116441    0.00000000
                                                     2        0.4000000        0.20516616    0.00000000
    5          6            6
                                      G and up 
                                                     0        0.0000010       -0.00011185    0.00000000
                                                     2        0.1200000       -0.02301220    0.00000000
                                                     2        0.1400000        0.13317600    0.00000000
                                                     2        0.1600000       -0.19690668    0.00000000
                                                     2        0.2200000        0.23163694    0.00000000
                                                     2        0.3000000       -0.36920489    0.00000000
                                                     2        0.4000000        0.36389709    0.00000000
                                                     2        0.7000000       -0.38862160    0.00000000
                                                     2        1.3000000        0.80803421    0.00000000
                                      S - G
                                                     0        0.0000010        0.00312304    0.00000000
                                                     2        0.1200000       -0.00632892    0.00000000
                                                     2        0.2200000       -0.03780897    0.00000000
                                                     2        0.4000000        0.26269560    0.00000000
                                                     2        0.9000000       -0.28209514    0.00000000
                                                     2        1.5000000       -0.72686737    0.00000000
                                      P - G
                                                     0        0.0000010       -0.01465594    0.00000000
                                                     2        0.1200000        0.07908409    0.00000000
                                                     2        0.1800000       -0.30615861    0.00000000
                                                     2        0.2600000        0.41506950    0.00000000
                                                     2        0.5000000       -0.36252345    0.00000000
                                                     2        0.9000000        0.15124193    0.00000000
                                                     2        3.0000000       -0.80425677    0.00000000
                                      D - G
                                                     0        0.0000010        0.01149631    0.00000000
                                                     2        0.1200000       -0.04713561    0.00000000
                                                     2        0.1600000        0.10865096    0.00000000
                                                     2        0.2800000       -0.15816701    0.00000000
                                                     2        0.7000000        0.65478804    0.00000000
                                                     2        1.3000000       -1.73816624    0.00000000
                                      F - G
                                                     0        0.0000010        0.00481868    0.00000000
                                                     2        0.1200000       -0.04746842    0.00000000
                                                     2        0.1600000        0.09327889    0.00000000
                                                     2        0.4000000       -0.19693326    0.00000000
                                                     2        0.9000000        0.34938253    0.00000000
    6          6            6
                                      G and up 
                                                     0        0.0000010       -0.00011185    0.00000000
                                                     2        0.1200000       -0.02301220    0.00000000
                                                     2        0.1400000        0.13317600    0.00000000
                                                     2        0.1600000       -0.19690668    0.00000000
                                                     2        0.2200000        0.23163694    0.00000000
                                                     2        0.3000000       -0.36920489    0.00000000
                                                     2        0.4000000        0.36389709    0.00000000
                                                     2        0.7000000       -0.38862160    0.00000000
                                                     2        1.3000000        0.80803421    0.00000000
                                      S - G
                                                     0        0.0000010        0.00312304    0.00000000
                                                     2        0.1200000       -0.00632892    0.00000000
                                                     2        0.2200000       -0.03780897    0.00000000
                                                     2        0.4000000        0.26269560    0.00000000
                                                     2        0.9000000       -0.28209514    0.00000000
                                                     2        1.5000000       -0.72686737    0.00000000
                                      P - G
                                                     0        0.0000010       -0.01465594    0.00000000
                                                     2        0.1200000        0.07908409    0.00000000
                                                     2        0.1800000       -0.30615861    0.00000000
                                                     2        0.2600000        0.41506950    0.00000000
                                                     2        0.5000000       -0.36252345    0.00000000
                                                     2        0.9000000        0.15124193    0.00000000
                                                     2        3.0000000       -0.80425677    0.00000000
                                      D - G
                                                     0        0.0000010        0.01149631    0.00000000
                                                     2        0.1200000       -0.04713561    0.00000000
                                                     2        0.1600000        0.10865096    0.00000000
                                                     2        0.2800000       -0.15816701    0.00000000
                                                     2        0.7000000        0.65478804    0.00000000
                                                     2        1.3000000       -1.73816624    0.00000000
                                      F - G
                                                     0        0.0000010        0.00481868    0.00000000
                                                     2        0.1200000       -0.04746842    0.00000000
                                                     2        0.1600000        0.09327889    0.00000000
                                                     2        0.4000000       -0.19693326    0.00000000
                                                     2        0.9000000        0.34938253    0.00000000
    7          7            7
                                      G and up 
                                                     0        0.0000010       -0.00000022    0.00000000
                                                     2        0.1200000       -0.00992020    0.00000000
                                                     2        0.1400000        0.02578711    0.00000000
                                                     2        0.2200000       -0.10543517    0.00000000
                                                     2        0.3000000        0.23013665    0.00000000
                                                     2        0.5000000       -0.60834094    0.00000000
                                                     2        0.8000000        1.81436815    0.00000000
                                                     2        1.2000000       -3.87539738    0.00000000
                                                     2        2.0000000        2.94656640    0.00000000
                                      S - G
                                                     0        0.0000010       -0.00223566    0.00000000
                                                     2        0.1200000        0.45247937    0.00000000
                                                     2        0.1600000       -0.78978304    0.00000000
                                                     2        0.4000000        0.84956595    0.00000000
                                                     2        3.0000000       -0.75910174    0.00000000
                                      P - G
                                                     0        0.0000010       -0.25576737    0.00000000
                                                     2        0.1200000       -0.19992277    0.00000000
                                                     2        0.1600000        0.88518512    0.00000000
                                                     2        0.2400000       -1.33293917    0.00000000
                                                     2        0.4000000        1.33451776    0.00000000
                                                     2        0.9000000       -0.55709210    0.00000000
                                                     2        2.5000000        2.48506502    0.00000000
                                      D - G
                                                     0        0.0000010        0.26143746    0.00000000
                                                     2        0.1200000       -0.04492212    0.00000000
                                                     2        0.1400000       -0.18274021    0.00000000
                                                     2        0.2400000        0.53490004    0.00000000
                                                     2        0.4000000       -0.74136473    0.00000000
                                                     2        1.3000000        1.71401021    0.00000000
                                      F - G
                                                     0        0.0000010       -0.07169988    0.00000000
                                                     2        0.1200000        0.04480029    0.00000000
                                                     2        0.2600000       -0.08050831    0.00000000
                                                     2        0.5000000        0.31290809    0.00000000
                                                     2        1.0000000       -0.45253098    0.00000000
    8          6            6
                                      G and up 
                                                     0        0.0000010       -0.00011185    0.00000000
                                                     2        0.1200000       -0.02301220    0.00000000
                                                     2        0.1400000        0.13317600    0.00000000
                                                     2        0.1600000       -0.19690668    0.00000000
                                                     2        0.2200000        0.23163694    0.00000000
                                                     2        0.3000000       -0.36920489    0.00000000
                                                     2        0.4000000        0.36389709    0.00000000
                                                     2        0.7000000       -0.38862160    0.00000000
                                                     2        1.3000000        0.80803421    0.00000000
                                      S - G
                                                     0        0.0000010        0.00312304    0.00000000
                                                     2        0.1200000       -0.00632892    0.00000000
                                                     2        0.2200000       -0.03780897    0.00000000
                                                     2        0.4000000        0.26269560    0.00000000
                                                     2        0.9000000       -0.28209514    0.00000000
                                                     2        1.5000000       -0.72686737    0.00000000
                                      P - G
                                                     0        0.0000010       -0.01465594    0.00000000
                                                     2        0.1200000        0.07908409    0.00000000
                                                     2        0.1800000       -0.30615861    0.00000000
                                                     2        0.2600000        0.41506950    0.00000000
                                                     2        0.5000000       -0.36252345    0.00000000
                                                     2        0.9000000        0.15124193    0.00000000
                                                     2        3.0000000       -0.80425677    0.00000000
                                      D - G
                                                     0        0.0000010        0.01149631    0.00000000
                                                     2        0.1200000       -0.04713561    0.00000000
                                                     2        0.1600000        0.10865096    0.00000000
                                                     2        0.2800000       -0.15816701    0.00000000
                                                     2        0.7000000        0.65478804    0.00000000
                                                     2        1.3000000       -1.73816624    0.00000000
                                      F - G
                                                     0        0.0000010        0.00481868    0.00000000
                                                     2        0.1200000       -0.04746842    0.00000000
                                                     2        0.1600000        0.09327889    0.00000000
                                                     2        0.4000000       -0.19693326    0.00000000
                                                     2        0.9000000        0.34938253    0.00000000
    9          1            1
                                      F and up 
                                                     0        0.0000010       -0.00000699    0.00000000
                                                     2        0.1200000        0.00123686    0.00000000
                                                     2        0.1800000       -0.00752022    0.00000000
                                                     2        0.2600000        0.02503380    0.00000000
                                                     2        0.4000000       -0.08702670    0.00000000
                                                     2        0.6000000        0.30134159    0.00000000
                                                     2        0.8000000       -0.50204959    0.00000000
                                                     2        1.2000000        0.52208372    0.00000000
                                      S - F
                                                     0        0.0000010       -0.01618346    0.00000000
                                                     2        0.1200000       -0.07880581    0.00000000
                                                     2        0.1600000        0.32040539    0.00000000
                                                     2        0.2400000       -0.47500956    0.00000000
                                                     2        0.5000000        0.54013668    0.00000000
                                                     2        1.5000000       -1.40434292    0.00000000
                                                     2        3.0000000        1.46283806    0.00000000
                                      P - F
                                                     0        0.0000010        0.00612970    0.00000000
                                                     2        0.1200000        0.02254406    0.00000000
                                                     2        0.1800000       -0.13874529    0.00000000
                                                     2        0.3000000        0.38299049    0.00000000
                                                     2        0.5000000       -0.57923512    0.00000000
                                                     2        1.0000000        0.63021625    0.00000000
                                                     2        2.0000000       -0.79201034    0.00000000
                                      D - F
                                                     0        0.0000010       -0.00296226    0.00000000
                                                     2        0.1200000       -0.00547344    0.00000000
                                                     2        0.1400000        0.01837884    0.00000000
                                                     2        0.2400000       -0.05565704    0.00000000
                                                     2        0.4000000        0.15376597    0.00000000
                                                     2        0.8000000       -0.32464795    0.00000000
   10          1            1
                                      F and up 
                                                     0        0.0000010       -0.00000699    0.00000000
                                                     2        0.1200000        0.00123686    0.00000000
                                                     2        0.1800000       -0.00752022    0.00000000
                                                     2        0.2600000        0.02503380    0.00000000
                                                     2        0.4000000       -0.08702670    0.00000000
                                                     2        0.6000000        0.30134159    0.00000000
                                                     2        0.8000000       -0.50204959    0.00000000
                                                     2        1.2000000        0.52208372    0.00000000
                                      S - F
                                                     0        0.0000010       -0.01618346    0.00000000
                                                     2        0.1200000       -0.07880581    0.00000000
                                                     2        0.1600000        0.32040539    0.00000000
                                                     2        0.2400000       -0.47500956    0.00000000
                                                     2        0.5000000        0.54013668    0.00000000
                                                     2        1.5000000       -1.40434292    0.00000000
                                                     2        3.0000000        1.46283806    0.00000000
                                      P - F
                                                     0        0.0000010        0.00612970    0.00000000
                                                     2        0.1200000        0.02254406    0.00000000
                                                     2        0.1800000       -0.13874529    0.00000000
                                                     2        0.3000000        0.38299049    0.00000000
                                                     2        0.5000000       -0.57923512    0.00000000
                                                     2        1.0000000        0.63021625    0.00000000
                                                     2        2.0000000       -0.79201034    0.00000000
                                      D - F
                                                     0        0.0000010       -0.00296226    0.00000000
                                                     2        0.1200000       -0.00547344    0.00000000
                                                     2        0.1400000        0.01837884    0.00000000
                                                     2        0.2400000       -0.05565704    0.00000000
                                                     2        0.4000000        0.15376597    0.00000000
                                                     2        0.8000000       -0.32464795    0.00000000
   11          1            1
                                      F and up 
                                                     0        0.0000010       -0.00000699    0.00000000
                                                     2        0.1200000        0.00123686    0.00000000
                                                     2        0.1800000       -0.00752022    0.00000000
                                                     2        0.2600000        0.02503380    0.00000000
                                                     2        0.4000000       -0.08702670    0.00000000
                                                     2        0.6000000        0.30134159    0.00000000
                                                     2        0.8000000       -0.50204959    0.00000000
                                                     2        1.2000000        0.52208372    0.00000000
                                      S - F
                                                     0        0.0000010       -0.01618346    0.00000000
                                                     2        0.1200000       -0.07880581    0.00000000
                                                     2        0.1600000        0.32040539    0.00000000
                                                     2        0.2400000       -0.47500956    0.00000000
                                                     2        0.5000000        0.54013668    0.00000000
                                                     2        1.5000000       -1.40434292    0.00000000
                                                     2        3.0000000        1.46283806    0.00000000
                                      P - F
                                                     0        0.0000010        0.00612970    0.00000000
                                                     2        0.1200000        0.02254406    0.00000000
                                                     2        0.1800000       -0.13874529    0.00000000
                                                     2        0.3000000        0.38299049    0.00000000
                                                     2        0.5000000       -0.57923512    0.00000000
                                                     2        1.0000000        0.63021625    0.00000000
                                                     2        2.0000000       -0.79201034    0.00000000
                                      D - F
                                                     0        0.0000010       -0.00296226    0.00000000
                                                     2        0.1200000       -0.00547344    0.00000000
                                                     2        0.1400000        0.01837884    0.00000000
                                                     2        0.2400000       -0.05565704    0.00000000
                                                     2        0.4000000        0.15376597    0.00000000
                                                     2        0.8000000       -0.32464795    0.00000000
   12          7            7
                                      G and up 
                                                     0        0.0000010       -0.00000022    0.00000000
                                                     2        0.1200000       -0.00992020    0.00000000
                                                     2        0.1400000        0.02578711    0.00000000
                                                     2        0.2200000       -0.10543517    0.00000000
                                                     2        0.3000000        0.23013665    0.00000000
                                                     2        0.5000000       -0.60834094    0.00000000
                                                     2        0.8000000        1.81436815    0.00000000
                                                     2        1.2000000       -3.87539738    0.00000000
                                                     2        2.0000000        2.94656640    0.00000000
                                      S - G
                                                     0        0.0000010       -0.00223566    0.00000000
                                                     2        0.1200000        0.45247937    0.00000000
                                                     2        0.1600000       -0.78978304    0.00000000
                                                     2        0.4000000        0.84956595    0.00000000
                                                     2        3.0000000       -0.75910174    0.00000000
                                      P - G
                                                     0        0.0000010       -0.25576737    0.00000000
                                                     2        0.1200000       -0.19992277    0.00000000
                                                     2        0.1600000        0.88518512    0.00000000
                                                     2        0.2400000       -1.33293917    0.00000000
                                                     2        0.4000000        1.33451776    0.00000000
                                                     2        0.9000000       -0.55709210    0.00000000
                                                     2        2.5000000        2.48506502    0.00000000
                                      D - G
                                                     0        0.0000010        0.26143746    0.00000000
                                                     2        0.1200000       -0.04492212    0.00000000
                                                     2        0.1400000       -0.18274021    0.00000000
                                                     2        0.2400000        0.53490004    0.00000000
                                                     2        0.4000000       -0.74136473    0.00000000
                                                     2        1.3000000        1.71401021    0.00000000
                                      F - G
                                                     0        0.0000010       -0.07169988    0.00000000
                                                     2        0.1200000        0.04480029    0.00000000
                                                     2        0.2600000       -0.08050831    0.00000000
                                                     2        0.5000000        0.31290809    0.00000000
                                                     2        1.0000000       -0.45253098    0.00000000
   13          8            8
                                      G and up 
                                                     0        0.0000010        0.00001165    0.00000000
                                                     2        0.1200000       -0.01744018    0.00000000
                                                     2        0.1400000        0.05401326    0.00000000
                                                     2        0.1800000       -0.08231208    0.00000000
                                                     2        0.2600000        0.11570222    0.00000000
                                                     2        0.4000000       -0.20630360    0.00000000
                                                     2        0.7000000        0.38074319    0.00000000
                                                     2        1.2000000       -0.17045091    0.00000000
                                                     2        2.0000000       -1.45433187    0.00000000
                                      S - G
                                                     0        0.0000010       -0.00117944    0.00000000
                                                     2        0.1400000        0.04368312    0.00000000
                                                     2        0.3000000       -0.33477926    0.00000000
                                                     2        0.6000000        1.52630657    0.00000000
                                                     2        1.5000000       -2.50804716    0.00000000
                                                     2        3.0000000        2.89751681    0.00000000
                                      P - G
                                                     0        0.0000010        0.06576007    0.00000000
                                                     2        0.1200000       -0.10329304    0.00000000
                                                     2        0.2000000        0.24891756    0.00000000
                                                     2        0.4000000       -0.50800022    0.00000000
                                                     2        0.9000000        0.81480796    0.00000000
                                      D - G
                                                     0        0.0000010       -0.14101855    0.00000000
                                                     2        0.1200000        0.22105937    0.00000000
                                                     2        0.1800000       -0.45814988    0.00000000
                                                     2        0.3000000        0.46029282    0.00000000
                                      F - G
                                                     0        0.0000010        0.07483044    0.00000000
                                                     2        0.1200000       -0.09134252    0.00000000
                                                     2        0.1400000        0.04125459    0.00000000
                                                     2        0.3000000        0.37914837    0.00000000
                                                     2        0.5000000       -0.86881279    0.00000000
   14          8            8
                                      G and up 
                                                     0        0.0000010        0.00001165    0.00000000
                                                     2        0.1200000       -0.01744018    0.00000000
                                                     2        0.1400000        0.05401326    0.00000000
                                                     2        0.1800000       -0.08231208    0.00000000
                                                     2        0.2600000        0.11570222    0.00000000
                                                     2        0.4000000       -0.20630360    0.00000000
                                                     2        0.7000000        0.38074319    0.00000000
                                                     2        1.2000000       -0.17045091    0.00000000
                                                     2        2.0000000       -1.45433187    0.00000000
                                      S - G
                                                     0        0.0000010       -0.00117944    0.00000000
                                                     2        0.1400000        0.04368312    0.00000000
                                                     2        0.3000000       -0.33477926    0.00000000
                                                     2        0.6000000        1.52630657    0.00000000
                                                     2        1.5000000       -2.50804716    0.00000000
                                                     2        3.0000000        2.89751681    0.00000000
                                      P - G
                                                     0        0.0000010        0.06576007    0.00000000
[...]
                                                     2        0.1200000        0.45247937    0.00000000
                                                     2        0.1600000       -0.78978304    0.00000000
                                                     2        0.4000000        0.84956595    0.00000000
                                                     2        3.0000000       -0.75910174    0.00000000
                                      P - G
                                                     0        0.0000010       -0.25576737    0.00000000
                                                     2        0.1200000       -0.19992277    0.00000000
                                                     2        0.1600000        0.88518512    0.00000000
                                                     2        0.2400000       -1.33293917    0.00000000
                                                     2        0.4000000        1.33451776    0.00000000
                                                     2        0.9000000       -0.55709210    0.00000000
                                                     2        2.5000000        2.48506502    0.00000000
                                      D - G
                                                     0        0.0000010        0.26143746    0.00000000
                                                     2        0.1200000       -0.04492212    0.00000000
                                                     2        0.1400000       -0.18274021    0.00000000
                                                     2        0.2400000        0.53490004    0.00000000
                                                     2        0.4000000       -0.74136473    0.00000000
                                                     2        1.3000000        1.71401021    0.00000000
                                      F - G
                                                     0        0.0000010       -0.07169988    0.00000000
                                                     2        0.1200000        0.04480029    0.00000000
                                                     2        0.2600000       -0.08050831    0.00000000
                                                     2        0.5000000        0.31290809    0.00000000
                                                     2        1.0000000       -0.45253098    0.00000000
   16          8            8
                                      G and up 
                                                     0        0.0000010        0.00001165    0.00000000
                                                     2        0.1200000       -0.01744018    0.00000000
                                                     2        0.1400000        0.05401326    0.00000000
                                                     2        0.1800000       -0.08231208    0.00000000
                                                     2        0.2600000        0.11570222    0.00000000
                                                     2        0.4000000       -0.20630360    0.00000000
                                                     2        0.7000000        0.38074319    0.00000000
                                                     2        1.2000000       -0.17045091    0.00000000
                                                     2        2.0000000       -1.45433187    0.00000000
                                      S - G
                                                     0        0.0000010       -0.00117944    0.00000000
                                                     2        0.1400000        0.04368312    0.00000000
                                                     2        0.3000000       -0.33477926    0.00000000
                                                     2        0.6000000        1.52630657    0.00000000
                                                     2        1.5000000       -2.50804716    0.00000000
                                                     2        3.0000000        2.89751681    0.00000000
                                      P - G
                                                     0        0.0000010        0.06576007    0.00000000
                                                     2        0.1200000       -0.10329304    0.00000000
                                                     2        0.2000000        0.24891756    0.00000000
                                                     2        0.4000000       -0.50800022    0.00000000
                                                     2        0.9000000        0.81480796    0.00000000
                                      D - G
                                                     0        0.0000010       -0.14101855    0.00000000
                                                     2        0.1200000        0.22105937    0.00000000
                                                     2        0.1800000       -0.45814988    0.00000000
                                                     2        0.3000000        0.46029282    0.00000000
                                      F - G
                                                     0        0.0000010        0.07483044    0.00000000
                                                     2        0.1200000       -0.09134252    0.00000000
                                                     2        0.1400000        0.04125459    0.00000000
                                                     2        0.3000000        0.37914837    0.00000000
                                                     2        0.5000000       -0.86881279    0.00000000
   17          8            8
                                      G and up 
                                                     0        0.0000010        0.00001165    0.00000000
                                                     2        0.1200000       -0.01744018    0.00000000
                                                     2        0.1400000        0.05401326    0.00000000
                                                     2        0.1800000       -0.08231208    0.00000000
                                                     2        0.2600000        0.11570222    0.00000000
                                                     2        0.4000000       -0.20630360    0.00000000
                                                     2        0.7000000        0.38074319    0.00000000
                                                     2        1.2000000       -0.17045091    0.00000000
                                                     2        2.0000000       -1.45433187    0.00000000
                                      S - G
                                                     0        0.0000010       -0.00117944    0.00000000
                                                     2        0.1400000        0.04368312    0.00000000
                                                     2        0.3000000       -0.33477926    0.00000000
                                                     2        0.6000000        1.52630657    0.00000000
                                                     2        1.5000000       -2.50804716    0.00000000
                                                     2        3.0000000        2.89751681    0.00000000
                                      P - G
                                                     0        0.0000010        0.06576007    0.00000000
                                                     2        0.1200000       -0.10329304    0.00000000
                                                     2        0.2000000        0.24891756    0.00000000
                                                     2        0.4000000       -0.50800022    0.00000000
                                                     2        0.9000000        0.81480796    0.00000000
                                      D - G
                                                     0        0.0000010       -0.14101855    0.00000000
                                                     2        0.1200000        0.22105937    0.00000000
                                                     2        0.1800000       -0.45814988    0.00000000
                                                     2        0.3000000        0.46029282    0.00000000
                                      F - G
                                                     0        0.0000010        0.07483044    0.00000000
                                                     2        0.1200000       -0.09134252    0.00000000
                                                     2        0.1400000        0.04125459    0.00000000
                                                     2        0.3000000        0.37914837    0.00000000
                                                     2        0.5000000       -0.86881279    0.00000000
 ======================================================================================================
   339 basis functions,   641 primitive gaussians,   365 cartesian basis functions
    54 alpha electrons       54 beta electrons
       nuclear repulsion energy       996.8367172153 Hartrees.
 NAtoms=   17 NActive=   17 NUniq=   17 SFac= 1.00D+00 NAtFMM=   60 NAOKFM=F Big=F
   1 Symmetry operations used in ECPInt.
 ECPInt:  NShTT=    9730 NPrTT=   61052 LenC2=    9626 LenP2D=   39381.
 LDataN:  DoStor=T MaxTD1= 6 Len=  172
 Initial guess from the checkpoint file:  "E2SN2_280_mol1.chk"
 B after Tr=    -1.524123    0.461638    0.113777
         Rot=    0.598320    0.362491    0.255832    0.667206 Ang= 106.50 deg.
 >>>>>>>>>> Convergence criterion not met.
 SCF Done:  E(RHF) =  -1175.58964983     A.U. after    2 cycles
            NFock=  1  Conv=0.67D-02     -V/T= 1.9973

 **********************************************************************

            Population analysis using the SCF Density.

 **********************************************************************

 Orbital symmetries:
       Occupied  (A) (A) (A) (A) (A) (A) (A) (A) (A) (A) (A) (A)
                 (A) (A) (A) (A) (A) (A) (A) (A) (A) (A) (A) (A)
                 (A) (A) (A) (A) (A) (A) (A) (A) (A) (A) (A) (A)
                 (A) (A) (A) (A) (A) (A) (A) (A) (A) (A) (A) (A)
                 (A) (A) (A) (A) (A) (A)
       Virtual   (A) (A) (A) (A) (A) (A) (A) (A) (A) (A) (A) (A)
                 (A) (A) (A) (A) (A) (A) (A) (A) (A) (A) (A) (A)
                 (A) (A) (A) (A) (A) (A) (A) (A) (A) (A) (A) (A)
                 (A) (A) (A) (A) (A) (A) (A) (A) (A) (A) (A) (A)
                 (A) (A) (A) (A) (A) (A) (A) (A) (A) (A) (A) (A)
                 (A) (A) (A) (A) (A) (A) (A) (A) (A) (A) (A) (A)
                 (A) (A) (A) (A) (A) (A) (A) (A) (A) (A) (A) (A)
                 (A) (A) (A) (A) (A) (A) (A) (A) (A) (A) (A) (A)
                 (A) (A) (A) (A) (A) (A) (A) (A) (A) (A) (A) (A)
                 (A) (A) (A) (A) (A) (A) (A) (A) (A) (A) (A) (A)
                 (A) (A) (A) (A) (A) (A) (A) (A) (A) (A) (A) (A)
                 (A) (A) (A) (A) (A) (A) (A) (A) (A) (A) (A) (A)
                 (A) (A) (A) (A) (A) (A) (A) (A) (A) (A) (A) (A)
                 (A) (A) (A) (A) (A) (A) (A) (A) (A) (A) (A) (A)
                 (A) (A) (A) (A) (A) (A) (A) (A) (A) (A) (A) (A)
                 (A) (A) (A) (A) (A) (A) (A) (A) (A) (A) (A) (A)
                 (A) (A) (A) (A) (A) (A) (A) (A) (A) (A) (A) (A)
                 (A) (A) (A) (A) (A) (A) (A) (A) (A) (A) (A) (A)
                 (A) (A) (A) (A) (A) (A) (A) (A) (A) (A) (A) (A)
                 (A) (A) (A) (A) (A) (A) (A) (A) (A) (A) (A) (A)
                 (A) (A) (A) (A) (A) (A) (A) (A) (A) (A) (A) (A)
                 (A) (A) (A) (A) (A) (A) (A) (A) (A) (A) (A) (A)
                 (A) (A) (A) (A) (A) (A) (A) (A) (A) (A) (A) (A)
                 (A) (A) (A) (A) (A) (A) (A) (A) (A)
 The electronic state is 1-A.
 Alpha  occ. eigenvalues -- -103.46503 -25.87057 -20.53478 -20.52971 -20.52882
 Alpha  occ. eigenvalues --  -20.52271 -15.83231 -15.82446 -15.51941 -11.31216
 Alpha  occ. eigenvalues --  -11.29559 -11.18702 -11.14780 -10.49832  -8.15477
 Alpha  occ. eigenvalues --   -8.15328  -8.15310  -1.46544  -1.44568  -1.37340
 Alpha  occ. eigenvalues --   -1.27836  -1.26981  -1.08562  -1.05210  -0.97405
 Alpha  occ. eigenvalues --   -0.91203  -0.85819  -0.81291  -0.75194  -0.69978
 Alpha  occ. eigenvalues --   -0.69440  -0.66501  -0.64207  -0.63082  -0.60768
 Alpha  occ. eigenvalues --   -0.55017  -0.52629  -0.52156  -0.48082  -0.47472
 Alpha  occ. eigenvalues --   -0.47172  -0.43513  -0.42834  -0.42734  -0.41957
 Alpha  occ. eigenvalues --   -0.41788  -0.40255  -0.38570  -0.37233  -0.34972
 Alpha  occ. eigenvalues --   -0.33075  -0.29958  -0.29086  -0.27672
 Alpha virt. eigenvalues --    0.12523   0.13611   0.15071   0.15621   0.16262
 Alpha virt. eigenvalues --    0.17313   0.18514   0.18903   0.19715   0.21184
 Alpha virt. eigenvalues --    0.21475   0.22386   0.23555   0.24644   0.24902
 Alpha virt. eigenvalues --    0.25450   0.25765   0.26983   0.27282   0.27661
 Alpha virt. eigenvalues --    0.28371   0.28719   0.29882   0.30401   0.30827
 Alpha virt. eigenvalues --    0.31498   0.32578   0.34466   0.35181   0.35642
 Alpha virt. eigenvalues --    0.36143   0.36659   0.37218   0.37313   0.38305
 Alpha virt. eigenvalues --    0.39410   0.40167   0.41219   0.41524   0.42704
 Alpha virt. eigenvalues --    0.42728   0.43238   0.43692   0.44698   0.45186
 Alpha virt. eigenvalues --    0.45551   0.46364   0.47290   0.47441   0.48092
 Alpha virt. eigenvalues --    0.49379   0.49656   0.50547   0.51154   0.52395
 Alpha virt. eigenvalues --    0.52491   0.53018   0.54539   0.54919   0.55617
 Alpha virt. eigenvalues --    0.56173   0.56578   0.57428   0.58418   0.58946
 Alpha virt. eigenvalues --    0.59579   0.60793   0.61609   0.62091   0.62610
 Alpha virt. eigenvalues --    0.63509   0.64232   0.65033   0.67143   0.67383
 Alpha virt. eigenvalues --    0.67767   0.68464   0.69657   0.70481   0.70943
 Alpha virt. eigenvalues --    0.72001   0.73608   0.74775   0.75964   0.77205
 Alpha virt. eigenvalues --    0.77861   0.78137   0.79403   0.80276   0.80863
 Alpha virt. eigenvalues --    0.82484   0.83515   0.84428   0.85628   0.87354
 Alpha virt. eigenvalues --    0.88523   0.89410   0.90261   0.90653   0.91656
 Alpha virt. eigenvalues --    0.92690   0.93337   0.94574   0.95744   0.96849
 Alpha virt. eigenvalues --    0.98023   0.99447   1.01751   1.02606   1.04074
 Alpha virt. eigenvalues --    1.04340   1.06293   1.06908   1.09184   1.09809
 Alpha virt. eigenvalues --    1.11054   1.12304   1.14770   1.15152   1.15416
 Alpha virt. eigenvalues --    1.17246   1.19221   1.20456   1.20930   1.21877
 Alpha virt. eigenvalues --    1.23536   1.23705   1.25321   1.26382   1.27482
 Alpha virt. eigenvalues --    1.28897   1.30210   1.31394   1.32660   1.33359
 Alpha virt. eigenvalues --    1.34946   1.36309   1.37126   1.37345   1.38689
 Alpha virt. eigenvalues --    1.39263   1.40194   1.41168   1.41408   1.42180
 Alpha virt. eigenvalues --    1.43865   1.44699   1.46290   1.48843   1.49218
 Alpha virt. eigenvalues --    1.51618   1.52090   1.52574   1.54947   1.56197
 Alpha virt. eigenvalues --    1.56562   1.58104   1.59198   1.60431   1.61743
 Alpha virt. eigenvalues --    1.64098   1.65428   1.66255   1.67951   1.68119
 Alpha virt. eigenvalues --    1.69110   1.71562   1.71993   1.72581   1.74459
 Alpha virt. eigenvalues --    1.77052   1.77661   1.78412   1.80603   1.80942
 Alpha virt. eigenvalues --    1.83673   1.84509   1.86482   1.87784   1.89358
 Alpha virt. eigenvalues --    1.89639   1.91932   1.93985   1.94569   1.96755
 Alpha virt. eigenvalues --    1.97495   1.99934   2.01019   2.01579   2.03099
 Alpha virt. eigenvalues --    2.03461   2.06517   2.08131   2.09716   2.11156
 Alpha virt. eigenvalues --    2.13496   2.15253   2.16147   2.20015   2.21080
 Alpha virt. eigenvalues --    2.22367   2.24800   2.25549   2.28375   2.29432
 Alpha virt. eigenvalues --    2.32633   2.34245   2.35082   2.37760   2.38613
 Alpha virt. eigenvalues --    2.43533   2.44278   2.45715   2.47262   2.49757
 Alpha virt. eigenvalues --    2.53861   2.55511   2.57139   2.58885   2.60044
 Alpha virt. eigenvalues --    2.63097   2.64970   2.65780   2.70291   2.70728
 Alpha virt. eigenvalues --    2.73949   2.74837   2.79012   2.81037   2.83348
 Alpha virt. eigenvalues --    2.84775   2.85369   2.91411   2.92496   2.94511
 Alpha virt. eigenvalues --    2.97027   2.98957   3.02558   3.05492   3.07696
 Alpha virt. eigenvalues --    3.09815   3.13807   3.16395   3.18385   3.19500
 Alpha virt. eigenvalues --    3.21538   3.24323   3.29114   3.33431   3.38710
 Alpha virt. eigenvalues --    3.51601   3.59552   3.60219   3.62177   3.63203
 Alpha virt. eigenvalues --    3.66288   3.67224   3.68720   3.70772   3.72065
 Alpha virt. eigenvalues --    3.72657   3.74737   3.76104   3.78068   3.78435
 Alpha virt. eigenvalues --    3.82002   3.83461   3.90737   3.91733   3.94957
 Alpha virt. eigenvalues --    3.97769   4.00912   4.02331   4.16897   4.19145
 Alpha virt. eigenvalues --    4.21777   4.26804   4.52693   4.70526   4.94455
 Alpha virt. eigenvalues --    5.27019   5.35760   5.37959   5.40580   5.50458
          Condensed to atoms (all electrons):
 Mulliken charges:
               1
     1  C    0.170767
     2  H   -0.057922
     3  Cl  -0.556628
     4  F   -0.762463
     5  C    1.871427
     6  C   -0.604863
     7  N   -0.289342
     8  C    0.549316
     9  H    0.154681
    10  H    0.095669
    11  H    0.007592
    12  N    0.374772
    13  O   -0.584212
    14  O   -0.621143
    15  N    0.461433
    16  O   -0.634914
    17  O   -0.574170
 Sum of Mulliken charges =  -1.00000
 Mulliken charges with hydrogens summed into heavy atoms:
               1
     1  C    0.170767
     3  Cl  -0.556628
     4  F   -0.762463
     5  C    1.813505
     6  C   -0.604863
     7  N   -0.289342
     8  C    0.807258
    12  N    0.374772
    13  O   -0.584212
    14  O   -0.621143
    15  N    0.461433
    16  O   -0.634914
    17  O   -0.574170
 Electronic spatial extent (au):  <R**2>=           2169.7179
 Charge=             -1.0000 electrons
 Dipole moment (field-independent basis, Debye):
    X=              1.8509    Y=              2.1798    Z=              3.8132  Tot=              4.7663

 Test job not archived.
 1\1\GINC-SE423\SP\RHF\Aug-CC-pVDZ\C4H4Cl1F1N3O4(1-)\OHZDE\09-Apr-2025\
 0\\#t hf aug-cc-pvdz iop(5/13=1,5/36=2,99/5=2) pseudo=read geom=check 
 guess=(read,tcheck) scf=(maxcycle=1)\\title\\-1,1\C,0,0.45982502,-0.10
 11158,0.04763407\H,0,1.56107534,1.59392476,0.66664365\Cl,0,-1.73120298
 ,-0.28149957,0.56006365\F,0,2.20862192,0.09740681,-0.64979901\C,0,0.61
 227974,1.40656618,0.17924103\C,0,0.20092967,-0.78097979,-1.19949409\N,
 0,0.03078975,-1.44900327,-2.15278994\C,0,0.90280858,-0.93405601,1.2331
 312\H,0,1.98144311,-1.06264339,1.16861155\H,0,0.62674471,-0.42877872,2
 .15800367\H,0,0.39908069,-1.89815169,1.20958571\N,0,-0.40341231,2.1428
 8641,1.02886467\O,0,-1.2076534,2.88793754,0.48691289\O,0,-0.26317191,1
 .97580016,2.23537177\N,0,0.66493427,2.13309708,-1.12062849\O,0,1.40512
 684,3.1143138,-1.13855003\O,0,-0.06126901,1.7567555,-2.03000231\\Versi
 on=ES64L-G16RevC.01\State=1-A\HF=-1175.5896498\RMSD=6.735e-03\Dipole=0
 .6438541,0.4465277,1.7036654\Quadrupole=-1.5195951,0.8764373,0.6431578
 ,-1.2124556,7.2211271,-5.6499937\PG=C01 [X(C4H4Cl1F1N3O4)]\\@


 FORGIVE MY NONSENSE AS I ALSO FORGIVE THOSE WHO THINK THEY TALK SENSE

                                                       -- ROBERT FROST
 Job cpu time:       0 days  0 hours  3 minutes  2.3 seconds.
 Elapsed time:       0 days  0 hours  0 minutes 12.9 seconds.
 File lengths (MBytes):  RWF=     19 Int=      0 D2E=      0 Chk=     16 Scr=      1
 Normal termination of Gaussian 16 at Wed Apr  9 02:48:38 2025.
