 Entering Gaussian System, Link 0=g16
 Input=Grambow2020_wb97xd3_007761_forward_mol1.gjf
 Output=Grambow2020_wb97xd3_007761_forward_mol1.log
 Initial command:
 /arc/software/Gaussian/g16.c01/l1.exe "/tmp/slurm/4877217/Gau-503356.inp" -scrdir="/tmp/slurm/4877217/"
 Entering Link 1 = /arc/software/Gaussian/g16.c01/l1.exe PID=    503357.
  
 Copyright (c) 1988-2019, Gaussian, Inc.  All Rights Reserved.
  
 This is part of the Gaussian(R) 16 program.  It is based on
 the Gaussian(R) 09 system (copyright 2009, Gaussian, Inc.),
 the Gaussian(R) 03 system (copyright 2003, Gaussian, Inc.),
 the Gaussian(R) 98 system (copyright 1998, Gaussian, Inc.),
 the Gaussian(R) 94 system (copyright 1995, Gaussian, Inc.),
 the Gaussian 92(TM) system (copyright 1992, Gaussian, Inc.),
 the Gaussian 90(TM) system (copyright 1990, Gaussian, Inc.),
 the Gaussian 88(TM) system (copyright 1988, Gaussian, Inc.),
 the Gaussian 86(TM) system (copyright 1986, Carnegie Mellon
 University), and the Gaussian 82(TM) system (copyright 1983,
 Carnegie Mellon University). Gaussian is a federally registered
 trademark of Gaussian, Inc.
  
 This software contains proprietary and confidential information,
 including trade secrets, belonging to Gaussian, Inc.
  
 This software is provided under written license and may be
 used, copied, transmitted, or stored only in accord with that
 written license.
  
 The following legend is applicable only to US Government
 contracts under FAR:
  
                    RESTRICTED RIGHTS LEGEND
  
 Use, reproduction and disclosure by the US Government is
 subject to restrictions as set forth in subparagraphs (a)
 and (c) of the Commercial Computer Software - Restricted
 Rights clause in FAR 52.227-19.
  
 Gaussian, Inc.
 340 Quinnipiac St., Bldg. 40, Wallingford CT 06492
  
  
 ---------------------------------------------------------------
 Warning -- This program may not be used in any manner that
 competes with the business of Gaussian, Inc. or will provide
 assistance to any competitor of Gaussian, Inc.  The licensee
 of this program is prohibited from giving any competitor of
 Gaussian, Inc. access to this program.  By using this program,
 the user acknowledges that Gaussian, Inc. is engaged in the
 business of creating and licensing software in the field of
 computational chemistry and represents and warrants to the
 licensee that it is not a competitor of Gaussian, Inc. and that
 it will not use this program in any manner prohibited above.
 ---------------------------------------------------------------
  

 Cite this work as:
 Gaussian 16, Revision C.01,
 M. J. Frisch, G. W. Trucks, H. B. Schlegel, G. E. Scuseria, 
 M. A. Robb, J. R. Cheeseman, G. Scalmani, V. Barone, 
 G. A. Petersson, H. Nakatsuji, X. Li, M. Caricato, A. V. Marenich, 
 J. Bloino, B. G. Janesko, R. Gomperts, B. Mennucci, H. P. Hratchian, 
 J. V. Ortiz, A. F. Izmaylov, J. L. Sonnenberg, D. Williams-Young, 
 F. Ding, F. Lipparini, F. Egidi, J. Goings, B. Peng, A. Petrone, 
 T. Henderson, D. Ranasinghe, V. G. Zakrzewski, J. Gao, N. Rega, 
 G. Zheng, W. Liang, M. Hada, M. Ehara, K. Toyota, R. Fukuda, 
 J. Hasegawa, M. Ishida, T. Nakajima, Y. Honda, O. Kitao, H. Nakai, 
 T. Vreven, K. Throssell, J. A. Montgomery, Jr., J. E. Peralta, 
 F. Ogliaro, M. J. Bearpark, J. J. Heyd, E. N. Brothers, K. N. Kudin, 
 V. N. Staroverov, T. A. Keith, R. Kobayashi, J. Normand, 
 K. Raghavachari, A. P. Rendell, J. C. Burant, S. S. Iyengar, 
 J. Tomasi, M. Cossi, J. M. Millam, M. Klene, C. Adamo, R. Cammi, 
 J. W. Ochterski, R. L. Martin, K. Morokuma, O. Farkas, 
 J. B. Foresman, and D. J. Fox, Gaussian, Inc., Wallingford CT, 2019.
 
 ******************************************
 Gaussian 16:  ES64L-G16RevC.01  3-Jul-2019
                 9-Apr-2025 
 ******************************************
 %nprocs=16
 Will use up to   16 processors via shared memory.
 %mem=30GB
 %chk=Grambow2020_wb97xd3_007761_forward_mol1.chk
 ----------------------------------------------------------------------
 #t hf aug-cc-pvdz symm=none int=(grid=ultrafine) guess=(read,tcheck) s
 table=(opt,rrhf)
 ----------------------------------------------------------------------
 -----
 title
 -----
 Symbolic Z-matrix:
 Charge =  0 Multiplicity = 1
 O                     0.43548  -2.00446   0.12492 
 C                     2.30193  -0.82272   0.114 
 N                     1.2574   -0.03089   0.24605 
 C                    -1.29099   2.17722  -0.72147 
 N                    -1.21935   1.0112   -0.39772 
 C                    -1.0511   -0.22792  -0.20477 
 N                     0.23235  -0.73514   0.07858 
 H                     2.90017  -0.95654   1.02853 
 H                    -1.49084   2.92922   0.0439 
 H                    -1.84137  -0.95958  -0.24202 
 
                    Distance matrix (angstroms):
                    1          2          3          4          5
     1  O    0.000000
     2  C    2.209133   0.000000
     3  N    2.141306   1.317369   0.000000
     4  C    4.602556   4.754652   3.508014   0.000000
     5  N    3.479344   4.003066   2.763097   1.212248   0.000000
     6  C    2.339813   3.420262   2.360343   2.471678   1.265285
     7  N    1.286308   2.071737   1.254887   3.382672   2.320344
     8  H    2.826541   1.100979   2.041514   5.518041   4.782954
     9  H    5.297029   5.335455   4.044254   1.091440   1.986843
    10  H    2.531892   4.160817   3.271547   3.220597   2.072460
                    6          7          8          9         10
     6  C    0.000000
     7  N    1.408828   0.000000
     8  H    4.202908   2.840545   0.000000
     9  H    3.197302   4.049461   5.945556   0.000000
    10  H    1.077608   2.110320   4.908816   3.915016   0.000000
 Symmetry turned off by external request.
 Rotational constants (GHZ):           7.3263333           1.9364422           1.5523710
   188 basis functions,   334 primitive gaussians,   202 cartesian basis functions
    25 alpha electrons       25 beta electrons
       nuclear repulsion energy       268.8929040850 Hartrees.
 NAtoms=   10 NActive=   10 NUniq=   10 SFac= 1.00D+00 NAtFMM=   60 NAOKFM=F Big=F
 ExpMin= 2.97D-02 ExpMax= 1.17D+04 ExpMxC= 4.01D+02 IAcc=3 IRadAn=         5 AccDes= 0.00D+00
 Harris functional with IExCor=  205 and IRadAn=       5 diagonalized for initial guess.
 HarFok:  IExCor=  205 AccDes= 0.00D+00 IRadAn=         5 IDoV= 1 UseB2=F ITyADJ=14
 ICtDFT=  3500011 ScaDFX=  1.000000  1.000000  1.000000  1.000000
 FoFCou: FMM=F IPFlag=           0 FMFlag=      100000 FMFlg1=           0
         NFxFlg=           0 DoJE=T BraDBF=F KetDBF=T FulRan=T
         wScrn=  0.000000 ICntrl=       500 IOpCl=  0 I1Cent=   200000004 NGrid=           0
         NMat0=    1 NMatS0=      1 NMatT0=    0 NMatD0=    1 NMtDS0=    0 NMtDT0=    0
 Symmetry not used in FoFCou.
 SCF Done:  E(RHF) =  -353.260158228     A.U. after   18 cycles
            NFock= 18  Conv=0.60D-08     -V/T= 2.0009

 **********************************************************************

            Population analysis using the SCF Density.

 **********************************************************************

 Alpha  occ. eigenvalues --  -20.57198 -15.78286 -15.69137 -15.67469 -11.36223
 Alpha  occ. eigenvalues --  -11.34486 -11.31877  -1.54817  -1.35051  -1.30058
 Alpha  occ. eigenvalues --   -1.14653  -1.02293  -0.89602  -0.75437  -0.74164
 Alpha  occ. eigenvalues --   -0.73636  -0.71403  -0.67921  -0.59395  -0.57387
 Alpha  occ. eigenvalues --   -0.53353  -0.47690  -0.45633  -0.38781  -0.31656
 Alpha virt. eigenvalues --    0.02875   0.02990   0.04337   0.04525   0.06209
 Alpha virt. eigenvalues --    0.07202   0.08180   0.09993   0.10610   0.11071
 Alpha virt. eigenvalues --    0.12093   0.12714   0.15256   0.15315   0.15700
 Alpha virt. eigenvalues --    0.16001   0.16955   0.17389   0.18578   0.19922
 Alpha virt. eigenvalues --    0.21396   0.23079   0.23366   0.26141   0.26949
 Alpha virt. eigenvalues --    0.28298   0.29034   0.29874   0.31044   0.31252
 Alpha virt. eigenvalues --    0.33363   0.33731   0.34642   0.36481   0.36947
 Alpha virt. eigenvalues --    0.37554   0.39102   0.40180   0.41888   0.42214
 Alpha virt. eigenvalues --    0.43975   0.44749   0.47362   0.49797   0.50583
 Alpha virt. eigenvalues --    0.52124   0.53492   0.53976   0.56294   0.56587
 Alpha virt. eigenvalues --    0.57302   0.58764   0.59571   0.61235   0.61958
 Alpha virt. eigenvalues --    0.63208   0.63570   0.65321   0.66520   0.67461
 Alpha virt. eigenvalues --    0.68329   0.69642   0.70718   0.72547   0.73798
 Alpha virt. eigenvalues --    0.74546   0.75180   0.78882   0.80537   0.82356
 Alpha virt. eigenvalues --    0.84049   0.85597   0.88497   0.89525   0.92237
 Alpha virt. eigenvalues --    0.92986   0.93779   0.96530   0.98269   1.02118
 Alpha virt. eigenvalues --    1.03698   1.06898   1.08458   1.10919   1.11773
 Alpha virt. eigenvalues --    1.12370   1.16983   1.18265   1.22432   1.26540
 Alpha virt. eigenvalues --    1.29061   1.31554   1.32855   1.34203   1.39440
 Alpha virt. eigenvalues --    1.40876   1.41494   1.44665   1.50096   1.53564
 Alpha virt. eigenvalues --    1.54682   1.56496   1.59452   1.60751   1.62248
 Alpha virt. eigenvalues --    1.64251   1.66057   1.68392   1.70585   1.72986
 Alpha virt. eigenvalues --    1.78131   1.81890   1.84245   1.86295   1.88875
 Alpha virt. eigenvalues --    1.95522   1.96421   1.98713   2.03516   2.04889
 Alpha virt. eigenvalues --    2.06267   2.07933   2.13884   2.16011   2.17419
 Alpha virt. eigenvalues --    2.19818   2.20426   2.21929   2.28413   2.31145
 Alpha virt. eigenvalues --    2.32168   2.35874   2.39992   2.42000   2.45514
 Alpha virt. eigenvalues --    2.51852   2.52857   2.57656   2.63010   2.64612
 Alpha virt. eigenvalues --    2.70321   2.76993   2.82532   2.87482   2.92583
 Alpha virt. eigenvalues --    2.94847   2.95743   2.99636   3.07047   3.09128
 Alpha virt. eigenvalues --    3.17241   3.23888   3.25936   3.31377   3.55356
 Alpha virt. eigenvalues --    3.69193   3.74476   3.84584   3.89069   4.02286
 Alpha virt. eigenvalues --    4.02793   4.08215   4.33548
          Condensed to atoms (all electrons):
 Mulliken charges:
               1
     1  O   -1.038603
     2  C    0.445590
     3  N   -0.128906
     4  C    0.068894
     5  N   -0.030375
     6  C    0.915695
     7  N    0.266234
     8  H   -0.095120
     9  H   -0.142020
    10  H   -0.261389
 Sum of Mulliken charges =  -0.00000
 Mulliken charges with hydrogens summed into heavy atoms:
               1
     1  O   -1.038603
     2  C    0.350470
     3  N   -0.128906
     4  C   -0.073126
     5  N   -0.030375
     6  C    0.654306
     7  N    0.266234
 Electronic spatial extent (au):  <R**2>=            729.2781
 Charge=             -0.0000 electrons
 Dipole moment (field-independent basis, Debye):
    X=             -1.4473    Y=              2.5214    Z=              2.4194  Tot=              3.7822
 NROrb=    188 NOA=    25 NOB=    25 NVA=   163 NVB=   163

 **** Warning!!: The largest alpha MO coefficient is  0.33663318D+02

    12 initial guesses have been made.
 Iteration     1 Dimension    12 NMult     0 NNew     12
 New state      1 was old state      3
 Iteration     2 Dimension    24 NMult    12 NNew     12
 Iteration     3 Dimension    27 NMult    24 NNew      3
 Iteration     4 Dimension    30 NMult    27 NNew      3
 Iteration     5 Dimension    33 NMult    30 NNew      3
 Iteration     6 Dimension    36 NMult    33 NNew      3
 Iteration     7 Dimension    39 NMult    36 NNew      3
 ***********************************************************************
 Stability analysis using <AA,BB:AA,BB> singles matrix:
 ***********************************************************************
 Ground to excited state transition densities written to RWF  633

 Eigenvectors of the stability matrix:
 
 Excited state symmetry could not be determined.
 Eigenvector   1:      Singlet-?Sym  Eigenvalue= 0.0987289  <S**2>=0.000
      24 -> 26        -0.21228
      24 -> 30        -0.21937
      24 -> 37         0.14333
      25 -> 26         0.35941
      25 -> 30         0.32025
      25 -> 32        -0.10392
      25 -> 37        -0.20413
 The wavefunction is stable under the perturbations considered.
 The wavefunction is already stable.

 **********************************************************************

            Population analysis using the SCF Density.

 **********************************************************************

 Alpha  occ. eigenvalues --  -20.57198 -15.78286 -15.69137 -15.67469 -11.36223
 Alpha  occ. eigenvalues --  -11.34486 -11.31877  -1.54817  -1.35051  -1.30058
 Alpha  occ. eigenvalues --   -1.14653  -1.02293  -0.89602  -0.75437  -0.74164
 Alpha  occ. eigenvalues --   -0.73636  -0.71403  -0.67921  -0.59395  -0.57387
 Alpha  occ. eigenvalues --   -0.53353  -0.47690  -0.45633  -0.38781  -0.31656
 Alpha virt. eigenvalues --    0.02875   0.02990   0.04337   0.04525   0.06209
 Alpha virt. eigenvalues --    0.07202   0.08180   0.09993   0.10610   0.11071
 Alpha virt. eigenvalues --    0.12093   0.12714   0.15256   0.15315   0.15700
 Alpha virt. eigenvalues --    0.16001   0.16955   0.17389   0.18578   0.19922
 Alpha virt. eigenvalues --    0.21396   0.23079   0.23366   0.26141   0.26949
 Alpha virt. eigenvalues --    0.28298   0.29034   0.29874   0.31044   0.31252
 Alpha virt. eigenvalues --    0.33363   0.33731   0.34642   0.36481   0.36947
 Alpha virt. eigenvalues --    0.37554   0.39102   0.40180   0.41888   0.42214
 Alpha virt. eigenvalues --    0.43975   0.44749   0.47362   0.49797   0.50583
 Alpha virt. eigenvalues --    0.52124   0.53492   0.53976   0.56294   0.56587
 Alpha virt. eigenvalues --    0.57302   0.58764   0.59571   0.61235   0.61958
 Alpha virt. eigenvalues --    0.63208   0.63570   0.65321   0.66520   0.67461
 Alpha virt. eigenvalues --    0.68329   0.69642   0.70718   0.72547   0.73798
 Alpha virt. eigenvalues --    0.74546   0.75180   0.78882   0.80537   0.82356
 Alpha virt. eigenvalues --    0.84049   0.85597   0.88497   0.89525   0.92237
 Alpha virt. eigenvalues --    0.92986   0.93779   0.96530   0.98269   1.02118
 Alpha virt. eigenvalues --    1.03698   1.06898   1.08458   1.10919   1.11773
 Alpha virt. eigenvalues --    1.12370   1.16983   1.18265   1.22432   1.26540
 Alpha virt. eigenvalues --    1.29061   1.31554   1.32855   1.34203   1.39440
 Alpha virt. eigenvalues --    1.40876   1.41494   1.44665   1.50096   1.53564
 Alpha virt. eigenvalues --    1.54682   1.56496   1.59452   1.60751   1.62248
 Alpha virt. eigenvalues --    1.64251   1.66057   1.68392   1.70585   1.72986
 Alpha virt. eigenvalues --    1.78131   1.81890   1.84245   1.86295   1.88875
 Alpha virt. eigenvalues --    1.95522   1.96421   1.98713   2.03516   2.04889
 Alpha virt. eigenvalues --    2.06267   2.07933   2.13884   2.16011   2.17419
 Alpha virt. eigenvalues --    2.19818   2.20426   2.21929   2.28413   2.31145
 Alpha virt. eigenvalues --    2.32168   2.35874   2.39992   2.42000   2.45514
 Alpha virt. eigenvalues --    2.51852   2.52857   2.57656   2.63010   2.64612
 Alpha virt. eigenvalues --    2.70321   2.76993   2.82532   2.87482   2.92583
 Alpha virt. eigenvalues --    2.94847   2.95743   2.99636   3.07047   3.09128
 Alpha virt. eigenvalues --    3.17241   3.23888   3.25936   3.31377   3.55356
 Alpha virt. eigenvalues --    3.69193   3.74476   3.84584   3.89069   4.02286
 Alpha virt. eigenvalues --    4.02793   4.08215   4.33548
          Condensed to atoms (all electrons):
 Mulliken charges:
               1
     1  O   -1.038603
     2  C    0.445590
     3  N   -0.128906
     4  C    0.068894
     5  N   -0.030375
     6  C    0.915695
     7  N    0.266234
     8  H   -0.095120
     9  H   -0.142020
    10  H   -0.261389
 Sum of Mulliken charges =  -0.00000
 Mulliken charges with hydrogens summed into heavy atoms:
               1
     1  O   -1.038603
     2  C    0.350470
     3  N   -0.128906
     4  C   -0.073126
     5  N   -0.030375
     6  C    0.654306
     7  N    0.266234
 Electronic spatial extent (au):  <R**2>=            729.2781
 Charge=             -0.0000 electrons
 Dipole moment (field-independent basis, Debye):
    X=             -1.4473    Y=              2.5214    Z=              2.4194  Tot=              3.7822
 Unable to Open any file for archive entry.
 1\1\GINC-SE219\Stability\RHF\Aug-CC-pVDZ\C3H3N3O1\OHZDE\09-Apr-2025\0\
 \#t hf aug-cc-pvdz symm=none int=(grid=ultrafine) guess=(read,tcheck) 
 stable=(opt,rrhf)\\title\\0,1\O,0,0.43548389,-2.00446177,0.12492008\C,
 0,2.30193126,-0.82271582,0.11400479\N,0,1.25740106,-0.03089433,0.24605
 341\C,0,-1.29099288,2.17721596,-0.72146916\N,0,-1.21935238,1.01119755,
 -0.39771858\C,0,-1.05109582,-0.22791783,-0.20477379\N,0,0.23234923,-0.
 7351404,0.07857995\H,0,2.90017093,-0.9565394,1.02852975\H,0,-1.4908435
 ,2.9292204,0.04390015\H,0,-1.84136679,-0.95957537,-0.24201661\\Version
 =ES64L-G16RevC.01\HF=-353.2601582\RMSD=5.962e-09\Dipole=-0.569396,0.99
 19874,0.9518504\Quadrupole=5.2054206,-3.5952954,-1.6101252,0.5718522,2
 .3682516,1.8581539\PG=Unknown\\@
 The archive entry for this job was punched.


 QUHEN THE CAUSS IS TAKEN AWAY THE EFFECT WANISHETH.
 -- PROVERBS AND REASONS OF THE YEAR 1585
           AS REPRINTED IN PAISLEY MAGAZINE 1828.
 Job cpu time:       0 days  0 hours  1 minutes 32.9 seconds.
 Elapsed time:       0 days  0 hours  0 minutes 14.6 seconds.
 File lengths (MBytes):  RWF=    189 Int=      0 D2E=      0 Chk=      6 Scr=      1
 Normal termination of Gaussian 16 at Wed Apr  9 16:05:46 2025.
 Initial command:
 /arc/software/Gaussian/g16.c01/l1.exe "/tmp/slurm/4877217/Gau-503356.inp" -scrdir="/tmp/slurm/4877217/"
 Entering Link 1 = /arc/software/Gaussian/g16.c01/l1.exe PID=    503573.
  
 Copyright (c) 1988-2019, Gaussian, Inc.  All Rights Reserved.
  
 This is part of the Gaussian(R) 16 program.  It is based on
 the Gaussian(R) 09 system (copyright 2009, Gaussian, Inc.),
 the Gaussian(R) 03 system (copyright 2003, Gaussian, Inc.),
 the Gaussian(R) 98 system (copyright 1998, Gaussian, Inc.),
 the Gaussian(R) 94 system (copyright 1995, Gaussian, Inc.),
 the Gaussian 92(TM) system (copyright 1992, Gaussian, Inc.),
 the Gaussian 90(TM) system (copyright 1990, Gaussian, Inc.),
 the Gaussian 88(TM) system (copyright 1988, Gaussian, Inc.),
 the Gaussian 86(TM) system (copyright 1986, Carnegie Mellon
 University), and the Gaussian 82(TM) system (copyright 1983,
 Carnegie Mellon University). Gaussian is a federally registered
 trademark of Gaussian, Inc.
  
 This software contains proprietary and confidential information,
 including trade secrets, belonging to Gaussian, Inc.
  
 This software is provided under written license and may be
 used, copied, transmitted, or stored only in accord with that
 written license.
  
 The following legend is applicable only to US Government
 contracts under FAR:
  
                    RESTRICTED RIGHTS LEGEND
  
 Use, reproduction and disclosure by the US Government is
 subject to restrictions as set forth in subparagraphs (a)
 and (c) of the Commercial Computer Software - Restricted
 Rights clause in FAR 52.227-19.
  
 Gaussian, Inc.
 340 Quinnipiac St., Bldg. 40, Wallingford CT 06492
  
  
 ---------------------------------------------------------------
 Warning -- This program may not be used in any manner that
 competes with the business of Gaussian, Inc. or will provide
 assistance to any competitor of Gaussian, Inc.  The licensee
 of this program is prohibited from giving any competitor of
 Gaussian, Inc. access to this program.  By using this program,
 the user acknowledges that Gaussian, Inc. is engaged in the
 business of creating and licensing software in the field of
 computational chemistry and represents and warrants to the
 licensee that it is not a competitor of Gaussian, Inc. and that
 it will not use this program in any manner prohibited above.
 ---------------------------------------------------------------
  

 Cite this work as:
 Gaussian 16, Revision C.01,
 M. J. Frisch, G. W. Trucks, H. B. Schlegel, G. E. Scuseria, 
 M. A. Robb, J. R. Cheeseman, G. Scalmani, V. Barone, 
 G. A. Petersson, H. Nakatsuji, X. Li, M. Caricato, A. V. Marenich, 
 J. Bloino, B. G. Janesko, R. Gomperts, B. Mennucci, H. P. Hratchian, 
 J. V. Ortiz, A. F. Izmaylov, J. L. Sonnenberg, D. Williams-Young, 
 F. Ding, F. Lipparini, F. Egidi, J. Goings, B. Peng, A. Petrone, 
 T. Henderson, D. Ranasinghe, V. G. Zakrzewski, J. Gao, N. Rega, 
 G. Zheng, W. Liang, M. Hada, M. Ehara, K. Toyota, R. Fukuda, 
 J. Hasegawa, M. Ishida, T. Nakajima, Y. Honda, O. Kitao, H. Nakai, 
 T. Vreven, K. Throssell, J. A. Montgomery, Jr., J. E. Peralta, 
 F. Ogliaro, M. J. Bearpark, J. J. Heyd, E. N. Brothers, K. N. Kudin, 
 V. N. Staroverov, T. A. Keith, R. Kobayashi, J. Normand, 
 K. Raghavachari, A. P. Rendell, J. C. Burant, S. S. Iyengar, 
 J. Tomasi, M. Cossi, J. M. Millam, M. Klene, C. Adamo, R. Cammi, 
 J. W. Ochterski, R. L. Martin, K. Morokuma, O. Farkas, 
 J. B. Foresman, and D. J. Fox, Gaussian, Inc., Wallingford CT, 2019.
 
 ******************************************
 Gaussian 16:  ES64L-G16RevC.01  3-Jul-2019
                 9-Apr-2025 
 ******************************************
 %nprocs=16
 Will use up to   16 processors via shared memory.
 %mem=30GB
 %chk=Grambow2020_wb97xd3_007761_forward_mol1.chk
 ----------------------------------------------------------------------
 #t hf aug-cc-pvdz iop(5/13=1,5/36=2,99/5=2) pseudo=read geom=check gue
 ss=(read,tcheck) scf=(maxcycle=1)
 ----------------------------------------------------------------------
 -----
 title
 -----
 Structure from the checkpoint file:  "Grambow2020_wb97xd3_007761_forward_mol1.chk"
 Charge =  0 Multiplicity = 1
 Z-Matrix found in chk file.
 O,0,0.43548389,-2.00446177,0.12492008
 C,0,2.30193126,-0.82271582,0.11400479
 N,0,1.25740106,-0.03089433,0.24605341
 C,0,-1.29099288,2.17721596,-0.72146916
 N,0,-1.21935238,1.01119755,-0.39771858
 C,0,-1.05109582,-0.22791783,-0.20477379
 N,0,0.23234923,-0.7351404,0.07857995
 H,0,2.90017093,-0.9565394,1.02852975
 H,0,-1.4908435,2.9292204,0.04390015
 H,0,-1.84136679,-0.95957537,-0.24201661
 Recover connectivity data from disk.
                    Distance matrix (angstroms):
                    1          2          3          4          5
     1  O    0.000000
     2  C    2.209133   0.000000
     3  N    2.141306   1.317369   0.000000
     4  C    4.602556   4.754652   3.508014   0.000000
     5  N    3.479344   4.003066   2.763097   1.212248   0.000000
     6  C    2.339813   3.420262   2.360343   2.471678   1.265285
     7  N    1.286308   2.071737   1.254887   3.382672   2.320344
     8  H    2.826541   1.100979   2.041514   5.518041   4.782954
     9  H    5.297029   5.335455   4.044254   1.091440   1.986843
    10  H    2.531892   4.160817   3.271547   3.220597   2.072460
                    6          7          8          9         10
     6  C    0.000000
     7  N    1.408828   0.000000
     8  H    4.202908   2.840545   0.000000
     9  H    3.197302   4.049461   5.945556   0.000000
    10  H    1.077608   2.110320   4.908816   3.915016   0.000000
 Framework group  C1[X(C3H3N3O)]
 Deg. of freedom    24
                         Standard orientation:                         
 ---------------------------------------------------------------------
 Center     Atomic      Atomic             Coordinates (Angstroms)
 Number     Number       Type             X           Y           Z
 ---------------------------------------------------------------------
      1          8           0       -1.573338    1.089911   -0.042145
      2          6           0       -2.052609   -1.058050   -0.234061
      3          7           0       -0.798803   -0.898324    0.137317
      4          6           0        2.684444   -0.650992   -0.197315
      5          7           0        1.767055    0.117246   -0.003010
      6          6           0        0.755181    0.875645    0.040419
      7          7           0       -0.542628    0.328118    0.066923
      8          1           0       -2.727460   -1.419721    0.557094
      9          1           0        3.207531   -1.080399    0.658974
     10          1           0        0.805171    1.951945    0.058221
 ---------------------------------------------------------------------
 Rotational constants (GHZ):           7.3263333           1.9364422           1.5523710
 ======================================================================================================
                                       Pseudopotential Parameters
 ======================================================================================================
  Center     Atomic      Valence      Angular      Power
  Number     Number     Electrons     Momentum     of R      Exponent        Coefficient   SO-Coeffient
 ======================================================================================================
    1          8            8
                                      G and up 
                                                     0        0.0000010        0.00001165    0.00000000
                                                     2        0.1200000       -0.01744018    0.00000000
                                                     2        0.1400000        0.05401326    0.00000000
                                                     2        0.1800000       -0.08231208    0.00000000
                                                     2        0.2600000        0.11570222    0.00000000
                                                     2        0.4000000       -0.20630360    0.00000000
                                                     2        0.7000000        0.38074319    0.00000000
                                                     2        1.2000000       -0.17045091    0.00000000
                                                     2        2.0000000       -1.45433187    0.00000000
                                      S - G
                                                     0        0.0000010       -0.00117944    0.00000000
                                                     2        0.1400000        0.04368312    0.00000000
                                                     2        0.3000000       -0.33477926    0.00000000
                                                     2        0.6000000        1.52630657    0.00000000
                                                     2        1.5000000       -2.50804716    0.00000000
                                                     2        3.0000000        2.89751681    0.00000000
                                      P - G
                                                     0        0.0000010        0.06576007    0.00000000
                                                     2        0.1200000       -0.10329304    0.00000000
                                                     2        0.2000000        0.24891756    0.00000000
                                                     2        0.4000000       -0.50800022    0.00000000
                                                     2        0.9000000        0.81480796    0.00000000
                                      D - G
                                                     0        0.0000010       -0.14101855    0.00000000
                                                     2        0.1200000        0.22105937    0.00000000
                                                     2        0.1800000       -0.45814988    0.00000000
                                                     2        0.3000000        0.46029282    0.00000000
                                      F - G
                                                     0        0.0000010        0.07483044    0.00000000
                                                     2        0.1200000       -0.09134252    0.00000000
                                                     2        0.1400000        0.04125459    0.00000000
                                                     2        0.3000000        0.37914837    0.00000000
                                                     2        0.5000000       -0.86881279    0.00000000
    2          6            6
                                      G and up 
                                                     0        0.0000010       -0.00011185    0.00000000
                                                     2        0.1200000       -0.02301220    0.00000000
                                                     2        0.1400000        0.13317600    0.00000000
                                                     2        0.1600000       -0.19690668    0.00000000
                                                     2        0.2200000        0.23163694    0.00000000
                                                     2        0.3000000       -0.36920489    0.00000000
                                                     2        0.4000000        0.36389709    0.00000000
                                                     2        0.7000000       -0.38862160    0.00000000
                                                     2        1.3000000        0.80803421    0.00000000
                                      S - G
                                                     0        0.0000010        0.00312304    0.00000000
                                                     2        0.1200000       -0.00632892    0.00000000
                                                     2        0.2200000       -0.03780897    0.00000000
                                                     2        0.4000000        0.26269560    0.00000000
                                                     2        0.9000000       -0.28209514    0.00000000
                                                     2        1.5000000       -0.72686737    0.00000000
                                      P - G
                                                     0        0.0000010       -0.01465594    0.00000000
                                                     2        0.1200000        0.07908409    0.00000000
                                                     2        0.1800000       -0.30615861    0.00000000
                                                     2        0.2600000        0.41506950    0.00000000
                                                     2        0.5000000       -0.36252345    0.00000000
                                                     2        0.9000000        0.15124193    0.00000000
                                                     2        3.0000000       -0.80425677    0.00000000
                                      D - G
                                                     0        0.0000010        0.01149631    0.00000000
                                                     2        0.1200000       -0.04713561    0.00000000
                                                     2        0.1600000        0.10865096    0.00000000
                                                     2        0.2800000       -0.15816701    0.00000000
                                                     2        0.7000000        0.65478804    0.00000000
                                                     2        1.3000000       -1.73816624    0.00000000
                                      F - G
                                                     0        0.0000010        0.00481868    0.00000000
                                                     2        0.1200000       -0.04746842    0.00000000
                                                     2        0.1600000        0.09327889    0.00000000
                                                     2        0.4000000       -0.19693326    0.00000000
                                                     2        0.9000000        0.34938253    0.00000000
    3          7            7
                                      G and up 
                                                     0        0.0000010       -0.00000022    0.00000000
                                                     2        0.1200000       -0.00992020    0.00000000
                                                     2        0.1400000        0.02578711    0.00000000
                                                     2        0.2200000       -0.10543517    0.00000000
                                                     2        0.3000000        0.23013665    0.00000000
                                                     2        0.5000000       -0.60834094    0.00000000
                                                     2        0.8000000        1.81436815    0.00000000
                                                     2        1.2000000       -3.87539738    0.00000000
                                                     2        2.0000000        2.94656640    0.00000000
                                      S - G
                                                     0        0.0000010       -0.00223566    0.00000000
                                                     2        0.1200000        0.45247937    0.00000000
                                                     2        0.1600000       -0.78978304    0.00000000
                                                     2        0.4000000        0.84956595    0.00000000
                                                     2        3.0000000       -0.75910174    0.00000000
                                      P - G
                                                     0        0.0000010       -0.25576737    0.00000000
                                                     2        0.1200000       -0.19992277    0.00000000
                                                     2        0.1600000        0.88518512    0.00000000
                                                     2        0.2400000       -1.33293917    0.00000000
                                                     2        0.4000000        1.33451776    0.00000000
                                                     2        0.9000000       -0.55709210    0.00000000
                                                     2        2.5000000        2.48506502    0.00000000
                                      D - G
                                                     0        0.0000010        0.26143746    0.00000000
                                                     2        0.1200000       -0.04492212    0.00000000
                                                     2        0.1400000       -0.18274021    0.00000000
                                                     2        0.2400000        0.53490004    0.00000000
                                                     2        0.4000000       -0.74136473    0.00000000
                                                     2        1.3000000        1.71401021    0.00000000
                                      F - G
                                                     0        0.0000010       -0.07169988    0.00000000
                                                     2        0.1200000        0.04480029    0.00000000
                                                     2        0.2600000       -0.08050831    0.00000000
                                                     2        0.5000000        0.31290809    0.00000000
                                                     2        1.0000000       -0.45253098    0.00000000
    4          6            6
                                      G and up 
                                                     0        0.0000010       -0.00011185    0.00000000
                                                     2        0.1200000       -0.02301220    0.00000000
                                                     2        0.1400000        0.13317600    0.00000000
                                                     2        0.1600000       -0.19690668    0.00000000
                                                     2        0.2200000        0.23163694    0.00000000
                                                     2        0.3000000       -0.36920489    0.00000000
                                                     2        0.4000000        0.36389709    0.00000000
                                                     2        0.7000000       -0.38862160    0.00000000
                                                     2        1.3000000        0.80803421    0.00000000
                                      S - G
                                                     0        0.0000010        0.00312304    0.00000000
                                                     2        0.1200000       -0.00632892    0.00000000
                                                     2        0.2200000       -0.03780897    0.00000000
                                                     2        0.4000000        0.26269560    0.00000000
                                                     2        0.9000000       -0.28209514    0.00000000
                                                     2        1.5000000       -0.72686737    0.00000000
                                      P - G
                                                     0        0.0000010       -0.01465594    0.00000000
                                                     2        0.1200000        0.07908409    0.00000000
                                                     2        0.1800000       -0.30615861    0.00000000
                                                     2        0.2600000        0.41506950    0.00000000
                                                     2        0.5000000       -0.36252345    0.00000000
                                                     2        0.9000000        0.15124193    0.00000000
                                                     2        3.0000000       -0.80425677    0.00000000
                                      D - G
                                                     0        0.0000010        0.01149631    0.00000000
                                                     2        0.1200000       -0.04713561    0.00000000
                                                     2        0.1600000        0.10865096    0.00000000
                                                     2        0.2800000       -0.15816701    0.00000000
                                                     2        0.7000000        0.65478804    0.00000000
                                                     2        1.3000000       -1.73816624    0.00000000
                                      F - G
                                                     0        0.0000010        0.00481868    0.00000000
                                                     2        0.1200000       -0.04746842    0.00000000
                                                     2        0.1600000        0.09327889    0.00000000
                                                     2        0.4000000       -0.19693326    0.00000000
                                                     2        0.9000000        0.34938253    0.00000000
    5          7            7
                                      G and up 
                                                     0        0.0000010       -0.00000022    0.00000000
                                                     2        0.1200000       -0.00992020    0.00000000
                                                     2        0.1400000        0.02578711    0.00000000
                                                     2        0.2200000       -0.10543517    0.00000000
                                                     2        0.3000000        0.23013665    0.00000000
                                                     2        0.5000000       -0.60834094    0.00000000
                                                     2        0.8000000        1.81436815    0.00000000
                                                     2        1.2000000       -3.87539738    0.00000000
                                                     2        2.0000000        2.94656640    0.00000000
                                      S - G
                                                     0        0.0000010       -0.00223566    0.00000000
                                                     2        0.1200000        0.45247937    0.00000000
                                                     2        0.1600000       -0.78978304    0.00000000
                                                     2        0.4000000        0.84956595    0.00000000
                                                     2        3.0000000       -0.75910174    0.00000000
                                      P - G
                                                     0        0.0000010       -0.25576737    0.00000000
                                                     2        0.1200000       -0.19992277    0.00000000
                                                     2        0.1600000        0.88518512    0.00000000
                                                     2        0.2400000       -1.33293917    0.00000000
                                                     2        0.4000000        1.33451776    0.00000000
                                                     2        0.9000000       -0.55709210    0.00000000
                                                     2        2.5000000        2.48506502    0.00000000
                                      D - G
                                                     0        0.0000010        0.26143746    0.00000000
                                                     2        0.1200000       -0.04492212    0.00000000
                                                     2        0.1400000       -0.18274021    0.00000000
                                                     2        0.2400000        0.53490004    0.00000000
                                                     2        0.4000000       -0.74136473    0.00000000
                                                     2        1.3000000        1.71401021    0.00000000
                                      F - G
                                                     0        0.0000010       -0.07169988    0.00000000
                                                     2        0.1200000        0.04480029    0.00000000
                                                     2        0.2600000       -0.08050831    0.00000000
                                                     2        0.5000000        0.31290809    0.00000000
                                                     2        1.0000000       -0.45253098    0.00000000
    6          6            6
                                      G and up 
                                                     0        0.0000010       -0.00011185    0.00000000
                                                     2        0.1200000       -0.02301220    0.00000000
                                                     2        0.1400000        0.13317600    0.00000000
                                                     2        0.1600000       -0.19690668    0.00000000
                                                     2        0.2200000        0.23163694    0.00000000
                                                     2        0.3000000       -0.36920489    0.00000000
                                                     2        0.4000000        0.36389709    0.00000000
                                                     2        0.7000000       -0.38862160    0.00000000
                                                     2        1.3000000        0.80803421    0.00000000
                                      S - G
                                                     0        0.0000010        0.00312304    0.00000000
                                                     2        0.1200000       -0.00632892    0.00000000
                                                     2        0.2200000       -0.03780897    0.00000000
                                                     2        0.4000000        0.26269560    0.00000000
                                                     2        0.9000000       -0.28209514    0.00000000
                                                     2        1.5000000       -0.72686737    0.00000000
                                      P - G
                                                     0        0.0000010       -0.01465594    0.00000000
                                                     2        0.1200000        0.07908409    0.00000000
                                                     2        0.1800000       -0.30615861    0.00000000
                                                     2        0.2600000        0.41506950    0.00000000
                                                     2        0.5000000       -0.36252345    0.00000000
                                                     2        0.9000000        0.15124193    0.00000000
                                                     2        3.0000000       -0.80425677    0.00000000
                                      D - G
                                                     0        0.0000010        0.01149631    0.00000000
                                                     2        0.1200000       -0.04713561    0.00000000
                                                     2        0.1600000        0.10865096    0.00000000
                                                     2        0.2800000       -0.15816701    0.00000000
                                                     2        0.7000000        0.65478804    0.00000000
                                                     2        1.3000000       -1.73816624    0.00000000
                                      F - G
                                                     0        0.0000010        0.00481868    0.00000000
                                                     2        0.1200000       -0.04746842    0.00000000
                                                     2        0.1600000        0.09327889    0.00000000
                                                     2        0.4000000       -0.19693326    0.00000000
                                                     2        0.9000000        0.34938253    0.00000000
    7          7            7
                                      G and up 
                                                     0        0.0000010       -0.00000022    0.00000000
                                                     2        0.1200000       -0.00992020    0.00000000
                                                     2        0.1400000        0.02578711    0.00000000
                                                     2        0.2200000       -0.10543517    0.00000000
                                                     2        0.3000000        0.23013665    0.00000000
                                                     2        0.5000000       -0.60834094    0.00000000
                                                     2        0.8000000        1.81436815    0.00000000
                                                     2        1.2000000       -3.87539738    0.00000000
                                                     2        2.0000000        2.94656640    0.00000000
                                      S - G
                                                     0        0.0000010       -0.00223566    0.00000000
                                                     2        0.1200000        0.45247937    0.00000000
                                                     2        0.1600000       -0.78978304    0.00000000
                                                     2        0.4000000        0.84956595    0.00000000
                                                     2        3.0000000       -0.75910174    0.00000000
                                      P - G
                                                     0        0.0000010       -0.25576737    0.00000000
                                                     2        0.1200000       -0.19992277    0.00000000
                                                     2        0.1600000        0.88518512    0.00000000
                                                     2        0.2400000       -1.33293917    0.00000000
                                                     2        0.4000000        1.33451776    0.00000000
                                                     2        0.9000000       -0.55709210    0.00000000
                                                     2        2.5000000        2.48506502    0.00000000
                                      D - G
                                                     0        0.0000010        0.26143746    0.00000000
                                                     2        0.1200000       -0.04492212    0.00000000
                                                     2        0.1400000       -0.18274021    0.00000000
                                                     2        0.2400000        0.53490004    0.00000000
                                                     2        0.4000000       -0.74136473    0.00000000
                                                     2        1.3000000        1.71401021    0.00000000
                                      F - G
                                                     0        0.0000010       -0.07169988    0.00000000
                                                     2        0.1200000        0.04480029    0.00000000
                                                     2        0.2600000       -0.08050831    0.00000000
                                                     2        0.5000000        0.31290809    0.00000000
                                                     2        1.0000000       -0.45253098    0.00000000
    8          1            1
                                      F and up 
                                                     0        0.0000010       -0.00000699    0.00000000
                                                     2        0.1200000        0.00123686    0.00000000
                                                     2        0.1800000       -0.00752022    0.00000000
                                                     2        0.2600000        0.02503380    0.00000000
                                                     2        0.4000000       -0.08702670    0.00000000
                                                     2        0.6000000        0.30134159    0.00000000
                                                     2        0.8000000       -0.50204959    0.00000000
                                                     2        1.2000000        0.52208372    0.00000000
                                      S - F
                                                     0        0.0000010       -0.01618346    0.00000000
                                                     2        0.1200000       -0.07880581    0.00000000
                                                     2        0.1600000        0.32040539    0.00000000
                                                     2        0.2400000       -0.47500956    0.00000000
                                                     2        0.5000000        0.54013668    0.00000000
                                                     2        1.5000000       -1.40434292    0.00000000
                                                     2        3.0000000        1.46283806    0.00000000
                                      P - F
                                                     0        0.0000010        0.00612970    0.00000000
                                                     2        0.1200000        0.02254406    0.00000000
                                                     2        0.1800000       -0.13874529    0.00000000
                                                     2        0.3000000        0.38299049    0.00000000
                                                     2        0.5000000       -0.57923512    0.00000000
                                                     2        1.0000000        0.63021625    0.00000000
                                                     2        2.0000000       -0.79201034    0.00000000
                                      D - F
                                                     0        0.0000010       -0.00296226    0.00000000
                                                     2        0.1200000       -0.00547344    0.00000000
                                                     2        0.1400000        0.01837884    0.00000000
                                                     2        0.2400000       -0.05565704    0.00000000
                                                     2        0.4000000        0.15376597    0.00000000
                                                     2        0.8000000       -0.32464795    0.00000000
    9          1            1
                                      F and up 
                                                     0        0.0000010       -0.00000699    0.00000000
                                                     2        0.1200000        0.00123686    0.00000000
                                                     2        0.1800000       -0.00752022    0.00000000
                                                     2        0.2600000        0.02503380    0.00000000
                                                     2        0.4000000       -0.08702670    0.00000000
                                                     2        0.6000000        0.30134159    0.00000000
                                                     2        0.8000000       -0.50204959    0.00000000
                                                     2        1.2000000        0.52208372    0.00000000
                                      S - F
                                                     0        0.0000010       -0.01618346    0.00000000
                                                     2        0.1200000       -0.07880581    0.00000000
                                                     2        0.1600000        0.32040539    0.00000000
                                                     2        0.2400000       -0.47500956    0.00000000
                                                     2        0.5000000        0.54013668    0.00000000
                                                     2        1.5000000       -1.40434292    0.00000000
                                                     2        3.0000000        1.46283806    0.00000000
                                      P - F
                                                     0        0.0000010        0.00612970    0.00000000
                                                     2        0.1200000        0.02254406    0.00000000
                                                     2        0.1800000       -0.13874529    0.00000000
                                                     2        0.3000000        0.38299049    0.00000000
                                                     2        0.5000000       -0.57923512    0.00000000
                                                     2        1.0000000        0.63021625    0.00000000
                                                     2        2.0000000       -0.79201034    0.00000000
                                      D - F
                                                     0        0.0000010       -0.00296226    0.00000000
                                                     2        0.1200000       -0.00547344    0.00000000
                                                     2        0.1400000        0.01837884    0.00000000
                                                     2        0.2400000       -0.05565704    0.00000000
                                                     2        0.4000000        0.15376597    0.00000000
                                                     2        0.8000000       -0.32464795    0.00000000
   10          1            1
                                      F and up 
                                                     0        0.0000010       -0.00000699    0.00000000
                                                     2        0.1200000        0.00123686    0.00000000
                                                     2        0.1800000       -0.00752022    0.00000000
                                                     2        0.2600000        0.02503380    0.00000000
                                                     2        0.4000000       -0.08702670    0.00000000
                                                     2        0.6000000        0.30134159    0.00000000
                                                     2        0.8000000       -0.50204959    0.00000000
                                                     2        1.2000000        0.52208372    0.00000000
                                      S - F
                                                     0        0.0000010       -0.01618346    0.00000000
                                                     2        0.1200000       -0.07880581    0.00000000
                                                     2        0.1600000        0.32040539    0.00000000
                                                     2        0.2400000       -0.47500956    0.00000000
                                                     2        0.5000000        0.54013668    0.00000000
                                                     2        1.5000000       -1.40434292    0.00000000
                                                     2        3.0000000        1.46283806    0.00000000
                                      P - F
                                                     0        0.0000010        0.00612970    0.00000000
                                                     2        0.1200000        0.02254406    0.00000000
                                                     2        0.1800000       -0.13874529    0.00000000
                                                     2        0.3000000        0.38299049    0.00000000
                                                     2        0.5000000       -0.57923512    0.00000000
                                                     2        1.0000000        0.63021625    0.00000000
                                                     2        2.0000000       -0.79201034    0.00000000
                                      D - F
                                                     0        0.0000010       -0.00296226    0.00000000
                                                     2        0.1200000       -0.00547344    0.00000000
                                                     2        0.1400000        0.01837884    0.00000000
                                                     2        0.2400000       -0.05565704    0.00000000
                                                     2        0.4000000        0.15376597    0.00000000
                                                     2        0.8000000       -0.32464795    0.00000000
 ======================================================================================================
   188 basis functions,   334 primitive gaussians,   202 cartesian basis functions
    25 alpha electrons       25 beta electrons
       nuclear repulsion energy       268.8929040850 Hartrees.
 NAtoms=   10 NActive=   10 NUniq=   10 SFac= 1.00D+00 NAtFMM=   60 NAOKFM=F Big=F
   1 Symmetry operations used in ECPInt.
 ECPInt:  NShTT=    3081 NPrTT=   16977 LenC2=    3069 LenP2D=   12652.
 LDataN:  DoStor=T MaxTD1= 6 Len=  172
 Initial guess from the checkpoint file:  "Grambow2020_wb97xd3_007761_forward_mol1.chk"
 B after Tr=     0.271392   -0.057976    0.184036
         Rot=    0.378125   -0.091881    0.014660    0.921067 Ang=-135.56 deg.
 >>>>>>>>>> Convergence criterion not met.
 SCF Done:  E(RHF) =  -353.364919227     A.U. after    2 cycles
            NFock=  1  Conv=0.30D-02     -V/T= 1.9999

 **********************************************************************

            Population analysis using the SCF Density.

 **********************************************************************

 Orbital symmetries:
       Occupied  (A) (A) (A) (A) (A) (A) (A) (A) (A) (A) (A) (A)
                 (A) (A) (A) (A) (A) (A) (A) (A) (A) (A) (A) (A)
                 (A)
       Virtual   (A) (A) (A) (A) (A) (A) (A) (A) (A) (A) (A) (A)
                 (A) (A) (A) (A) (A) (A) (A) (A) (A) (A) (A) (A)
                 (A) (A) (A) (A) (A) (A) (A) (A) (A) (A) (A) (A)
                 (A) (A) (A) (A) (A) (A) (A) (A) (A) (A) (A) (A)
                 (A) (A) (A) (A) (A) (A) (A) (A) (A) (A) (A) (A)
                 (A) (A) (A) (A) (A) (A) (A) (A) (A) (A) (A) (A)
                 (A) (A) (A) (A) (A) (A) (A) (A) (A) (A) (A) (A)
                 (A) (A) (A) (A) (A) (A) (A) (A) (A) (A) (A) (A)
                 (A) (A) (A) (A) (A) (A) (A) (A) (A) (A) (A) (A)
                 (A) (A) (A) (A) (A) (A) (A) (A) (A) (A) (A) (A)
                 (A) (A) (A) (A) (A) (A) (A) (A) (A) (A) (A) (A)
                 (A) (A) (A) (A) (A) (A) (A) (A) (A) (A) (A) (A)
                 (A) (A) (A) (A) (A) (A) (A) (A) (A) (A) (A) (A)
                 (A) (A) (A) (A) (A) (A) (A)
 The electronic state is 1-A.
 Alpha  occ. eigenvalues --  -20.57726 -15.84212 -15.74952 -15.73264 -11.36744
 Alpha  occ. eigenvalues --  -11.34892 -11.32283  -1.49223  -1.31125  -1.26189
 Alpha  occ. eigenvalues --   -1.13203  -1.01294  -0.89172  -0.75568  -0.74010
 Alpha  occ. eigenvalues --   -0.73659  -0.71429  -0.68041  -0.59257  -0.57498
 Alpha  occ. eigenvalues --   -0.53210  -0.48469  -0.46795  -0.39389  -0.31775
 Alpha virt. eigenvalues --    0.02748   0.02939   0.03940   0.04246   0.05765
 Alpha virt. eigenvalues --    0.07309   0.08019   0.10216   0.10739   0.11247
 Alpha virt. eigenvalues --    0.12547   0.12810   0.15287   0.15374   0.15762
 Alpha virt. eigenvalues --    0.16261   0.16903   0.17371   0.18682   0.19858
 Alpha virt. eigenvalues --    0.21340   0.22957   0.23312   0.26066   0.26958
 Alpha virt. eigenvalues --    0.28255   0.28928   0.29943   0.30967   0.31364
 Alpha virt. eigenvalues --    0.33347   0.33677   0.34667   0.36461   0.36943
 Alpha virt. eigenvalues --    0.37573   0.39112   0.40196   0.41962   0.42196
 Alpha virt. eigenvalues --    0.44074   0.44925   0.47582   0.49904   0.50633
 Alpha virt. eigenvalues --    0.52233   0.53636   0.54081   0.56396   0.56638
 Alpha virt. eigenvalues --    0.57379   0.58847   0.59563   0.61287   0.62057
 Alpha virt. eigenvalues --    0.63258   0.63789   0.65346   0.66794   0.67613
 Alpha virt. eigenvalues --    0.68522   0.69747   0.70861   0.72802   0.74138
 Alpha virt. eigenvalues --    0.74676   0.75400   0.78939   0.80709   0.82389
 Alpha virt. eigenvalues --    0.83974   0.85611   0.88292   0.89479   0.92231
 Alpha virt. eigenvalues --    0.92865   0.93958   0.96389   0.98215   1.02072
 Alpha virt. eigenvalues --    1.03800   1.07178   1.08870   1.11059   1.11835
 Alpha virt. eigenvalues --    1.12616   1.17235   1.18394   1.22774   1.26546
 Alpha virt. eigenvalues --    1.29071   1.31611   1.32097   1.33917   1.39129
 Alpha virt. eigenvalues --    1.41024   1.41388   1.44661   1.49881   1.53537
 Alpha virt. eigenvalues --    1.54399   1.56470   1.58979   1.60251   1.61861
 Alpha virt. eigenvalues --    1.63952   1.65929   1.67699   1.70161   1.72517
 Alpha virt. eigenvalues --    1.77727   1.81136   1.83541   1.85317   1.87808
 Alpha virt. eigenvalues --    1.94503   1.95246   1.97789   2.02783   2.04078
 Alpha virt. eigenvalues --    2.05262   2.06299   2.13425   2.16035   2.17388
 Alpha virt. eigenvalues --    2.19039   2.20110   2.22205   2.28678   2.30533
 Alpha virt. eigenvalues --    2.31892   2.37595   2.41707   2.45364   2.48745
 Alpha virt. eigenvalues --    2.52770   2.57950   2.65617   2.67902   2.73980
 Alpha virt. eigenvalues --    2.78129   2.81582   2.90734   2.91529   2.97155
 Alpha virt. eigenvalues --    2.98657   3.04944   3.07347   3.10830   3.19972
 Alpha virt. eigenvalues --    3.26399   3.29745   3.32935   3.36864   3.56924
 Alpha virt. eigenvalues --    3.59225   3.65806   3.75747   3.79853   3.94101
 Alpha virt. eigenvalues --    4.02188   4.11572   4.32997
          Condensed to atoms (all electrons):
 Mulliken charges:
               1
     1  O   -0.837287
     2  C    0.442110
     3  N   -0.037687
     4  C    0.088466
     5  N    0.137500
     6  C    0.703634
     7  N    0.162436
     8  H   -0.140333
     9  H   -0.196951
    10  H   -0.321888
 Sum of Mulliken charges =  -0.00000
 Mulliken charges with hydrogens summed into heavy atoms:
               1
     1  O   -0.837287
     2  C    0.301777
     3  N   -0.037687
     4  C   -0.108485
     5  N    0.137500
     6  C    0.381746
     7  N    0.162436
 Electronic spatial extent (au):  <R**2>=            723.2377
 Charge=              0.0000 electrons
 Dipole moment (field-independent basis, Debye):
    X=              2.4923    Y=             -1.0714    Z=              2.9034  Tot=              3.9736

 Test job not archived.
 1\1\GINC-SE219\SP\RHF\Aug-CC-pVDZ\C3H3N3O1\OHZDE\09-Apr-2025\0\\#t hf 
 aug-cc-pvdz iop(5/13=1,5/36=2,99/5=2) pseudo=read geom=check guess=(re
 ad,tcheck) scf=(maxcycle=1)\\title\\0,1\O,0,0.43548389,-2.00446177,0.1
 2492008\C,0,2.30193126,-0.82271582,0.11400479\N,0,1.25740106,-0.030894
 33,0.24605341\C,0,-1.29099288,2.17721596,-0.72146916\N,0,-1.21935238,1
 .01119755,-0.39771858\C,0,-1.05109582,-0.22791783,-0.20477379\N,0,0.23
 234923,-0.7351404,0.07857995\H,0,2.90017093,-0.9565394,1.02852975\H,0,
 -1.4908435,2.9292204,0.04390015\H,0,-1.84136679,-0.95957537,-0.2420166
 1\\Version=ES64L-G16RevC.01\State=1-A\HF=-353.3649192\RMSD=2.984e-03\D
 ipole=-0.5695264,1.0913796,0.9635793\Quadrupole=5.2368313,-3.8405393,-
 1.3962919,0.3962947,2.114097,2.320039\PG=C01 [X(C3H3N3O1)]\\@


 MORNING PEOPLE ARE USUALLY ADMIRED AS EARLY BIRDS.
 RECALL BEN FRANKLIN'S APHORISM THAT THE EARLY BIRD GETS THE WORM.
 I IDENTIFY WITH THE WORM. --  CRAIG JAGGER, MINNEAPOLIS, KS.
 Job cpu time:       0 days  0 hours  0 minutes 36.5 seconds.
 Elapsed time:       0 days  0 hours  0 minutes  3.3 seconds.
 File lengths (MBytes):  RWF=     10 Int=      0 D2E=      0 Chk=      6 Scr=      1
 Normal termination of Gaussian 16 at Wed Apr  9 16:05:51 2025.
