 Entering Gaussian System, Link 0=g16
 Input=Grambow2020_wb97xd3_006672_reverse_mol2.gjf
 Output=Grambow2020_wb97xd3_006672_reverse_mol2.log
 Initial command:
 /arc/software/Gaussian/g16.c01/l1.exe "/tmp/slurm/4875306/Gau-1022149.inp" -scrdir="/tmp/slurm/4875306/"
 Entering Link 1 = /arc/software/Gaussian/g16.c01/l1.exe PID=   1022150.
  
 Copyright (c) 1988-2019, Gaussian, Inc.  All Rights Reserved.
  
 This is part of the Gaussian(R) 16 program.  It is based on
 the Gaussian(R) 09 system (copyright 2009, Gaussian, Inc.),
 the Gaussian(R) 03 system (copyright 2003, Gaussian, Inc.),
 the Gaussian(R) 98 system (copyright 1998, Gaussian, Inc.),
 the Gaussian(R) 94 system (copyright 1995, Gaussian, Inc.),
 the Gaussian 92(TM) system (copyright 1992, Gaussian, Inc.),
 the Gaussian 90(TM) system (copyright 1990, Gaussian, Inc.),
 the Gaussian 88(TM) system (copyright 1988, Gaussian, Inc.),
 the Gaussian 86(TM) system (copyright 1986, Carnegie Mellon
 University), and the Gaussian 82(TM) system (copyright 1983,
 Carnegie Mellon University). Gaussian is a federally registered
 trademark of Gaussian, Inc.
  
 This software contains proprietary and confidential information,
 including trade secrets, belonging to Gaussian, Inc.
  
 This software is provided under written license and may be
 used, copied, transmitted, or stored only in accord with that
 written license.
  
 The following legend is applicable only to US Government
 contracts under FAR:
  
                    RESTRICTED RIGHTS LEGEND
  
 Use, reproduction and disclosure by the US Government is
 subject to restrictions as set forth in subparagraphs (a)
 and (c) of the Commercial Computer Software - Restricted
 Rights clause in FAR 52.227-19.
  
 Gaussian, Inc.
 340 Quinnipiac St., Bldg. 40, Wallingford CT 06492
  
  
 ---------------------------------------------------------------
 Warning -- This program may not be used in any manner that
 competes with the business of Gaussian, Inc. or will provide
 assistance to any competitor of Gaussian, Inc.  The licensee
 of this program is prohibited from giving any competitor of
 Gaussian, Inc. access to this program.  By using this program,
 the user acknowledges that Gaussian, Inc. is engaged in the
 business of creating and licensing software in the field of
 computational chemistry and represents and warrants to the
 licensee that it is not a competitor of Gaussian, Inc. and that
 it will not use this program in any manner prohibited above.
 ---------------------------------------------------------------
  

 Cite this work as:
 Gaussian 16, Revision C.01,
 M. J. Frisch, G. W. Trucks, H. B. Schlegel, G. E. Scuseria, 
 M. A. Robb, J. R. Cheeseman, G. Scalmani, V. Barone, 
 G. A. Petersson, H. Nakatsuji, X. Li, M. Caricato, A. V. Marenich, 
 J. Bloino, B. G. Janesko, R. Gomperts, B. Mennucci, H. P. Hratchian, 
 J. V. Ortiz, A. F. Izmaylov, J. L. Sonnenberg, D. Williams-Young, 
 F. Ding, F. Lipparini, F. Egidi, J. Goings, B. Peng, A. Petrone, 
 T. Henderson, D. Ranasinghe, V. G. Zakrzewski, J. Gao, N. Rega, 
 G. Zheng, W. Liang, M. Hada, M. Ehara, K. Toyota, R. Fukuda, 
 J. Hasegawa, M. Ishida, T. Nakajima, Y. Honda, O. Kitao, H. Nakai, 
 T. Vreven, K. Throssell, J. A. Montgomery, Jr., J. E. Peralta, 
 F. Ogliaro, M. J. Bearpark, J. J. Heyd, E. N. Brothers, K. N. Kudin, 
 V. N. Staroverov, T. A. Keith, R. Kobayashi, J. Normand, 
 K. Raghavachari, A. P. Rendell, J. C. Burant, S. S. Iyengar, 
 J. Tomasi, M. Cossi, J. M. Millam, M. Klene, C. Adamo, R. Cammi, 
 J. W. Ochterski, R. L. Martin, K. Morokuma, O. Farkas, 
 J. B. Foresman, and D. J. Fox, Gaussian, Inc., Wallingford CT, 2019.
 
 ******************************************
 Gaussian 16:  ES64L-G16RevC.01  3-Jul-2019
                 9-Apr-2025 
 ******************************************
 %nprocs=16
 Will use up to   16 processors via shared memory.
 %mem=30GB
 %chk=Grambow2020_wb97xd3_006672_reverse_mol2.chk
 ----------------------------------------------------------------------
 #t hf aug-cc-pvdz symm=none int=(grid=ultrafine) guess=(read,tcheck) s
 table=(opt,rrhf)
 ----------------------------------------------------------------------
 -----
 title
 -----
 Symbolic Z-matrix:
 Charge =  0 Multiplicity = 1
 C                    -1.581    -1.34225  -0.02925 
 C                    -0.38485  -0.79176   0.09126 
 O                    -0.77766   2.4308   -0.44449 
 C                     0.59667  -0.47791   1.20896 
 C                     1.60991   0.05415   0.15583 
 C                     0.56704  -0.2279   -0.92546 
 O                     0.51021  -0.04356  -2.10702 
 H                    -1.49189   1.79121  -0.40378 
 H                    -2.03289  -1.44426  -1.00985 
 H                    -2.13703  -1.71165   0.8247 
 H                    -0.42386   2.33902  -1.33254 
 H                     0.24244   0.28529   1.90118 
 H                     0.93196  -1.34695   1.7745 
 H                     1.86901   1.10896   0.23944 
 H                     2.5191   -0.53706   0.04092 
 
                    Distance matrix (angstroms):
                    1          2          3          4          5
     1  C    0.000000
     2  C    1.322250   0.000000
     3  O    3.879912   3.290328   0.000000
     4  C    2.649999   1.520243   3.617086   0.000000
     5  C    3.487998   2.167673   3.421900   1.555261   0.000000
     6  C    2.580520   1.502580   3.017985   2.149213   1.528496
     7  O    3.221317   2.488639   3.247319   3.345416   2.517805
     8  H    3.157028   2.853484   0.959606   3.480218   3.598851
     9  H    1.084521   2.086676   4.112335   3.573724   4.107799
    10  H    1.083905   2.110515   4.540773   3.023717   4.195832
    11  H    4.072998   3.439553   0.960324   3.928842   3.401783
    12  H    3.114545   2.197581   3.338565   1.089552   2.229273
    13  H    3.093295   2.208055   4.702993   1.089716   2.245618
    14  H    4.240662   2.952047   3.036427   2.253216   1.089384
    15  H    4.179005   2.915528   4.462339   2.250234   1.090571
                    6          7          8          9         10
     6  C    0.000000
     7  O    1.197199   0.000000
     8  H    2.930553   3.205591   0.000000
     9  H    2.871636   3.103718   3.335909   0.000000
    10  H    3.546348   4.287814   3.767680   1.856859   0.000000
    11  H    2.781487   2.673764   1.517683   4.123868   4.898626
    12  H    2.891123   4.030565   3.254003   4.079528   3.287620
    13  H    2.945370   4.116167   4.524156   4.068458   3.233231
    14  H    2.199838   2.946267   3.489241   4.827467   4.934238
    15  H    2.199995   2.982076   4.659036   4.758958   4.865542
                   11         12         13         14         15
    11  H    0.000000
    12  H    3.888277   0.000000
    13  H    5.007825   1.776426   0.000000
    14  H    3.039968   2.466886   3.044009   0.000000
    15  H    4.338114   3.052867   2.486011   1.780848   0.000000
 Symmetry turned off by external request.
 Rotational constants (GHZ):           2.5574254           2.0524424           1.9291148
   233 basis functions,   389 primitive gaussians,   247 cartesian basis functions
    27 alpha electrons       27 beta electrons
       nuclear repulsion energy       291.5978323896 Hartrees.
 NAtoms=   15 NActive=   15 NUniq=   15 SFac= 1.00D+00 NAtFMM=   60 NAOKFM=F Big=F
 ExpMin= 2.97D-02 ExpMax= 1.17D+04 ExpMxC= 4.01D+02 IAcc=3 IRadAn=         5 AccDes= 0.00D+00
 Harris functional with IExCor=  205 and IRadAn=       5 diagonalized for initial guess.
 HarFok:  IExCor=  205 AccDes= 0.00D+00 IRadAn=         5 IDoV= 1 UseB2=F ITyADJ=14
 ICtDFT=  3500011 ScaDFX=  1.000000  1.000000  1.000000  1.000000
 FoFCou: FMM=F IPFlag=           0 FMFlag=      100000 FMFlg1=           0
         NFxFlg=           0 DoJE=T BraDBF=F KetDBF=T FulRan=T
         wScrn=  0.000000 ICntrl=       500 IOpCl=  0 I1Cent=   200000004 NGrid=           0
         NMat0=    1 NMatS0=      1 NMatT0=    0 NMatD0=    1 NMtDS0=    0 NMtDT0=    0
 Symmetry not used in FoFCou.
 SCF Done:  E(RHF) =  -343.721979957     A.U. after   14 cycles
            NFock= 14  Conv=0.64D-08     -V/T= 2.0009

 **********************************************************************

            Population analysis using the SCF Density.

 **********************************************************************

 Alpha  occ. eigenvalues --  -20.57155 -20.56852 -11.34437 -11.26407 -11.25950
 Alpha  occ. eigenvalues --  -11.25097 -11.24689  -1.40651  -1.35118  -1.15673
 Alpha  occ. eigenvalues --   -1.02661  -0.88450  -0.84981  -0.71361  -0.69869
 Alpha  occ. eigenvalues --   -0.67443  -0.65582  -0.65329  -0.59446  -0.58447
 Alpha  occ. eigenvalues --   -0.54818  -0.51864  -0.51185  -0.50178  -0.49990
 Alpha  occ. eigenvalues --   -0.40851  -0.38889
 Alpha virt. eigenvalues --    0.03181   0.03921   0.04472   0.04906   0.06244
 Alpha virt. eigenvalues --    0.06753   0.06896   0.07458   0.08311   0.09842
 Alpha virt. eigenvalues --    0.11261   0.12328   0.13088   0.13798   0.14621
 Alpha virt. eigenvalues --    0.14898   0.15792   0.16871   0.17291   0.17806
 Alpha virt. eigenvalues --    0.18366   0.18790   0.19505   0.20043   0.20593
 Alpha virt. eigenvalues --    0.21947   0.23372   0.23933   0.24966   0.25689
 Alpha virt. eigenvalues --    0.27127   0.28255   0.28842   0.29722   0.29899
 Alpha virt. eigenvalues --    0.30762   0.31611   0.33267   0.34212   0.35561
 Alpha virt. eigenvalues --    0.36696   0.37017   0.37541   0.39432   0.39907
 Alpha virt. eigenvalues --    0.40772   0.41223   0.42662   0.43001   0.44893
 Alpha virt. eigenvalues --    0.45776   0.46343   0.46762   0.48019   0.48527
 Alpha virt. eigenvalues --    0.49533   0.50460   0.51497   0.52065   0.53614
 Alpha virt. eigenvalues --    0.54817   0.55386   0.56496   0.57551   0.58566
 Alpha virt. eigenvalues --    0.59347   0.59790   0.60459   0.60987   0.62839
 Alpha virt. eigenvalues --    0.63782   0.65140   0.66179   0.66762   0.67396
 Alpha virt. eigenvalues --    0.67876   0.69025   0.69240   0.70465   0.72426
 Alpha virt. eigenvalues --    0.72774   0.75154   0.76652   0.77811   0.79365
 Alpha virt. eigenvalues --    0.79864   0.80610   0.81937   0.82442   0.83413
 Alpha virt. eigenvalues --    0.85959   0.87038   0.87749   0.88451   0.91418
 Alpha virt. eigenvalues --    0.91720   0.93426   0.94444   0.98217   1.01127
 Alpha virt. eigenvalues --    1.03828   1.03974   1.05525   1.07886   1.09877
 Alpha virt. eigenvalues --    1.12073   1.14032   1.16784   1.20437   1.20629
 Alpha virt. eigenvalues --    1.21585   1.23116   1.25067   1.26654   1.27434
 Alpha virt. eigenvalues --    1.32365   1.34029   1.35725   1.37309   1.39950
 Alpha virt. eigenvalues --    1.41585   1.42374   1.43164   1.45133   1.47800
 Alpha virt. eigenvalues --    1.49390   1.50793   1.55432   1.58614   1.60423
 Alpha virt. eigenvalues --    1.62706   1.64230   1.65219   1.68110   1.70761
 Alpha virt. eigenvalues --    1.71830   1.72588   1.75433   1.77351   1.79846
 Alpha virt. eigenvalues --    1.85015   1.87160   1.89630   1.90282   1.93649
 Alpha virt. eigenvalues --    1.95059   2.00501   2.02176   2.03706   2.04490
 Alpha virt. eigenvalues --    2.06353   2.06437   2.09423   2.10340   2.11149
 Alpha virt. eigenvalues --    2.14883   2.16892   2.19371   2.23327   2.25244
 Alpha virt. eigenvalues --    2.26741   2.28535   2.30897   2.34301   2.34984
 Alpha virt. eigenvalues --    2.37566   2.38338   2.40941   2.42017   2.45471
 Alpha virt. eigenvalues --    2.49129   2.51445   2.53135   2.58195   2.59624
 Alpha virt. eigenvalues --    2.61817   2.64870   2.67560   2.70493   2.74424
 Alpha virt. eigenvalues --    2.78861   2.80207   2.81152   2.84914   2.87466
 Alpha virt. eigenvalues --    2.93523   2.95593   2.99455   3.11503   3.13654
 Alpha virt. eigenvalues --    3.24813   3.27375   3.32566   3.47162   3.53208
 Alpha virt. eigenvalues --    3.73319   3.75595   3.78419   3.81948   3.83837
 Alpha virt. eigenvalues --    3.86652   4.03754   4.12320   4.18316   4.24307
 Alpha virt. eigenvalues --    4.37614
          Condensed to atoms (all electrons):
 Mulliken charges:
               1
     1  C    1.028044
     2  C    0.027665
     3  O   -0.369774
     4  C    0.171071
     5  C    0.555016
     6  C    0.035386
     7  O   -0.805511
     8  H    0.203736
     9  H   -0.337650
    10  H   -0.299441
    11  H    0.192933
    12  H   -0.094252
    13  H   -0.110723
    14  H   -0.103850
    15  H   -0.092649
 Sum of Mulliken charges =  -0.00000
 Mulliken charges with hydrogens summed into heavy atoms:
               1
     1  C    0.390953
     2  C    0.027665
     3  O    0.026894
     4  C   -0.033904
     5  C    0.358516
     6  C    0.035386
     7  O   -0.805511
 Electronic spatial extent (au):  <R**2>=            836.1896
 Charge=             -0.0000 electrons
 Dipole moment (field-independent basis, Debye):
    X=             -0.5818    Y=             -1.8702    Z=              2.2505  Tot=              2.9835
 NROrb=    233 NOA=    27 NOB=    27 NVA=   206 NVB=   206

 **** Warning!!: The largest alpha MO coefficient is  0.75203738D+02

    12 initial guesses have been made.
 Iteration     1 Dimension    12 NMult     0 NNew     12
 New state      1 was old state      2
 Iteration     2 Dimension    24 NMult    12 NNew     12
 Iteration     3 Dimension    27 NMult    24 NNew      3
 Iteration     4 Dimension    30 NMult    27 NNew      3
 Iteration     5 Dimension    33 NMult    30 NNew      3
 Iteration     6 Dimension    36 NMult    33 NNew      3
 Iteration     7 Dimension    39 NMult    36 NNew      3
 ***********************************************************************
 Stability analysis using <AA,BB:AA,BB> singles matrix:
 ***********************************************************************
 Ground to excited state transition densities written to RWF  633

 Eigenvectors of the stability matrix:
 
 Excited state symmetry could not be determined.
 Eigenvector   1:      Singlet-?Sym  Eigenvalue= 0.1681482  <S**2>=0.000
      26 -> 29        -0.19316
      26 -> 30         0.28811
      26 -> 33         0.27568
      26 -> 35         0.34995
      26 -> 36         0.18943
      26 -> 42         0.10531
      26 -> 43         0.11984
      26 -> 56         0.13320
 The wavefunction is stable under the perturbations considered.
 The wavefunction is already stable.

 **********************************************************************

            Population analysis using the SCF Density.

 **********************************************************************

 Alpha  occ. eigenvalues --  -20.57155 -20.56852 -11.34437 -11.26407 -11.25950
 Alpha  occ. eigenvalues --  -11.25097 -11.24689  -1.40651  -1.35118  -1.15673
 Alpha  occ. eigenvalues --   -1.02661  -0.88450  -0.84981  -0.71361  -0.69869
 Alpha  occ. eigenvalues --   -0.67443  -0.65582  -0.65329  -0.59446  -0.58447
 Alpha  occ. eigenvalues --   -0.54818  -0.51864  -0.51185  -0.50178  -0.49990
 Alpha  occ. eigenvalues --   -0.40851  -0.38889
 Alpha virt. eigenvalues --    0.03181   0.03921   0.04472   0.04906   0.06244
 Alpha virt. eigenvalues --    0.06753   0.06896   0.07458   0.08311   0.09842
 Alpha virt. eigenvalues --    0.11261   0.12328   0.13088   0.13798   0.14621
 Alpha virt. eigenvalues --    0.14898   0.15792   0.16871   0.17291   0.17806
 Alpha virt. eigenvalues --    0.18366   0.18790   0.19505   0.20043   0.20593
 Alpha virt. eigenvalues --    0.21947   0.23372   0.23933   0.24966   0.25689
 Alpha virt. eigenvalues --    0.27127   0.28255   0.28842   0.29722   0.29899
 Alpha virt. eigenvalues --    0.30762   0.31611   0.33267   0.34212   0.35561
 Alpha virt. eigenvalues --    0.36696   0.37017   0.37541   0.39432   0.39907
 Alpha virt. eigenvalues --    0.40772   0.41223   0.42662   0.43001   0.44893
 Alpha virt. eigenvalues --    0.45776   0.46343   0.46762   0.48019   0.48527
 Alpha virt. eigenvalues --    0.49533   0.50460   0.51497   0.52065   0.53614
 Alpha virt. eigenvalues --    0.54817   0.55386   0.56496   0.57551   0.58566
 Alpha virt. eigenvalues --    0.59347   0.59790   0.60459   0.60987   0.62839
 Alpha virt. eigenvalues --    0.63782   0.65140   0.66179   0.66762   0.67396
 Alpha virt. eigenvalues --    0.67876   0.69025   0.69240   0.70465   0.72426
 Alpha virt. eigenvalues --    0.72774   0.75154   0.76652   0.77811   0.79365
 Alpha virt. eigenvalues --    0.79864   0.80610   0.81937   0.82442   0.83413
 Alpha virt. eigenvalues --    0.85959   0.87038   0.87749   0.88451   0.91418
 Alpha virt. eigenvalues --    0.91720   0.93426   0.94444   0.98217   1.01127
 Alpha virt. eigenvalues --    1.03828   1.03974   1.05525   1.07886   1.09877
 Alpha virt. eigenvalues --    1.12073   1.14032   1.16784   1.20437   1.20629
 Alpha virt. eigenvalues --    1.21585   1.23116   1.25067   1.26654   1.27434
 Alpha virt. eigenvalues --    1.32365   1.34029   1.35725   1.37309   1.39950
 Alpha virt. eigenvalues --    1.41585   1.42374   1.43164   1.45133   1.47800
 Alpha virt. eigenvalues --    1.49390   1.50793   1.55432   1.58614   1.60423
 Alpha virt. eigenvalues --    1.62706   1.64230   1.65219   1.68110   1.70761
 Alpha virt. eigenvalues --    1.71830   1.72588   1.75433   1.77351   1.79846
 Alpha virt. eigenvalues --    1.85015   1.87160   1.89630   1.90282   1.93649
 Alpha virt. eigenvalues --    1.95059   2.00501   2.02176   2.03706   2.04490
 Alpha virt. eigenvalues --    2.06353   2.06437   2.09423   2.10340   2.11149
 Alpha virt. eigenvalues --    2.14883   2.16892   2.19371   2.23327   2.25244
 Alpha virt. eigenvalues --    2.26741   2.28535   2.30897   2.34301   2.34984
 Alpha virt. eigenvalues --    2.37566   2.38338   2.40941   2.42017   2.45471
 Alpha virt. eigenvalues --    2.49129   2.51445   2.53135   2.58195   2.59624
 Alpha virt. eigenvalues --    2.61817   2.64870   2.67560   2.70493   2.74424
 Alpha virt. eigenvalues --    2.78861   2.80207   2.81152   2.84914   2.87466
 Alpha virt. eigenvalues --    2.93523   2.95593   2.99455   3.11503   3.13654
 Alpha virt. eigenvalues --    3.24813   3.27375   3.32566   3.47162   3.53208
 Alpha virt. eigenvalues --    3.73319   3.75595   3.78419   3.81948   3.83837
 Alpha virt. eigenvalues --    3.86652   4.03754   4.12320   4.18316   4.24307
 Alpha virt. eigenvalues --    4.37614
          Condensed to atoms (all electrons):
 Mulliken charges:
               1
     1  C    1.028044
     2  C    0.027665
     3  O   -0.369774
     4  C    0.171071
     5  C    0.555016
     6  C    0.035386
     7  O   -0.805511
     8  H    0.203736
     9  H   -0.337650
    10  H   -0.299441
    11  H    0.192933
    12  H   -0.094252
    13  H   -0.110723
    14  H   -0.103850
    15  H   -0.092649
 Sum of Mulliken charges =  -0.00000
 Mulliken charges with hydrogens summed into heavy atoms:
               1
     1  C    0.390953
     2  C    0.027665
     3  O    0.026894
     4  C   -0.033904
     5  C    0.358516
     6  C    0.035386
     7  O   -0.805511
 Electronic spatial extent (au):  <R**2>=            836.1896
 Charge=             -0.0000 electrons
 Dipole moment (field-independent basis, Debye):
    X=             -0.5818    Y=             -1.8702    Z=              2.2505  Tot=              2.9835
 Unable to Open any file for archive entry.
 1\1\GINC-SE113\Stability\RHF\Aug-CC-pVDZ\C5H8O2\OHZDE\09-Apr-2025\0\\#
 t hf aug-cc-pvdz symm=none int=(grid=ultrafine) guess=(read,tcheck) st
 able=(opt,rrhf)\\title\\0,1\C,0,-1.58100195,-1.34225245,-0.02924644\C,
 0,-0.38484662,-0.79176425,0.09125522\O,0,-0.77766307,2.43080112,-0.444
 49494\C,0,0.59667047,-0.47791173,1.20895799\C,0,1.60991468,0.05414605,
 0.15582519\C,0,0.56704326,-0.22789667,-0.92545763\O,0,0.51021071,-0.04
 35648,-2.10701509\H,0,-1.49188565,1.79121386,-0.40377975\H,0,-2.032886
 75,-1.44425904,-1.00984875\H,0,-2.1370286,-1.71164698,0.8247038\H,0,-0
 .42386197,2.33902002,-1.33253935\H,0,0.24244407,0.28529082,1.90117798\
 H,0,0.93195657,-1.34695133,1.77449775\H,0,1.86900825,1.10896232,0.2394
 3738\H,0,2.51909858,-0.53706094,0.04091564\\Version=ES64L-G16RevC.01\H
 F=-343.72198\RMSD=6.437e-09\Dipole=-0.2289107,-0.7357922,0.8854224\Qua
 drupole=5.0859207,-2.380933,-2.7049877,1.6640957,1.7960239,-2.1534546\
 PG=Unknown\\@
 The archive entry for this job was punched.


 FESTINA LENTE!
     - IMPERATOR AUGUSTUS 
 Job cpu time:       0 days  0 hours  7 minutes 40.0 seconds.
 Elapsed time:       0 days  0 hours  0 minutes 33.2 seconds.
 File lengths (MBytes):  RWF=    251 Int=      0 D2E=      0 Chk=      8 Scr=      1
 Normal termination of Gaussian 16 at Wed Apr  9 15:05:58 2025.
 Initial command:
 /arc/software/Gaussian/g16.c01/l1.exe "/tmp/slurm/4875306/Gau-1022149.inp" -scrdir="/tmp/slurm/4875306/"
 Entering Link 1 = /arc/software/Gaussian/g16.c01/l1.exe PID=   1022370.
  
 Copyright (c) 1988-2019, Gaussian, Inc.  All Rights Reserved.
  
 This is part of the Gaussian(R) 16 program.  It is based on
 the Gaussian(R) 09 system (copyright 2009, Gaussian, Inc.),
 the Gaussian(R) 03 system (copyright 2003, Gaussian, Inc.),
 the Gaussian(R) 98 system (copyright 1998, Gaussian, Inc.),
 the Gaussian(R) 94 system (copyright 1995, Gaussian, Inc.),
 the Gaussian 92(TM) system (copyright 1992, Gaussian, Inc.),
 the Gaussian 90(TM) system (copyright 1990, Gaussian, Inc.),
 the Gaussian 88(TM) system (copyright 1988, Gaussian, Inc.),
 the Gaussian 86(TM) system (copyright 1986, Carnegie Mellon
 University), and the Gaussian 82(TM) system (copyright 1983,
 Carnegie Mellon University). Gaussian is a federally registered
 trademark of Gaussian, Inc.
  
 This software contains proprietary and confidential information,
 including trade secrets, belonging to Gaussian, Inc.
  
 This software is provided under written license and may be
 used, copied, transmitted, or stored only in accord with that
 written license.
  
 The following legend is applicable only to US Government
 contracts under FAR:
  
                    RESTRICTED RIGHTS LEGEND
  
 Use, reproduction and disclosure by the US Government is
 subject to restrictions as set forth in subparagraphs (a)
 and (c) of the Commercial Computer Software - Restricted
 Rights clause in FAR 52.227-19.
  
 Gaussian, Inc.
 340 Quinnipiac St., Bldg. 40, Wallingford CT 06492
  
  
 ---------------------------------------------------------------
 Warning -- This program may not be used in any manner that
 competes with the business of Gaussian, Inc. or will provide
 assistance to any competitor of Gaussian, Inc.  The licensee
 of this program is prohibited from giving any competitor of
 Gaussian, Inc. access to this program.  By using this program,
 the user acknowledges that Gaussian, Inc. is engaged in the
 business of creating and licensing software in the field of
 computational chemistry and represents and warrants to the
 licensee that it is not a competitor of Gaussian, Inc. and that
 it will not use this program in any manner prohibited above.
 ---------------------------------------------------------------
  

 Cite this work as:
 Gaussian 16, Revision C.01,
 M. J. Frisch, G. W. Trucks, H. B. Schlegel, G. E. Scuseria, 
 M. A. Robb, J. R. Cheeseman, G. Scalmani, V. Barone, 
 G. A. Petersson, H. Nakatsuji, X. Li, M. Caricato, A. V. Marenich, 
 J. Bloino, B. G. Janesko, R. Gomperts, B. Mennucci, H. P. Hratchian, 
 J. V. Ortiz, A. F. Izmaylov, J. L. Sonnenberg, D. Williams-Young, 
 F. Ding, F. Lipparini, F. Egidi, J. Goings, B. Peng, A. Petrone, 
 T. Henderson, D. Ranasinghe, V. G. Zakrzewski, J. Gao, N. Rega, 
 G. Zheng, W. Liang, M. Hada, M. Ehara, K. Toyota, R. Fukuda, 
 J. Hasegawa, M. Ishida, T. Nakajima, Y. Honda, O. Kitao, H. Nakai, 
 T. Vreven, K. Throssell, J. A. Montgomery, Jr., J. E. Peralta, 
 F. Ogliaro, M. J. Bearpark, J. J. Heyd, E. N. Brothers, K. N. Kudin, 
 V. N. Staroverov, T. A. Keith, R. Kobayashi, J. Normand, 
 K. Raghavachari, A. P. Rendell, J. C. Burant, S. S. Iyengar, 
 J. Tomasi, M. Cossi, J. M. Millam, M. Klene, C. Adamo, R. Cammi, 
 J. W. Ochterski, R. L. Martin, K. Morokuma, O. Farkas, 
 J. B. Foresman, and D. J. Fox, Gaussian, Inc., Wallingford CT, 2019.
 
 ******************************************
 Gaussian 16:  ES64L-G16RevC.01  3-Jul-2019
                 9-Apr-2025 
 ******************************************
 %nprocs=16
 Will use up to   16 processors via shared memory.
 %mem=30GB
 %chk=Grambow2020_wb97xd3_006672_reverse_mol2.chk
 ----------------------------------------------------------------------
 #t hf aug-cc-pvdz iop(5/13=1,5/36=2,99/5=2) pseudo=read geom=check gue
 ss=(read,tcheck) scf=(maxcycle=1)
 ----------------------------------------------------------------------
 -----
 title
 -----
 Structure from the checkpoint file:  "Grambow2020_wb97xd3_006672_reverse_mol2.chk"
 Charge =  0 Multiplicity = 1
 Z-Matrix found in chk file.
 C,0,-1.58100195,-1.34225245,-0.02924644
 C,0,-0.38484662,-0.79176425,0.09125522
 O,0,-0.77766307,2.43080112,-0.44449494
 C,0,0.59667047,-0.47791173,1.20895799
 C,0,1.60991468,0.05414605,0.15582519
 C,0,0.56704326,-0.22789667,-0.92545763
 O,0,0.51021071,-0.0435648,-2.10701509
 H,0,-1.49188565,1.79121386,-0.40377975
 H,0,-2.03288675,-1.44425904,-1.00984875
 H,0,-2.1370286,-1.71164698,0.8247038
 H,0,-0.42386197,2.33902002,-1.33253935
 H,0,0.24244407,0.28529082,1.90117798
 H,0,0.93195657,-1.34695133,1.77449775
 H,0,1.86900825,1.10896232,0.23943738
 H,0,2.51909858,-0.53706094,0.04091564
 Recover connectivity data from disk.
                    Distance matrix (angstroms):
                    1          2          3          4          5
     1  C    0.000000
     2  C    1.322250   0.000000
     3  O    3.879912   3.290328   0.000000
     4  C    2.649999   1.520243   3.617086   0.000000
     5  C    3.487998   2.167673   3.421900   1.555261   0.000000
     6  C    2.580520   1.502580   3.017985   2.149213   1.528496
     7  O    3.221317   2.488639   3.247319   3.345416   2.517805
     8  H    3.157028   2.853484   0.959606   3.480218   3.598851
     9  H    1.084521   2.086676   4.112335   3.573724   4.107799
    10  H    1.083905   2.110515   4.540773   3.023717   4.195832
    11  H    4.072998   3.439553   0.960324   3.928842   3.401783
    12  H    3.114545   2.197581   3.338565   1.089552   2.229273
    13  H    3.093295   2.208055   4.702993   1.089716   2.245618
    14  H    4.240662   2.952047   3.036427   2.253216   1.089384
    15  H    4.179005   2.915528   4.462339   2.250234   1.090571
                    6          7          8          9         10
     6  C    0.000000
     7  O    1.197199   0.000000
     8  H    2.930553   3.205591   0.000000
     9  H    2.871636   3.103718   3.335909   0.000000
    10  H    3.546348   4.287814   3.767680   1.856859   0.000000
    11  H    2.781487   2.673764   1.517683   4.123868   4.898626
    12  H    2.891123   4.030565   3.254003   4.079528   3.287620
    13  H    2.945370   4.116167   4.524156   4.068458   3.233231
    14  H    2.199838   2.946267   3.489241   4.827467   4.934238
    15  H    2.199995   2.982076   4.659036   4.758958   4.865542
                   11         12         13         14         15
    11  H    0.000000
    12  H    3.888277   0.000000
    13  H    5.007825   1.776426   0.000000
    14  H    3.039968   2.466886   3.044009   0.000000
    15  H    4.338114   3.052867   2.486011   1.780848   0.000000
 Framework group  C1[X(C5H8O2)]
 Deg. of freedom    39
                         Standard orientation:                         
 ---------------------------------------------------------------------
 Center     Atomic      Atomic             Coordinates (Angstroms)
 Number     Number       Type             X           Y           Z
 ---------------------------------------------------------------------
      1          6           0        1.292229    1.709078    0.224845
      2          6           0        0.904296    0.467040   -0.010091
      3          8           0       -2.240203    0.631742   -0.964689
      4          6           0        1.156986   -0.606833   -1.056077
      5          6           0        0.262193   -1.589590   -0.248381
      6          6           0       -0.005778   -0.459620    0.745430
      7          8           0       -0.692466   -0.341627    1.718992
      8          1           0       -1.680120    1.391223   -0.790507
      9          1           0        0.933163    2.230169    1.105596
     10          1           0        1.973921    2.236795   -0.432164
     11          1           0       -2.532006    0.344667   -0.095976
     12          1           0        0.760282   -0.360980   -2.040610
     13          1           0        2.200027   -0.906586   -1.154530
     14          1           0       -0.636143   -1.938007   -0.756667
     15          1           0        0.782676   -2.438645    0.196084
 ---------------------------------------------------------------------
 Rotational constants (GHZ):           2.5574254           2.0524424           1.9291148
 ======================================================================================================
                                       Pseudopotential Parameters
 ======================================================================================================
  Center     Atomic      Valence      Angular      Power
  Number     Number     Electrons     Momentum     of R      Exponent        Coefficient   SO-Coeffient
 ======================================================================================================
    1          6            6
                                      G and up 
                                                     0        0.0000010       -0.00011185    0.00000000
                                                     2        0.1200000       -0.02301220    0.00000000
                                                     2        0.1400000        0.13317600    0.00000000
                                                     2        0.1600000       -0.19690668    0.00000000
                                                     2        0.2200000        0.23163694    0.00000000
                                                     2        0.3000000       -0.36920489    0.00000000
                                                     2        0.4000000        0.36389709    0.00000000
                                                     2        0.7000000       -0.38862160    0.00000000
                                                     2        1.3000000        0.80803421    0.00000000
                                      S - G
                                                     0        0.0000010        0.00312304    0.00000000
                                                     2        0.1200000       -0.00632892    0.00000000
                                                     2        0.2200000       -0.03780897    0.00000000
                                                     2        0.4000000        0.26269560    0.00000000
                                                     2        0.9000000       -0.28209514    0.00000000
                                                     2        1.5000000       -0.72686737    0.00000000
                                      P - G
                                                     0        0.0000010       -0.01465594    0.00000000
                                                     2        0.1200000        0.07908409    0.00000000
                                                     2        0.1800000       -0.30615861    0.00000000
                                                     2        0.2600000        0.41506950    0.00000000
                                                     2        0.5000000       -0.36252345    0.00000000
                                                     2        0.9000000        0.15124193    0.00000000
                                                     2        3.0000000       -0.80425677    0.00000000
                                      D - G
                                                     0        0.0000010        0.01149631    0.00000000
                                                     2        0.1200000       -0.04713561    0.00000000
                                                     2        0.1600000        0.10865096    0.00000000
                                                     2        0.2800000       -0.15816701    0.00000000
                                                     2        0.7000000        0.65478804    0.00000000
                                                     2        1.3000000       -1.73816624    0.00000000
                                      F - G
                                                     0        0.0000010        0.00481868    0.00000000
                                                     2        0.1200000       -0.04746842    0.00000000
                                                     2        0.1600000        0.09327889    0.00000000
                                                     2        0.4000000       -0.19693326    0.00000000
                                                     2        0.9000000        0.34938253    0.00000000
    2          6            6
                                      G and up 
                                                     0        0.0000010       -0.00011185    0.00000000
                                                     2        0.1200000       -0.02301220    0.00000000
                                                     2        0.1400000        0.13317600    0.00000000
                                                     2        0.1600000       -0.19690668    0.00000000
                                                     2        0.2200000        0.23163694    0.00000000
                                                     2        0.3000000       -0.36920489    0.00000000
                                                     2        0.4000000        0.36389709    0.00000000
                                                     2        0.7000000       -0.38862160    0.00000000
                                                     2        1.3000000        0.80803421    0.00000000
                                      S - G
                                                     0        0.0000010        0.00312304    0.00000000
                                                     2        0.1200000       -0.00632892    0.00000000
                                                     2        0.2200000       -0.03780897    0.00000000
                                                     2        0.4000000        0.26269560    0.00000000
                                                     2        0.9000000       -0.28209514    0.00000000
                                                     2        1.5000000       -0.72686737    0.00000000
                                      P - G
                                                     0        0.0000010       -0.01465594    0.00000000
                                                     2        0.1200000        0.07908409    0.00000000
                                                     2        0.1800000       -0.30615861    0.00000000
                                                     2        0.2600000        0.41506950    0.00000000
                                                     2        0.5000000       -0.36252345    0.00000000
                                                     2        0.9000000        0.15124193    0.00000000
                                                     2        3.0000000       -0.80425677    0.00000000
                                      D - G
                                                     0        0.0000010        0.01149631    0.00000000
                                                     2        0.1200000       -0.04713561    0.00000000
                                                     2        0.1600000        0.10865096    0.00000000
                                                     2        0.2800000       -0.15816701    0.00000000
                                                     2        0.7000000        0.65478804    0.00000000
                                                     2        1.3000000       -1.73816624    0.00000000
                                      F - G
                                                     0        0.0000010        0.00481868    0.00000000
                                                     2        0.1200000       -0.04746842    0.00000000
                                                     2        0.1600000        0.09327889    0.00000000
                                                     2        0.4000000       -0.19693326    0.00000000
                                                     2        0.9000000        0.34938253    0.00000000
    3          8            8
                                      G and up 
                                                     0        0.0000010        0.00001165    0.00000000
                                                     2        0.1200000       -0.01744018    0.00000000
                                                     2        0.1400000        0.05401326    0.00000000
                                                     2        0.1800000       -0.08231208    0.00000000
                                                     2        0.2600000        0.11570222    0.00000000
                                                     2        0.4000000       -0.20630360    0.00000000
                                                     2        0.7000000        0.38074319    0.00000000
                                                     2        1.2000000       -0.17045091    0.00000000
                                                     2        2.0000000       -1.45433187    0.00000000
                                      S - G
                                                     0        0.0000010       -0.00117944    0.00000000
                                                     2        0.1400000        0.04368312    0.00000000
                                                     2        0.3000000       -0.33477926    0.00000000
                                                     2        0.6000000        1.52630657    0.00000000
                                                     2        1.5000000       -2.50804716    0.00000000
                                                     2        3.0000000        2.89751681    0.00000000
                                      P - G
                                                     0        0.0000010        0.06576007    0.00000000
                                                     2        0.1200000       -0.10329304    0.00000000
                                                     2        0.2000000        0.24891756    0.00000000
                                                     2        0.4000000       -0.50800022    0.00000000
                                                     2        0.9000000        0.81480796    0.00000000
                                      D - G
                                                     0        0.0000010       -0.14101855    0.00000000
                                                     2        0.1200000        0.22105937    0.00000000
                                                     2        0.1800000       -0.45814988    0.00000000
                                                     2        0.3000000        0.46029282    0.00000000
                                      F - G
                                                     0        0.0000010        0.07483044    0.00000000
                                                     2        0.1200000       -0.09134252    0.00000000
                                                     2        0.1400000        0.04125459    0.00000000
                                                     2        0.3000000        0.37914837    0.00000000
                                                     2        0.5000000       -0.86881279    0.00000000
    4          6            6
                                      G and up 
                                                     0        0.0000010       -0.00011185    0.00000000
                                                     2        0.1200000       -0.02301220    0.00000000
                                                     2        0.1400000        0.13317600    0.00000000
                                                     2        0.1600000       -0.19690668    0.00000000
                                                     2        0.2200000        0.23163694    0.00000000
                                                     2        0.3000000       -0.36920489    0.00000000
                                                     2        0.4000000        0.36389709    0.00000000
                                                     2        0.7000000       -0.38862160    0.00000000
                                                     2        1.3000000        0.80803421    0.00000000
                                      S - G
                                                     0        0.0000010        0.00312304    0.00000000
                                                     2        0.1200000       -0.00632892    0.00000000
                                                     2        0.2200000       -0.03780897    0.00000000
                                                     2        0.4000000        0.26269560    0.00000000
                                                     2        0.9000000       -0.28209514    0.00000000
                                                     2        1.5000000       -0.72686737    0.00000000
                                      P - G
                                                     0        0.0000010       -0.01465594    0.00000000
                                                     2        0.1200000        0.07908409    0.00000000
                                                     2        0.1800000       -0.30615861    0.00000000
                                                     2        0.2600000        0.41506950    0.00000000
                                                     2        0.5000000       -0.36252345    0.00000000
                                                     2        0.9000000        0.15124193    0.00000000
                                                     2        3.0000000       -0.80425677    0.00000000
                                      D - G
                                                     0        0.0000010        0.01149631    0.00000000
                                                     2        0.1200000       -0.04713561    0.00000000
                                                     2        0.1600000        0.10865096    0.00000000
                                                     2        0.2800000       -0.15816701    0.00000000
                                                     2        0.7000000        0.65478804    0.00000000
                                                     2        1.3000000       -1.73816624    0.00000000
                                      F - G
                                                     0        0.0000010        0.00481868    0.00000000
                                                     2        0.1200000       -0.04746842    0.00000000
                                                     2        0.1600000        0.09327889    0.00000000
                                                     2        0.4000000       -0.19693326    0.00000000
                                                     2        0.9000000        0.34938253    0.00000000
    5          6            6
                                      G and up 
                                                     0        0.0000010       -0.00011185    0.00000000
                                                     2        0.1200000       -0.02301220    0.00000000
                                                     2        0.1400000        0.13317600    0.00000000
                                                     2        0.1600000       -0.19690668    0.00000000
                                                     2        0.2200000        0.23163694    0.00000000
                                                     2        0.3000000       -0.36920489    0.00000000
                                                     2        0.4000000        0.36389709    0.00000000
                                                     2        0.7000000       -0.38862160    0.00000000
                                                     2        1.3000000        0.80803421    0.00000000
                                      S - G
                                                     0        0.0000010        0.00312304    0.00000000
                                                     2        0.1200000       -0.00632892    0.00000000
                                                     2        0.2200000       -0.03780897    0.00000000
                                                     2        0.4000000        0.26269560    0.00000000
                                                     2        0.9000000       -0.28209514    0.00000000
                                                     2        1.5000000       -0.72686737    0.00000000
                                      P - G
                                                     0        0.0000010       -0.01465594    0.00000000
                                                     2        0.1200000        0.07908409    0.00000000
                                                     2        0.1800000       -0.30615861    0.00000000
                                                     2        0.2600000        0.41506950    0.00000000
                                                     2        0.5000000       -0.36252345    0.00000000
                                                     2        0.9000000        0.15124193    0.00000000
                                                     2        3.0000000       -0.80425677    0.00000000
                                      D - G
                                                     0        0.0000010        0.01149631    0.00000000
                                                     2        0.1200000       -0.04713561    0.00000000
                                                     2        0.1600000        0.10865096    0.00000000
                                                     2        0.2800000       -0.15816701    0.00000000
                                                     2        0.7000000        0.65478804    0.00000000
                                                     2        1.3000000       -1.73816624    0.00000000
                                      F - G
                                                     0        0.0000010        0.00481868    0.00000000
                                                     2        0.1200000       -0.04746842    0.00000000
                                                     2        0.1600000        0.09327889    0.00000000
                                                     2        0.4000000       -0.19693326    0.00000000
                                                     2        0.9000000        0.34938253    0.00000000
    6          6            6
                                      G and up 
                                                     0        0.0000010       -0.00011185    0.00000000
                                                     2        0.1200000       -0.02301220    0.00000000
                                                     2        0.1400000        0.13317600    0.00000000
                                                     2        0.1600000       -0.19690668    0.00000000
                                                     2        0.2200000        0.23163694    0.00000000
                                                     2        0.3000000       -0.36920489    0.00000000
                                                     2        0.4000000        0.36389709    0.00000000
                                                     2        0.7000000       -0.38862160    0.00000000
                                                     2        1.3000000        0.80803421    0.00000000
                                      S - G
                                                     0        0.0000010        0.00312304    0.00000000
                                                     2        0.1200000       -0.00632892    0.00000000
                                                     2        0.2200000       -0.03780897    0.00000000
                                                     2        0.4000000        0.26269560    0.00000000
                                                     2        0.9000000       -0.28209514    0.00000000
                                                     2        1.5000000       -0.72686737    0.00000000
                                      P - G
                                                     0        0.0000010       -0.01465594    0.00000000
                                                     2        0.1200000        0.07908409    0.00000000
                                                     2        0.1800000       -0.30615861    0.00000000
                                                     2        0.2600000        0.41506950    0.00000000
                                                     2        0.5000000       -0.36252345    0.00000000
                                                     2        0.9000000        0.15124193    0.00000000
                                                     2        3.0000000       -0.80425677    0.00000000
                                      D - G
                                                     0        0.0000010        0.01149631    0.00000000
                                                     2        0.1200000       -0.04713561    0.00000000
                                                     2        0.1600000        0.10865096    0.00000000
                                                     2        0.2800000       -0.15816701    0.00000000
                                                     2        0.7000000        0.65478804    0.00000000
                                                     2        1.3000000       -1.73816624    0.00000000
                                      F - G
                                                     0        0.0000010        0.00481868    0.00000000
                                                     2        0.1200000       -0.04746842    0.00000000
                                                     2        0.1600000        0.09327889    0.00000000
                                                     2        0.4000000       -0.19693326    0.00000000
                                                     2        0.9000000        0.34938253    0.00000000
    7          8            8
                                      G and up 
                                                     0        0.0000010        0.00001165    0.00000000
                                                     2        0.1200000       -0.01744018    0.00000000
                                                     2        0.1400000        0.05401326    0.00000000
                                                     2        0.1800000       -0.08231208    0.00000000
                                                     2        0.2600000        0.11570222    0.00000000
                                                     2        0.4000000       -0.20630360    0.00000000
                                                     2        0.7000000        0.38074319    0.00000000
                                                     2        1.2000000       -0.17045091    0.00000000
                                                     2        2.0000000       -1.45433187    0.00000000
                                      S - G
                                                     0        0.0000010       -0.00117944    0.00000000
                                                     2        0.1400000        0.04368312    0.00000000
                                                     2        0.3000000       -0.33477926    0.00000000
                                                     2        0.6000000        1.52630657    0.00000000
                                                     2        1.5000000       -2.50804716    0.00000000
                                                     2        3.0000000        2.89751681    0.00000000
                                      P - G
                                                     0        0.0000010        0.06576007    0.00000000
                                                     2        0.1200000       -0.10329304    0.00000000
                                                     2        0.2000000        0.24891756    0.00000000
                                                     2        0.4000000       -0.50800022    0.00000000
                                                     2        0.9000000        0.81480796    0.00000000
                                      D - G
                                                     0        0.0000010       -0.14101855    0.00000000
                                                     2        0.1200000        0.22105937    0.00000000
                                                     2        0.1800000       -0.45814988    0.00000000
                                                     2        0.3000000        0.46029282    0.00000000
                                      F - G
                                                     0        0.0000010        0.07483044    0.00000000
                                                     2        0.1200000       -0.09134252    0.00000000
                                                     2        0.1400000        0.04125459    0.00000000
                                                     2        0.3000000        0.37914837    0.00000000
                                                     2        0.5000000       -0.86881279    0.00000000
    8          1            1
                                      F and up 
                                                     0        0.0000010       -0.00000699    0.00000000
                                                     2        0.1200000        0.00123686    0.00000000
                                                     2        0.1800000       -0.00752022    0.00000000
                                                     2        0.2600000        0.02503380    0.00000000
                                                     2        0.4000000       -0.08702670    0.00000000
                                                     2        0.6000000        0.30134159    0.00000000
                                                     2        0.8000000       -0.50204959    0.00000000
                                                     2        1.2000000        0.52208372    0.00000000
                                      S - F
                                                     0        0.0000010       -0.01618346    0.00000000
                                                     2        0.1200000       -0.07880581    0.00000000
                                                     2        0.1600000        0.32040539    0.00000000
                                                     2        0.2400000       -0.47500956    0.00000000
                                                     2        0.5000000        0.54013668    0.00000000
                                                     2        1.5000000       -1.40434292    0.00000000
                                                     2        3.0000000        1.46283806    0.00000000
                                      P - F
                                                     0        0.0000010        0.00612970    0.00000000
                                                     2        0.1200000        0.02254406    0.00000000
                                                     2        0.1800000       -0.13874529    0.00000000
                                                     2        0.3000000        0.38299049    0.00000000
                                                     2        0.5000000       -0.57923512    0.00000000
                                                     2        1.0000000        0.63021625    0.00000000
                                                     2        2.0000000       -0.79201034    0.00000000
                                      D - F
                                                     0        0.0000010       -0.00296226    0.00000000
                                                     2        0.1200000       -0.00547344    0.00000000
                                                     2        0.1400000        0.01837884    0.00000000
                                                     2        0.2400000       -0.05565704    0.00000000
                                                     2        0.4000000        0.15376597    0.00000000
                                                     2        0.8000000       -0.32464795    0.00000000
    9          1            1
                                      F and up 
                                                     0        0.0000010       -0.00000699    0.00000000
                                                     2        0.1200000        0.00123686    0.00000000
                                                     2        0.1800000       -0.00752022    0.00000000
                                                     2        0.2600000        0.02503380    0.00000000
                                                     2        0.4000000       -0.08702670    0.00000000
                                                     2        0.6000000        0.30134159    0.00000000
                                                     2        0.8000000       -0.50204959    0.00000000
                                                     2        1.2000000        0.52208372    0.00000000
                                      S - F
                                                     0        0.0000010       -0.01618346    0.00000000
                                                     2        0.1200000       -0.07880581    0.00000000
                                                     2        0.1600000        0.32040539    0.00000000
                                                     2        0.2400000       -0.47500956    0.00000000
                                                     2        0.5000000        0.54013668    0.00000000
                                                     2        1.5000000       -1.40434292    0.00000000
                                                     2        3.0000000        1.46283806    0.00000000
                                      P - F
                                                     0        0.0000010        0.00612970    0.00000000
                                                     2        0.1200000        0.02254406    0.00000000
                                                     2        0.1800000       -0.13874529    0.00000000
                                                     2        0.3000000        0.38299049    0.00000000
                                                     2        0.5000000       -0.57923512    0.00000000
                                                     2        1.0000000        0.63021625    0.00000000
                                                     2        2.0000000       -0.79201034    0.00000000
                                      D - F
                                                     0        0.0000010       -0.00296226    0.00000000
                                                     2        0.1200000       -0.00547344    0.00000000
                                                     2        0.1400000        0.01837884    0.00000000
                                                     2        0.2400000       -0.05565704    0.00000000
                                                     2        0.4000000        0.15376597    0.00000000
                                                     2        0.8000000       -0.32464795    0.00000000
   10          1            1
                                      F and up 
                                                     0        0.0000010       -0.00000699    0.00000000
                                                     2        0.1200000        0.00123686    0.00000000
                                                     2        0.1800000       -0.00752022    0.00000000
                                                     2        0.2600000        0.02503380    0.00000000
                                                     2        0.4000000       -0.08702670    0.00000000
                                                     2        0.6000000        0.30134159    0.00000000
                                                     2        0.8000000       -0.50204959    0.00000000
                                                     2        1.2000000        0.52208372    0.00000000
                                      S - F
                                                     0        0.0000010       -0.01618346    0.00000000
                                                     2        0.1200000       -0.07880581    0.00000000
                                                     2        0.1600000        0.32040539    0.00000000
                                                     2        0.2400000       -0.47500956    0.00000000
                                                     2        0.5000000        0.54013668    0.00000000
                                                     2        1.5000000       -1.40434292    0.00000000
                                                     2        3.0000000        1.46283806    0.00000000
                                      P - F
                                                     0        0.0000010        0.00612970    0.00000000
                                                     2        0.1200000        0.02254406    0.00000000
                                                     2        0.1800000       -0.13874529    0.00000000
                                                     2        0.3000000        0.38299049    0.00000000
                                                     2        0.5000000       -0.57923512    0.00000000
                                                     2        1.0000000        0.63021625    0.00000000
                                                     2        2.0000000       -0.79201034    0.00000000
                                      D - F
                                                     0        0.0000010       -0.00296226    0.00000000
                                                     2        0.1200000       -0.00547344    0.00000000
                                                     2        0.1400000        0.01837884    0.00000000
                                                     2        0.2400000       -0.05565704    0.00000000
                                                     2        0.4000000        0.15376597    0.00000000
                                                     2        0.8000000       -0.32464795    0.00000000
   11          1            1
                                      F and up 
                                                     0        0.0000010       -0.00000699    0.00000000
                                                     2        0.1200000        0.00123686    0.00000000
                                                     2        0.1800000       -0.00752022    0.00000000
                                                     2        0.2600000        0.02503380    0.00000000
                                                     2        0.4000000       -0.08702670    0.00000000
                                                     2        0.6000000        0.30134159    0.00000000
                                                     2        0.8000000       -0.50204959    0.00000000
                                                     2        1.2000000        0.52208372    0.00000000
                                      S - F
                                                     0        0.0000010       -0.01618346    0.00000000
                                                     2        0.1200000       -0.07880581    0.00000000
                                                     2        0.1600000        0.32040539    0.00000000
                                                     2        0.2400000       -0.47500956    0.00000000
                                                     2        0.5000000        0.54013668    0.00000000
                                                     2        1.5000000       -1.40434292    0.00000000
                                                     2        3.0000000        1.46283806    0.00000000
                                      P - F
                                                     0        0.0000010        0.00612970    0.00000000
                                                     2        0.1200000        0.02254406    0.00000000
                                                     2        0.1800000       -0.13874529    0.00000000
                                                     2        0.3000000        0.38299049    0.00000000
                                                     2        0.5000000       -0.57923512    0.00000000
                                                     2        1.0000000        0.63021625    0.00000000
                                                     2        2.0000000       -0.79201034    0.00000000
                                      D - F
                                                     0        0.0000010       -0.00296226    0.00000000
                                                     2        0.1200000       -0.00547344    0.00000000
                                                     2        0.1400000        0.01837884    0.00000000
                                                     2        0.2400000       -0.05565704    0.00000000
                                                     2        0.4000000        0.15376597    0.00000000
                                                     2        0.8000000       -0.32464795    0.00000000
   12          1            1
                                      F and up 
                                                     0        0.0000010       -0.00000699    0.00000000
                                                     2        0.1200000        0.00123686    0.00000000
                                                     2        0.1800000       -0.00752022    0.00000000
                                                     2        0.2600000        0.02503380    0.00000000
                                                     2        0.4000000       -0.08702670    0.00000000
                                                     2        0.6000000        0.30134159    0.00000000
                                                     2        0.8000000       -0.50204959    0.00000000
                                                     2        1.2000000        0.52208372    0.00000000
                                      S - F
                                                     0        0.0000010       -0.01618346    0.00000000
                                                     2        0.1200000       -0.07880581    0.00000000
                                                     2        0.1600000        0.32040539    0.00000000
                                                     2        0.2400000       -0.47500956    0.00000000
                                                     2        0.5000000        0.54013668    0.00000000
                                                     2        1.5000000       -1.40434292    0.00000000
                                                     2        3.0000000        1.46283806    0.00000000
                                      P - F
                                                     0        0.0000010        0.00612970    0.00000000
                                                     2        0.1200000        0.02254406    0.00000000
                                                     2        0.1800000       -0.13874529    0.00000000
                                                     2        0.3000000        0.38299049    0.00000000
                                                     2        0.5000000       -0.57923512    0.00000000
                                                     2        1.0000000        0.63021625    0.00000000
                                                     2        2.0000000       -0.79201034    0.00000000
                                      D - F
                                                     0        0.0000010       -0.00296226    0.00000000
                                                     2        0.1200000       -0.00547344    0.00000000
                                                     2        0.1400000        0.01837884    0.00000000
                                                     2        0.2400000       -0.05565704    0.00000000
                                                     2        0.4000000        0.15376597    0.00000000
                                                     2        0.8000000       -0.32464795    0.00000000
   13          1            1
                                      F and up 
                                                     0        0.0000010       -0.00000699    0.00000000
                                                     2        0.1200000        0.00123686    0.00000000
                                                     2        0.1800000       -0.00752022    0.00000000
                                                     2        0.2600000        0.02503380    0.00000000
                                                     2        0.4000000       -0.08702670    0.00000000
                                                     2        0.6000000        0.30134159    0.00000000
                                                     2        0.8000000       -0.50204959    0.00000000
                                                     2        1.2000000        0.52208372    0.00000000
                                      S - F
                                                     0        0.0000010       -0.01618346    0.00000000
                                                     2        0.1200000       -0.07880581    0.00000000
                                                     2        0.1600000        0.32040539    0.00000000
                                                     2        0.2400000       -0.47500956    0.00000000
                                                     2        0.5000000        0.54013668    0.00000000
                                                     2        1.5000000       -1.40434292    0.00000000
                                                     2        3.0000000        1.46283806    0.00000000
                                      P - F
                                                     0        0.0000010        0.00612970    0.00000000
                                                     2        0.1200000        0.02254406    0.00000000
                                                     2        0.1800000       -0.13874529    0.00000000
                                                     2        0.3000000        0.38299049    0.00000000
                                                     2        0.5000000       -0.57923512    0.00000000
                                                     2        1.0000000        0.63021625    0.00000000
                                                     2        2.0000000       -0.79201034    0.00000000
                                      D - F
                                                     0        0.0000010       -0.00296226    0.00000000
                                                     2        0.1200000       -0.00547344    0.00000000
                                                     2        0.1400000        0.01837884    0.00000000
                                                     2        0.2400000       -0.05565704    0.00000000
                                                     2        0.4000000        0.15376597    0.00000000
                                                     2        0.8000000       -0.32464795    0.00000000
   14          1            1
                                      F and up 
                                                     0        0.0000010       -0.00000699    0.00000000
                                                     2        0.1200000        0.00123686    0.00000000
                                                     2        0.1800000       -0.00752022    0.00000000
                                                     2        0.2600000        0.02503380    0.00000000
                                                     2        0.4000000       -0.08702670    0.00000000
                                                     2        0.6000000        0.30134159    0.00000000
                                                     2        0.8000000       -0.50204959    0.00000000
                                                     2        1.2000000        0.52208372    0.00000000
                                      S - F
                                                     0        0.0000010       -0.01618346    0.00000000
                                                     2        0.1200000       -0.07880581    0.00000000
                                                     2        0.1600000        0.32040539    0.00000000
                                                     2        0.2400000       -0.47500956    0.00000000
                                                     2        0.5000000        0.54013668    0.00000000
                                                     2        1.5000000       -1.40434292    0.00000000
                                                     2        3.0000000        1.46283806    0.00000000
                                      P - F
                                                     0        0.0000010        0.00612970    0.00000000
                                                     2        0.1200000        0.02254406    0.00000000
                                                     2        0.1800000       -0.13874529    0.00000000
                                                     2        0.3000000        0.38299049    0.00000000
                                                     2        0.5000000       -0.57923512    0.00000000
                                                     2        1.0000000        0.63021625    0.00000000
                                                     2        2.0000000       -0.79201034    0.00000000
                                      D - F
                                                     0        0.0000010       -0.00296226    0.00000000
                                                     2        0.1200000       -0.00547344    0.00000000
                                                     2        0.1400000        0.01837884    0.00000000
                                                     2        0.2400000       -0.05565704    0.00000000
                                                     2        0.4000000        0.15376597    0.00000000
                                                     2        0.8000000       -0.32464795    0.00000000
   15          1            1
                                      F and up 
                                                     0        0.0000010       -0.00000699    0.00000000
                                                     2        0.1200000        0.00123686    0.00000000
                                                     2        0.1800000       -0.00752022    0.00000000
                                                     2        0.2600000        0.02503380    0.00000000
                                                     2        0.4000000       -0.08702670    0.00000000
                                                     2        0.6000000        0.30134159    0.00000000
                                                     2        0.8000000       -0.50204959    0.00000000
                                                     2        1.2000000        0.52208372    0.00000000
                                      S - F
                                                     0        0.0000010       -0.01618346    0.00000000
                                                     2        0.1200000       -0.07880581    0.00000000
                                                     2        0.1600000        0.32040539    0.00000000
                                                     2        0.2400000       -0.47500956    0.00000000
                                                     2        0.5000000        0.54013668    0.00000000
                                                     2        1.5000000       -1.40434292    0.00000000
                                                     2        3.0000000        1.46283806    0.00000000
                                      P - F
                                                     0        0.0000010        0.00612970    0.00000000
                                                     2        0.1200000        0.02254406    0.00000000
                                                     2        0.1800000       -0.13874529    0.00000000
                                                     2        0.3000000        0.38299049    0.00000000
                                                     2        0.5000000       -0.57923512    0.00000000
                                                     2        1.0000000        0.63021625    0.00000000
                                                     2        2.0000000       -0.79201034    0.00000000
                                      D - F
                                                     0        0.0000010       -0.00296226    0.00000000
                                                     2        0.1200000       -0.00547344    0.00000000
                                                     2        0.1400000        0.01837884    0.00000000
                                                     2        0.2400000       -0.05565704    0.00000000
                                                     2        0.4000000        0.15376597    0.00000000
                                                     2        0.8000000       -0.32464795    0.00000000
 ======================================================================================================
   233 basis functions,   389 primitive gaussians,   247 cartesian basis functions
    27 alpha electrons       27 beta electrons
       nuclear repulsion energy       291.5978323896 Hartrees.
 NAtoms=   15 NActive=   15 NUniq=   15 SFac= 1.00D+00 NAtFMM=   60 NAOKFM=F Big=F
   1 Symmetry operations used in ECPInt.
 ECPInt:  NShTT=    5356 NPrTT=   23992 LenC2=    5348 LenP2D=   18886.
 LDataN:  DoStor=T MaxTD1= 6 Len=  172
 Initial guess from the checkpoint file:  "Grambow2020_wb97xd3_006672_reverse_mol2.chk"
 B after Tr=     0.322820    0.049367   -0.445595
         Rot=    0.129826    0.710889   -0.665362    0.187284 Ang= 165.08 deg.
 >>>>>>>>>> Convergence criterion not met.
 SCF Done:  E(RHF) =  -343.829370039     A.U. after    2 cycles
            NFock=  1  Conv=0.69D-02     -V/T= 1.9984

 **********************************************************************

            Population analysis using the SCF Density.

 **********************************************************************

 Orbital symmetries:
       Occupied  (A) (A) (A) (A) (A) (A) (A) (A) (A) (A) (A) (A)
                 (A) (A) (A) (A) (A) (A) (A) (A) (A) (A) (A) (A)
                 (A) (A) (A)
       Virtual   (A) (A) (A) (A) (A) (A) (A) (A) (A) (A) (A) (A)
                 (A) (A) (A) (A) (A) (A) (A) (A) (A) (A) (A) (A)
                 (A) (A) (A) (A) (A) (A) (A) (A) (A) (A) (A) (A)
                 (A) (A) (A) (A) (A) (A) (A) (A) (A) (A) (A) (A)
                 (A) (A) (A) (A) (A) (A) (A) (A) (A) (A) (A) (A)
                 (A) (A) (A) (A) (A) (A) (A) (A) (A) (A) (A) (A)
                 (A) (A) (A) (A) (A) (A) (A) (A) (A) (A) (A) (A)
                 (A) (A) (A) (A) (A) (A) (A) (A) (A) (A) (A) (A)
                 (A) (A) (A) (A) (A) (A) (A) (A) (A) (A) (A) (A)
                 (A) (A) (A) (A) (A) (A) (A) (A) (A) (A) (A) (A)
                 (A) (A) (A) (A) (A) (A) (A) (A) (A) (A) (A) (A)
                 (A) (A) (A) (A) (A) (A) (A) (A) (A) (A) (A) (A)
                 (A) (A) (A) (A) (A) (A) (A) (A) (A) (A) (A) (A)
                 (A) (A) (A) (A) (A) (A) (A) (A) (A) (A) (A) (A)
                 (A) (A) (A) (A) (A) (A) (A) (A) (A) (A) (A) (A)
                 (A) (A) (A) (A) (A) (A) (A) (A) (A) (A) (A) (A)
                 (A) (A) (A) (A) (A) (A) (A) (A) (A) (A) (A) (A)
                 (A) (A)
 The electronic state is 1-A.
 Alpha  occ. eigenvalues --  -20.57532 -20.57349 -11.34849 -11.26780 -11.26337
 Alpha  occ. eigenvalues --  -11.25455 -11.25049  -1.36677  -1.31073  -1.14558
 Alpha  occ. eigenvalues --   -1.02087  -0.88243  -0.84983  -0.72899  -0.70568
 Alpha  occ. eigenvalues --   -0.68224  -0.66330  -0.65798  -0.60351  -0.60037
 Alpha  occ. eigenvalues --   -0.55820  -0.52839  -0.52169  -0.51414  -0.50567
 Alpha  occ. eigenvalues --   -0.42081  -0.39377
 Alpha virt. eigenvalues --    0.03125   0.03856   0.04373   0.04856   0.06278
 Alpha virt. eigenvalues --    0.06627   0.06906   0.07314   0.08255   0.09854
 Alpha virt. eigenvalues --    0.11253   0.12305   0.13035   0.13751   0.14550
 Alpha virt. eigenvalues --    0.14863   0.15757   0.16834   0.17249   0.17749
 Alpha virt. eigenvalues --    0.18340   0.18723   0.19466   0.19951   0.20542
 Alpha virt. eigenvalues --    0.21811   0.23291   0.23849   0.24734   0.25545
 Alpha virt. eigenvalues --    0.26999   0.28128   0.28707   0.29654   0.29851
 Alpha virt. eigenvalues --    0.30541   0.31503   0.33153   0.34053   0.35448
 Alpha virt. eigenvalues --    0.36602   0.36919   0.37480   0.39369   0.39843
 Alpha virt. eigenvalues --    0.40613   0.41146   0.42569   0.42869   0.44762
 Alpha virt. eigenvalues --    0.45637   0.46186   0.46639   0.47868   0.48426
 Alpha virt. eigenvalues --    0.49472   0.50323   0.51311   0.51948   0.53479
 Alpha virt. eigenvalues --    0.54598   0.55157   0.56350   0.57413   0.58472
 Alpha virt. eigenvalues --    0.59340   0.59741   0.60313   0.60875   0.62663
 Alpha virt. eigenvalues --    0.63685   0.64951   0.66086   0.66420   0.67328
 Alpha virt. eigenvalues --    0.67713   0.68894   0.69155   0.70442   0.72397
 Alpha virt. eigenvalues --    0.72750   0.74975   0.76410   0.77711   0.79210
 Alpha virt. eigenvalues --    0.79701   0.80430   0.81868   0.82267   0.83300
 Alpha virt. eigenvalues --    0.85844   0.86781   0.87463   0.88156   0.91422
 Alpha virt. eigenvalues --    0.91456   0.93369   0.94338   0.97817   1.00980
 Alpha virt. eigenvalues --    1.03792   1.03860   1.05202   1.07750   1.09416
 Alpha virt. eigenvalues --    1.11838   1.14027   1.17090   1.19976   1.20061
 Alpha virt. eigenvalues --    1.20930   1.23070   1.24578   1.26484   1.26860
 Alpha virt. eigenvalues --    1.31675   1.33654   1.34990   1.37008   1.39330
 Alpha virt. eigenvalues --    1.40810   1.41944   1.42638   1.44654   1.47175
 Alpha virt. eigenvalues --    1.48496   1.49786   1.54756   1.57520   1.59516
 Alpha virt. eigenvalues --    1.62037   1.63469   1.64525   1.66684   1.69708
 Alpha virt. eigenvalues --    1.70626   1.71310   1.74245   1.76144   1.78486
 Alpha virt. eigenvalues --    1.83454   1.85810   1.88612   1.89219   1.92220
 Alpha virt. eigenvalues --    1.93952   1.99275   2.00981   2.02804   2.03202
 Alpha virt. eigenvalues --    2.05213   2.06022   2.08065   2.09222   2.09819
 Alpha virt. eigenvalues --    2.13363   2.15452   2.17834   2.22171   2.24052
 Alpha virt. eigenvalues --    2.25357   2.27336   2.29452   2.33014   2.34094
 Alpha virt. eigenvalues --    2.36136   2.36955   2.39453   2.40457   2.44430
 Alpha virt. eigenvalues --    2.48050   2.50243   2.50982   2.55922   2.57820
 Alpha virt. eigenvalues --    2.60579   2.63153   2.65351   2.70429   2.73053
 Alpha virt. eigenvalues --    2.76323   2.78241   2.79217   2.82410   2.86260
 Alpha virt. eigenvalues --    2.91689   2.94058   2.97476   3.08414   3.11894
 Alpha virt. eigenvalues --    3.23629   3.24987   3.29135   3.46105   3.51036
 Alpha virt. eigenvalues --    3.58386   3.60573   3.63378   3.66644   3.68507
 Alpha virt. eigenvalues --    3.71536   3.89272   3.98829   4.06297   4.22038
 Alpha virt. eigenvalues --    4.22513
          Condensed to atoms (all electrons):
 Mulliken charges:
               1
     1  C    1.134994
     2  C   -0.088912
     3  O   -0.334782
     4  C    0.117898
     5  C    0.501414
     6  C   -0.305588
     7  O   -0.495184
     8  H    0.180137
     9  H   -0.349233
    10  H   -0.307281
    11  H    0.177031
    12  H   -0.049090
    13  H   -0.064709
    14  H   -0.062636
    15  H   -0.054059
 Sum of Mulliken charges =  -0.00000
 Mulliken charges with hydrogens summed into heavy atoms:
               1
     1  C    0.478480
     2  C   -0.088912
     3  O    0.022386
     4  C    0.004098
     5  C    0.384719
     6  C   -0.305588
     7  O   -0.495184
 Electronic spatial extent (au):  <R**2>=            817.5932
 Charge=             -0.0000 electrons
 Dipole moment (field-independent basis, Debye):
    X=              2.7773    Y=              0.6099    Z=             -1.3571  Tot=              3.1508

 Test job not archived.
 1\1\GINC-SE113\SP\RHF\Aug-CC-pVDZ\C5H8O2\OHZDE\09-Apr-2025\0\\#t hf au
 g-cc-pvdz iop(5/13=1,5/36=2,99/5=2) pseudo=read geom=check guess=(read
 ,tcheck) scf=(maxcycle=1)\\title\\0,1\C,0,-1.58100195,-1.34225245,-0.0
 2924644\C,0,-0.38484662,-0.79176425,0.09125522\O,0,-0.77766307,2.43080
 112,-0.44449494\C,0,0.59667047,-0.47791173,1.20895799\C,0,1.60991468,0
 .05414605,0.15582519\C,0,0.56704326,-0.22789667,-0.92545763\O,0,0.5102
 1071,-0.0435648,-2.10701509\H,0,-1.49188565,1.79121386,-0.40377975\H,0
 ,-2.03288675,-1.44425904,-1.00984875\H,0,-2.1370286,-1.71164698,0.8247
 038\H,0,-0.42386197,2.33902002,-1.33253935\H,0,0.24244407,0.28529082,1
 .90117798\H,0,0.93195657,-1.34695133,1.77449775\H,0,1.86900825,1.10896
 232,0.23943738\H,0,2.51909858,-0.53706094,0.04091564\\Version=ES64L-G1
 6RevC.01\State=1-A\HF=-343.82937\RMSD=6.855e-03\Dipole=-0.2400176,-0.7
 68335,0.9426905\Quadrupole=4.9458458,-2.6371163,-2.3087295,1.7579617,1
 .709104,-2.7261903\PG=C01 [X(C5H8O2)]\\@


 Time has a wonderful way of weeding out the trivial.
                                -- Richard Ben Sapir
 Job cpu time:       0 days  0 hours  1 minutes  2.8 seconds.
 Elapsed time:       0 days  0 hours  0 minutes  4.9 seconds.
 File lengths (MBytes):  RWF=     10 Int=      0 D2E=      0 Chk=      8 Scr=      1
 Normal termination of Gaussian 16 at Wed Apr  9 15:06:03 2025.
