 Entering Gaussian System, Link 0=g16
 Input=Grambow2020_wb97xd3_009342_forward_mol1.gjf
 Output=Grambow2020_wb97xd3_009342_forward_mol1.log
 Initial command:
 /arc/software/Gaussian/g16.c01/l1.exe "/tmp/slurm/4870453/Gau-148031.inp" -scrdir="/tmp/slurm/4870453/"
 Entering Link 1 = /arc/software/Gaussian/g16.c01/l1.exe PID=    148032.
  
 Copyright (c) 1988-2019, Gaussian, Inc.  All Rights Reserved.
  
 This is part of the Gaussian(R) 16 program.  It is based on
 the Gaussian(R) 09 system (copyright 2009, Gaussian, Inc.),
 the Gaussian(R) 03 system (copyright 2003, Gaussian, Inc.),
 the Gaussian(R) 98 system (copyright 1998, Gaussian, Inc.),
 the Gaussian(R) 94 system (copyright 1995, Gaussian, Inc.),
 the Gaussian 92(TM) system (copyright 1992, Gaussian, Inc.),
 the Gaussian 90(TM) system (copyright 1990, Gaussian, Inc.),
 the Gaussian 88(TM) system (copyright 1988, Gaussian, Inc.),
 the Gaussian 86(TM) system (copyright 1986, Carnegie Mellon
 University), and the Gaussian 82(TM) system (copyright 1983,
 Carnegie Mellon University). Gaussian is a federally registered
 trademark of Gaussian, Inc.
  
 This software contains proprietary and confidential information,
 including trade secrets, belonging to Gaussian, Inc.
  
 This software is provided under written license and may be
 used, copied, transmitted, or stored only in accord with that
 written license.
  
 The following legend is applicable only to US Government
 contracts under FAR:
  
                    RESTRICTED RIGHTS LEGEND
  
 Use, reproduction and disclosure by the US Government is
 subject to restrictions as set forth in subparagraphs (a)
 and (c) of the Commercial Computer Software - Restricted
 Rights clause in FAR 52.227-19.
  
 Gaussian, Inc.
 340 Quinnipiac St., Bldg. 40, Wallingford CT 06492
  
  
 ---------------------------------------------------------------
 Warning -- This program may not be used in any manner that
 competes with the business of Gaussian, Inc. or will provide
 assistance to any competitor of Gaussian, Inc.  The licensee
 of this program is prohibited from giving any competitor of
 Gaussian, Inc. access to this program.  By using this program,
 the user acknowledges that Gaussian, Inc. is engaged in the
 business of creating and licensing software in the field of
 computational chemistry and represents and warrants to the
 licensee that it is not a competitor of Gaussian, Inc. and that
 it will not use this program in any manner prohibited above.
 ---------------------------------------------------------------
  

 Cite this work as:
 Gaussian 16, Revision C.01,
 M. J. Frisch, G. W. Trucks, H. B. Schlegel, G. E. Scuseria, 
 M. A. Robb, J. R. Cheeseman, G. Scalmani, V. Barone, 
 G. A. Petersson, H. Nakatsuji, X. Li, M. Caricato, A. V. Marenich, 
 J. Bloino, B. G. Janesko, R. Gomperts, B. Mennucci, H. P. Hratchian, 
 J. V. Ortiz, A. F. Izmaylov, J. L. Sonnenberg, D. Williams-Young, 
 F. Ding, F. Lipparini, F. Egidi, J. Goings, B. Peng, A. Petrone, 
 T. Henderson, D. Ranasinghe, V. G. Zakrzewski, J. Gao, N. Rega, 
 G. Zheng, W. Liang, M. Hada, M. Ehara, K. Toyota, R. Fukuda, 
 J. Hasegawa, M. Ishida, T. Nakajima, Y. Honda, O. Kitao, H. Nakai, 
 T. Vreven, K. Throssell, J. A. Montgomery, Jr., J. E. Peralta, 
 F. Ogliaro, M. J. Bearpark, J. J. Heyd, E. N. Brothers, K. N. Kudin, 
 V. N. Staroverov, T. A. Keith, R. Kobayashi, J. Normand, 
 K. Raghavachari, A. P. Rendell, J. C. Burant, S. S. Iyengar, 
 J. Tomasi, M. Cossi, J. M. Millam, M. Klene, C. Adamo, R. Cammi, 
 J. W. Ochterski, R. L. Martin, K. Morokuma, O. Farkas, 
 J. B. Foresman, and D. J. Fox, Gaussian, Inc., Wallingford CT, 2019.
 
 ******************************************
 Gaussian 16:  ES64L-G16RevC.01  3-Jul-2019
                 9-Apr-2025 
 ******************************************
 %nprocs=16
 Will use up to   16 processors via shared memory.
 %mem=30GB
 %chk=Grambow2020_wb97xd3_009342_forward_mol1.chk
 ----------------------------------------------------------------------
 #t hf aug-cc-pvdz symm=none int=(grid=ultrafine) guess=(read,tcheck) s
 table=(opt,rrhf)
 ----------------------------------------------------------------------
 -----
 title
 -----
 Symbolic Z-matrix:
 Charge =  0 Multiplicity = 1
 C                    -1.93519  -0.43591  -0.63453 
 N                    -0.90437   0.08631   0.22362 
 C                     0.23181  -0.56927   0.67717 
 C                     1.13423   0.35365   1.27248 
 C                     1.6236   -0.4645   -0.39471 
 C                     0.4359    1.58609   0.90354 
 N                    -0.72361   1.41004   0.33095 
 H                    -1.64596  -0.39729  -1.69027 
 H                    -2.84163   0.1502   -0.498 
 H                    -2.1371   -1.47168  -0.36154 
 H                     0.15195  -1.63028   0.87596 
 H                     2.34088   0.34638  -0.43696 
 H                     1.06658  -0.4765   -1.33448 
 H                     2.15292  -1.3939   -0.22237 
 H                     0.75512   2.59461   1.12681 
 
                    Distance matrix (angstroms):
                    1          2          3          4          5
     1  C    0.000000
     2  N    1.439336   0.000000
     3  C    2.536566   1.387942   0.000000
     4  C    3.698833   2.308133   1.421458   0.000000
     5  C    3.566969   2.660140   1.759823   1.920516   0.000000
     6  C    3.475074   2.123197   2.176799   1.463791   2.702039
     7  N    2.409892   1.340326   2.224941   2.335385   3.090291
     8  H    1.095323   2.108737   3.026603   4.131737   3.517529
     9  H    1.088029   2.068281   3.368184   4.357000   4.508525
    10  H    1.090006   2.071070   2.739516   4.086980   3.893370
    11  H    2.839759   2.118501   1.082429   2.249020   2.267026
    12  H    4.351523   3.321997   2.554973   2.092427   1.083427
    13  H    3.082562   2.574697   2.179945   2.736778   1.092507
    14  H    4.219026   3.425917   2.275926   2.515197   1.083350
    15  H    4.418605   3.140264   3.238233   2.277464   3.525260
                    6          7          8          9         10
     6  C    0.000000
     7  N    1.305112   0.000000
     8  H    3.872440   2.864003   0.000000
     9  H    3.842952   2.600069   1.775072   0.000000
    10  H    4.191736   3.283564   1.777931   1.773550   0.000000
    11  H    3.228997   3.210488   3.367236   3.744250   2.606969
    12  H    2.638710   3.333494   4.244850   5.186584   4.833562
    13  H    3.108179   3.088284   2.736925   4.045564   3.492929
    14  H    3.618857   4.054953   4.192780   5.235046   4.292975
    15  H    1.081142   2.055052   4.759476   4.642386   5.207186
                   11         12         13         14         15
    11  H    0.000000
    12  H    3.228374   0.000000
    13  H    2.655901   1.762530   0.000000
    14  H    2.294797   1.763501   1.805133   0.000000
    15  H    4.275097   3.164579   3.947997   4.436473   0.000000
 Symmetry turned off by external request.
 Rotational constants (GHZ):           4.5658159           2.9251761           2.1253695
   233 basis functions,   389 primitive gaussians,   247 cartesian basis functions
    26 alpha electrons       26 beta electrons
       nuclear repulsion energy       301.6655628349 Hartrees.
 NAtoms=   15 NActive=   15 NUniq=   15 SFac= 1.00D+00 NAtFMM=   60 NAOKFM=F Big=F
 ExpMin= 2.97D-02 ExpMax= 9.05D+03 ExpMxC= 3.09D+02 IAcc=3 IRadAn=         5 AccDes= 0.00D+00
 Harris functional with IExCor=  205 and IRadAn=       5 diagonalized for initial guess.
 HarFok:  IExCor=  205 AccDes= 0.00D+00 IRadAn=         5 IDoV= 1 UseB2=F ITyADJ=14
 ICtDFT=  3500011 ScaDFX=  1.000000  1.000000  1.000000  1.000000
 FoFCou: FMM=F IPFlag=           0 FMFlag=      100000 FMFlg1=           0
         NFxFlg=           0 DoJE=T BraDBF=F KetDBF=T FulRan=T
         wScrn=  0.000000 ICntrl=       500 IOpCl=  0 I1Cent=   200000004 NGrid=           0
         NMat0=    1 NMatS0=      1 NMatT0=    0 NMatD0=    1 NMtDS0=    0 NMtDT0=    0
 Symmetry not used in FoFCou.
 SCF Done:  E(RHF) =  -302.750915466     A.U. after   15 cycles
            NFock= 15  Conv=0.77D-08     -V/T= 2.0007

 **********************************************************************

            Population analysis using the SCF Density.

 **********************************************************************

 Alpha  occ. eigenvalues --  -15.62503 -15.61964 -11.30014 -11.28232 -11.27763
 Alpha  occ. eigenvalues --  -11.25418 -11.22477  -1.39108  -1.13250  -1.10219
 Alpha  occ. eigenvalues --   -0.95293  -0.92505  -0.80657  -0.77482  -0.70839
 Alpha  occ. eigenvalues --   -0.66155  -0.61494  -0.59060  -0.58188  -0.57143
 Alpha  occ. eigenvalues --   -0.55398  -0.53795  -0.46930  -0.42209  -0.35192
 Alpha  occ. eigenvalues --   -0.33666
 Alpha virt. eigenvalues --    0.02843   0.04176   0.04419   0.05097   0.06188
 Alpha virt. eigenvalues --    0.06667   0.07528   0.07782   0.09590   0.10688
 Alpha virt. eigenvalues --    0.11783   0.12570   0.13019   0.13670   0.13874
 Alpha virt. eigenvalues --    0.15017   0.15838   0.16246   0.16807   0.16997
 Alpha virt. eigenvalues --    0.17302   0.17756   0.18508   0.19448   0.19710
 Alpha virt. eigenvalues --    0.20766   0.21356   0.23217   0.24707   0.25224
 Alpha virt. eigenvalues --    0.27112   0.27643   0.28669   0.29263   0.30303
 Alpha virt. eigenvalues --    0.30716   0.31114   0.32831   0.34095   0.34240
 Alpha virt. eigenvalues --    0.36116   0.36960   0.37400   0.38424   0.39591
 Alpha virt. eigenvalues --    0.40524   0.42179   0.42402   0.43568   0.44327
 Alpha virt. eigenvalues --    0.44761   0.45408   0.46395   0.46842   0.47836
 Alpha virt. eigenvalues --    0.49287   0.50525   0.51497   0.52343   0.54288
 Alpha virt. eigenvalues --    0.54846   0.55754   0.56776   0.57550   0.57883
 Alpha virt. eigenvalues --    0.58672   0.59904   0.60995   0.61357   0.62551
 Alpha virt. eigenvalues --    0.62884   0.64270   0.64912   0.65607   0.66342
 Alpha virt. eigenvalues --    0.66794   0.68043   0.69234   0.69865   0.71096
 Alpha virt. eigenvalues --    0.72242   0.72902   0.74115   0.74656   0.75337
 Alpha virt. eigenvalues --    0.77100   0.77380   0.78437   0.78973   0.80219
 Alpha virt. eigenvalues --    0.81045   0.82897   0.84669   0.86812   0.87473
 Alpha virt. eigenvalues --    0.87819   0.89476   0.90632   0.91371   0.93809
 Alpha virt. eigenvalues --    0.94786   0.96995   0.98285   1.00325   1.02009
 Alpha virt. eigenvalues --    1.02744   1.04157   1.06535   1.07941   1.10442
 Alpha virt. eigenvalues --    1.12289   1.14593   1.16042   1.18721   1.19983
 Alpha virt. eigenvalues --    1.24374   1.24655   1.28444   1.28920   1.33002
 Alpha virt. eigenvalues --    1.34339   1.37023   1.37525   1.40682   1.43689
 Alpha virt. eigenvalues --    1.44838   1.46449   1.51857   1.52988   1.55206
 Alpha virt. eigenvalues --    1.57154   1.61028   1.61601   1.64681   1.68341
 Alpha virt. eigenvalues --    1.68808   1.72170   1.73191   1.76094   1.77222
 Alpha virt. eigenvalues --    1.78836   1.83128   1.83537   1.86013   1.87321
 Alpha virt. eigenvalues --    1.88314   1.89608   1.90802   1.92375   1.94885
 Alpha virt. eigenvalues --    1.98226   2.00833   2.04156   2.05241   2.11407
 Alpha virt. eigenvalues --    2.12788   2.13127   2.14766   2.18634   2.19041
 Alpha virt. eigenvalues --    2.22982   2.24259   2.25585   2.26545   2.28570
 Alpha virt. eigenvalues --    2.30304   2.33891   2.34541   2.36471   2.40296
 Alpha virt. eigenvalues --    2.41889   2.43863   2.45433   2.49015   2.51650
 Alpha virt. eigenvalues --    2.56183   2.57824   2.59417   2.61725   2.63265
 Alpha virt. eigenvalues --    2.67236   2.70100   2.71690   2.73487   2.75970
 Alpha virt. eigenvalues --    2.80216   2.84394   2.84637   2.87854   2.90469
 Alpha virt. eigenvalues --    2.95243   2.95712   3.01222   3.03710   3.08580
 Alpha virt. eigenvalues --    3.11061   3.12447   3.13424   3.19155   3.23168
 Alpha virt. eigenvalues --    3.27960   3.35303   3.42196   3.54154   3.57707
 Alpha virt. eigenvalues --    3.72414   4.30555
          Condensed to atoms (all electrons):
 Mulliken charges:
               1
     1  C    0.866877
     2  N   -0.424897
     3  C    0.736637
     4  C   -0.608838
     5  C    0.481471
     6  C    0.774764
     7  N   -0.621985
     8  H   -0.071791
     9  H   -0.170352
    10  H   -0.161591
    11  H   -0.350358
    12  H   -0.077737
    13  H   -0.076156
    14  H   -0.072603
    15  H   -0.223441
 Sum of Mulliken charges =  -0.00000
 Mulliken charges with hydrogens summed into heavy atoms:
               1
     1  C    0.463144
     2  N   -0.424897
     3  C    0.386279
     4  C   -0.608838
     5  C    0.254974
     6  C    0.551323
     7  N   -0.621985
 Electronic spatial extent (au):  <R**2>=            675.7980
 Charge=             -0.0000 electrons
 Dipole moment (field-independent basis, Debye):
    X=             -1.0591    Y=             -2.4298    Z=             -2.7164  Tot=              3.7953
 NROrb=    233 NOA=    26 NOB=    26 NVA=   207 NVB=   207

 **** Warning!!: The largest alpha MO coefficient is  0.45485353D+02

    12 initial guesses have been made.
 Iteration     1 Dimension    12 NMult     0 NNew     12
 Iteration     2 Dimension    24 NMult    12 NNew     12
 Iteration     3 Dimension    27 NMult    24 NNew      3
 Iteration     4 Dimension    30 NMult    27 NNew      3
 Iteration     5 Dimension    33 NMult    30 NNew      3
 Iteration     6 Dimension    36 NMult    33 NNew      3
 Iteration     7 Dimension    39 NMult    36 NNew      3
 ***********************************************************************
 Stability analysis using <AA,BB:AA,BB> singles matrix:
 ***********************************************************************
 Ground to excited state transition densities written to RWF  633

 Eigenvectors of the stability matrix:
 
 Excited state symmetry could not be determined.
 Eigenvector   1:      Singlet-?Sym  Eigenvalue= 0.1687879  <S**2>=0.000
      25 -> 35         0.17656
      25 -> 36         0.12342
      25 -> 37        -0.16577
      26 -> 34         0.11789
      26 -> 35         0.31718
      26 -> 36         0.19948
      26 -> 37        -0.25419
      26 -> 38        -0.10010
      26 -> 39        -0.10480
 The wavefunction is stable under the perturbations considered.
 The wavefunction is already stable.

 **********************************************************************

            Population analysis using the SCF Density.

 **********************************************************************

 Alpha  occ. eigenvalues --  -15.62503 -15.61964 -11.30014 -11.28232 -11.27763
 Alpha  occ. eigenvalues --  -11.25418 -11.22477  -1.39108  -1.13250  -1.10219
 Alpha  occ. eigenvalues --   -0.95293  -0.92505  -0.80657  -0.77482  -0.70839
 Alpha  occ. eigenvalues --   -0.66155  -0.61494  -0.59060  -0.58188  -0.57143
 Alpha  occ. eigenvalues --   -0.55398  -0.53795  -0.46930  -0.42209  -0.35192
 Alpha  occ. eigenvalues --   -0.33666
 Alpha virt. eigenvalues --    0.02843   0.04176   0.04419   0.05097   0.06188
 Alpha virt. eigenvalues --    0.06667   0.07528   0.07782   0.09590   0.10688
 Alpha virt. eigenvalues --    0.11783   0.12570   0.13019   0.13670   0.13874
 Alpha virt. eigenvalues --    0.15017   0.15838   0.16246   0.16807   0.16997
 Alpha virt. eigenvalues --    0.17302   0.17756   0.18508   0.19448   0.19710
 Alpha virt. eigenvalues --    0.20766   0.21356   0.23217   0.24707   0.25224
 Alpha virt. eigenvalues --    0.27112   0.27643   0.28669   0.29263   0.30303
 Alpha virt. eigenvalues --    0.30716   0.31114   0.32831   0.34095   0.34240
 Alpha virt. eigenvalues --    0.36116   0.36960   0.37400   0.38424   0.39591
 Alpha virt. eigenvalues --    0.40524   0.42179   0.42402   0.43568   0.44327
 Alpha virt. eigenvalues --    0.44761   0.45408   0.46395   0.46842   0.47836
 Alpha virt. eigenvalues --    0.49287   0.50525   0.51497   0.52343   0.54288
 Alpha virt. eigenvalues --    0.54846   0.55754   0.56776   0.57550   0.57883
 Alpha virt. eigenvalues --    0.58672   0.59904   0.60995   0.61357   0.62551
 Alpha virt. eigenvalues --    0.62884   0.64270   0.64912   0.65607   0.66342
 Alpha virt. eigenvalues --    0.66794   0.68043   0.69234   0.69865   0.71096
 Alpha virt. eigenvalues --    0.72242   0.72902   0.74115   0.74656   0.75337
 Alpha virt. eigenvalues --    0.77100   0.77380   0.78437   0.78973   0.80219
 Alpha virt. eigenvalues --    0.81045   0.82897   0.84669   0.86812   0.87473
 Alpha virt. eigenvalues --    0.87819   0.89476   0.90632   0.91371   0.93809
 Alpha virt. eigenvalues --    0.94786   0.96995   0.98285   1.00325   1.02009
 Alpha virt. eigenvalues --    1.02744   1.04157   1.06535   1.07941   1.10442
 Alpha virt. eigenvalues --    1.12289   1.14593   1.16042   1.18721   1.19983
 Alpha virt. eigenvalues --    1.24374   1.24655   1.28444   1.28920   1.33002
 Alpha virt. eigenvalues --    1.34339   1.37023   1.37525   1.40682   1.43689
 Alpha virt. eigenvalues --    1.44838   1.46449   1.51857   1.52988   1.55206
 Alpha virt. eigenvalues --    1.57154   1.61028   1.61601   1.64681   1.68341
 Alpha virt. eigenvalues --    1.68808   1.72170   1.73191   1.76094   1.77222
 Alpha virt. eigenvalues --    1.78836   1.83128   1.83537   1.86013   1.87321
 Alpha virt. eigenvalues --    1.88314   1.89608   1.90802   1.92375   1.94885
 Alpha virt. eigenvalues --    1.98226   2.00833   2.04156   2.05241   2.11407
 Alpha virt. eigenvalues --    2.12788   2.13127   2.14766   2.18634   2.19041
 Alpha virt. eigenvalues --    2.22982   2.24259   2.25585   2.26545   2.28570
 Alpha virt. eigenvalues --    2.30304   2.33891   2.34541   2.36471   2.40296
 Alpha virt. eigenvalues --    2.41889   2.43863   2.45433   2.49015   2.51650
 Alpha virt. eigenvalues --    2.56183   2.57824   2.59417   2.61725   2.63265
 Alpha virt. eigenvalues --    2.67236   2.70100   2.71690   2.73487   2.75970
 Alpha virt. eigenvalues --    2.80216   2.84394   2.84637   2.87854   2.90469
 Alpha virt. eigenvalues --    2.95243   2.95712   3.01222   3.03710   3.08580
 Alpha virt. eigenvalues --    3.11061   3.12447   3.13424   3.19155   3.23168
 Alpha virt. eigenvalues --    3.27960   3.35303   3.42196   3.54154   3.57707
 Alpha virt. eigenvalues --    3.72414   4.30555
          Condensed to atoms (all electrons):
 Mulliken charges:
               1
     1  C    0.866877
     2  N   -0.424897
     3  C    0.736637
     4  C   -0.608838
     5  C    0.481471
     6  C    0.774764
     7  N   -0.621985
     8  H   -0.071791
     9  H   -0.170352
    10  H   -0.161591
    11  H   -0.350358
    12  H   -0.077737
    13  H   -0.076156
    14  H   -0.072603
    15  H   -0.223441
 Sum of Mulliken charges =  -0.00000
 Mulliken charges with hydrogens summed into heavy atoms:
               1
     1  C    0.463144
     2  N   -0.424897
     3  C    0.386279
     4  C   -0.608838
     5  C    0.254974
     6  C    0.551323
     7  N   -0.621985
 Electronic spatial extent (au):  <R**2>=            675.7980
 Charge=             -0.0000 electrons
 Dipole moment (field-independent basis, Debye):
    X=             -1.0591    Y=             -2.4298    Z=             -2.7164  Tot=              3.7953
 Unable to Open any file for archive entry.
 1\1\GINC-SE044\Stability\RHF\Aug-CC-pVDZ\C5H8N2\OHZDE\09-Apr-2025\0\\#
 t hf aug-cc-pvdz symm=none int=(grid=ultrafine) guess=(read,tcheck) st
 able=(opt,rrhf)\\title\\0,1\C,0,-1.9351852,-0.43590679,-0.63452525\N,0
 ,-0.90437178,0.08630555,0.22361517\C,0,0.23180547,-0.56926808,0.677165
 17\C,0,1.13422767,0.3536484,1.27248122\C,0,1.62359763,-0.46450407,-0.3
 9470948\C,0,0.43589668,1.58608604,0.90354434\N,0,-0.72361241,1.4100428
 6,0.33094909\H,0,-1.64596182,-0.3972943,-1.69026774\H,0,-2.84163132,0.
 15020151,-0.49799912\H,0,-2.13709813,-1.47167774,-0.36153691\H,0,0.151
 9468,-1.63028391,0.87596278\H,0,2.34088167,0.34637996,-0.43695898\H,0,
 1.06658275,-0.47650343,-1.33447599\H,0,2.15291576,-1.39389519,-0.22237
 059\H,0,0.75511823,2.59460819,1.1268133\\Version=ES64L-G16RevC.01\HF=-
 302.7509155\RMSD=7.687e-09\Dipole=-0.4166937,-0.9559437,-1.0687102\Qua
 drupole=0.579365,2.0829908,-2.6623558,2.0080203,-2.7466739,0.1194854\P
 G=Unknown\\@
 The archive entry for this job was punched.


 MY DESCRIPTION OF EXPERIENCE IS NOT WHAT HAPPENS
 TO A MAN.  EXPERIENCE IS WHAT A MAN DOES WITH WHAT
 HAPPENS TO HIM.
                         - CHUCK KNOX, SEATTLE SEAHAWKS, 1985
 Job cpu time:       0 days  0 hours  8 minutes 28.3 seconds.
 Elapsed time:       0 days  0 hours  0 minutes 36.3 seconds.
 File lengths (MBytes):  RWF=    239 Int=      0 D2E=      0 Chk=      8 Scr=      1
 Normal termination of Gaussian 16 at Wed Apr  9 04:05:52 2025.
 Initial command:
 /arc/software/Gaussian/g16.c01/l1.exe "/tmp/slurm/4870453/Gau-148031.inp" -scrdir="/tmp/slurm/4870453/"
 Entering Link 1 = /arc/software/Gaussian/g16.c01/l1.exe PID=    148247.
  
 Copyright (c) 1988-2019, Gaussian, Inc.  All Rights Reserved.
  
 This is part of the Gaussian(R) 16 program.  It is based on
 the Gaussian(R) 09 system (copyright 2009, Gaussian, Inc.),
 the Gaussian(R) 03 system (copyright 2003, Gaussian, Inc.),
 the Gaussian(R) 98 system (copyright 1998, Gaussian, Inc.),
 the Gaussian(R) 94 system (copyright 1995, Gaussian, Inc.),
 the Gaussian 92(TM) system (copyright 1992, Gaussian, Inc.),
 the Gaussian 90(TM) system (copyright 1990, Gaussian, Inc.),
 the Gaussian 88(TM) system (copyright 1988, Gaussian, Inc.),
 the Gaussian 86(TM) system (copyright 1986, Carnegie Mellon
 University), and the Gaussian 82(TM) system (copyright 1983,
 Carnegie Mellon University). Gaussian is a federally registered
 trademark of Gaussian, Inc.
  
 This software contains proprietary and confidential information,
 including trade secrets, belonging to Gaussian, Inc.
  
 This software is provided under written license and may be
 used, copied, transmitted, or stored only in accord with that
 written license.
  
 The following legend is applicable only to US Government
 contracts under FAR:
  
                    RESTRICTED RIGHTS LEGEND
  
 Use, reproduction and disclosure by the US Government is
 subject to restrictions as set forth in subparagraphs (a)
 and (c) of the Commercial Computer Software - Restricted
 Rights clause in FAR 52.227-19.
  
 Gaussian, Inc.
 340 Quinnipiac St., Bldg. 40, Wallingford CT 06492
  
  
 ---------------------------------------------------------------
 Warning -- This program may not be used in any manner that
 competes with the business of Gaussian, Inc. or will provide
 assistance to any competitor of Gaussian, Inc.  The licensee
 of this program is prohibited from giving any competitor of
 Gaussian, Inc. access to this program.  By using this program,
 the user acknowledges that Gaussian, Inc. is engaged in the
 business of creating and licensing software in the field of
 computational chemistry and represents and warrants to the
 licensee that it is not a competitor of Gaussian, Inc. and that
 it will not use this program in any manner prohibited above.
 ---------------------------------------------------------------
  

 Cite this work as:
 Gaussian 16, Revision C.01,
 M. J. Frisch, G. W. Trucks, H. B. Schlegel, G. E. Scuseria, 
 M. A. Robb, J. R. Cheeseman, G. Scalmani, V. Barone, 
 G. A. Petersson, H. Nakatsuji, X. Li, M. Caricato, A. V. Marenich, 
 J. Bloino, B. G. Janesko, R. Gomperts, B. Mennucci, H. P. Hratchian, 
 J. V. Ortiz, A. F. Izmaylov, J. L. Sonnenberg, D. Williams-Young, 
 F. Ding, F. Lipparini, F. Egidi, J. Goings, B. Peng, A. Petrone, 
 T. Henderson, D. Ranasinghe, V. G. Zakrzewski, J. Gao, N. Rega, 
 G. Zheng, W. Liang, M. Hada, M. Ehara, K. Toyota, R. Fukuda, 
 J. Hasegawa, M. Ishida, T. Nakajima, Y. Honda, O. Kitao, H. Nakai, 
 T. Vreven, K. Throssell, J. A. Montgomery, Jr., J. E. Peralta, 
 F. Ogliaro, M. J. Bearpark, J. J. Heyd, E. N. Brothers, K. N. Kudin, 
 V. N. Staroverov, T. A. Keith, R. Kobayashi, J. Normand, 
 K. Raghavachari, A. P. Rendell, J. C. Burant, S. S. Iyengar, 
 J. Tomasi, M. Cossi, J. M. Millam, M. Klene, C. Adamo, R. Cammi, 
 J. W. Ochterski, R. L. Martin, K. Morokuma, O. Farkas, 
 J. B. Foresman, and D. J. Fox, Gaussian, Inc., Wallingford CT, 2019.
 
 ******************************************
 Gaussian 16:  ES64L-G16RevC.01  3-Jul-2019
                 9-Apr-2025 
 ******************************************
 %nprocs=16
 Will use up to   16 processors via shared memory.
 %mem=30GB
 %chk=Grambow2020_wb97xd3_009342_forward_mol1.chk
 ----------------------------------------------------------------------
 #t hf aug-cc-pvdz iop(5/13=1,5/36=2,99/5=2) pseudo=read geom=check gue
 ss=(read,tcheck) scf=(maxcycle=1)
 ----------------------------------------------------------------------
 -----
 title
 -----
 Structure from the checkpoint file:  "Grambow2020_wb97xd3_009342_forward_mol1.chk"
 Charge =  0 Multiplicity = 1
 Z-Matrix found in chk file.
 C,0,-1.9351852,-0.43590679,-0.63452525
 N,0,-0.90437178,0.08630555,0.22361517
 C,0,0.23180547,-0.56926808,0.67716517
 C,0,1.13422767,0.3536484,1.27248122
 C,0,1.62359763,-0.46450407,-0.39470948
 C,0,0.43589668,1.58608604,0.90354434
 N,0,-0.72361241,1.41004286,0.33094909
 H,0,-1.64596182,-0.3972943,-1.69026774
 H,0,-2.84163132,0.15020151,-0.49799912
 H,0,-2.13709813,-1.47167774,-0.36153691
 H,0,0.1519468,-1.63028391,0.87596278
 H,0,2.34088167,0.34637996,-0.43695898
 H,0,1.06658275,-0.47650343,-1.33447599
 H,0,2.15291576,-1.39389519,-0.22237059
 H,0,0.75511823,2.59460819,1.1268133
 Recover connectivity data from disk.
                    Distance matrix (angstroms):
                    1          2          3          4          5
     1  C    0.000000
     2  N    1.439336   0.000000
     3  C    2.536566   1.387942   0.000000
     4  C    3.698833   2.308133   1.421458   0.000000
     5  C    3.566969   2.660140   1.759823   1.920516   0.000000
     6  C    3.475074   2.123197   2.176799   1.463791   2.702039
     7  N    2.409892   1.340326   2.224941   2.335385   3.090291
     8  H    1.095323   2.108737   3.026603   4.131737   3.517529
     9  H    1.088029   2.068281   3.368184   4.357000   4.508525
    10  H    1.090006   2.071070   2.739516   4.086980   3.893370
    11  H    2.839759   2.118501   1.082429   2.249020   2.267026
    12  H    4.351523   3.321997   2.554973   2.092427   1.083427
    13  H    3.082562   2.574697   2.179945   2.736778   1.092507
    14  H    4.219026   3.425917   2.275926   2.515197   1.083350
    15  H    4.418605   3.140264   3.238233   2.277464   3.525260
                    6          7          8          9         10
     6  C    0.000000
     7  N    1.305112   0.000000
     8  H    3.872440   2.864003   0.000000
     9  H    3.842952   2.600069   1.775072   0.000000
    10  H    4.191736   3.283564   1.777931   1.773550   0.000000
    11  H    3.228997   3.210488   3.367236   3.744250   2.606969
    12  H    2.638710   3.333494   4.244850   5.186584   4.833562
    13  H    3.108179   3.088284   2.736925   4.045564   3.492929
    14  H    3.618857   4.054953   4.192780   5.235046   4.292975
    15  H    1.081142   2.055052   4.759476   4.642386   5.207186
                   11         12         13         14         15
    11  H    0.000000
    12  H    3.228374   0.000000
    13  H    2.655901   1.762530   0.000000
    14  H    2.294797   1.763501   1.805133   0.000000
    15  H    4.275097   3.164579   3.947997   4.436473   0.000000
 Framework group  C1[X(C5H8N2)]
 Deg. of freedom    39
                         Standard orientation:                         
 ---------------------------------------------------------------------
 Center     Atomic      Atomic             Coordinates (Angstroms)
 Number     Number       Type             X           Y           Z
 ---------------------------------------------------------------------
      1          6           0        2.123453   -0.456888    0.114700
      2          7           0        0.832678    0.091395   -0.209293
      3          6           0       -0.283257   -0.589632   -0.675419
      4          6           0       -1.433993    0.242840   -0.617640
      5          6           0       -1.321965   -1.254223    0.580122
      6          6           0       -0.837275    1.362515    0.112387
      7          7           0        0.448581    1.264458    0.313075
      8          1           0        2.137336   -0.905686    1.113760
      9          1           0        2.866224    0.337269    0.077099
     10          1           0        2.382030   -1.220500   -0.618884
     11          1           0       -0.116544   -1.434348   -1.331402
     12          1           0       -2.103684   -0.725407    1.112176
     13          1           0       -0.529084   -1.496757    1.291521
     14          1           0       -1.745027   -2.140627    0.123008
     15          1           0       -1.341842    2.267404    0.421348
 ---------------------------------------------------------------------
 Rotational constants (GHZ):           4.5658159           2.9251761           2.1253695
 ======================================================================================================
                                       Pseudopotential Parameters
 ======================================================================================================
  Center     Atomic      Valence      Angular      Power
  Number     Number     Electrons     Momentum     of R      Exponent        Coefficient   SO-Coeffient
 ======================================================================================================
    1          6            6
                                      G and up 
                                                     0        0.0000010       -0.00011185    0.00000000
                                                     2        0.1200000       -0.02301220    0.00000000
                                                     2        0.1400000        0.13317600    0.00000000
                                                     2        0.1600000       -0.19690668    0.00000000
                                                     2        0.2200000        0.23163694    0.00000000
                                                     2        0.3000000       -0.36920489    0.00000000
                                                     2        0.4000000        0.36389709    0.00000000
                                                     2        0.7000000       -0.38862160    0.00000000
                                                     2        1.3000000        0.80803421    0.00000000
                                      S - G
                                                     0        0.0000010        0.00312304    0.00000000
                                                     2        0.1200000       -0.00632892    0.00000000
                                                     2        0.2200000       -0.03780897    0.00000000
                                                     2        0.4000000        0.26269560    0.00000000
                                                     2        0.9000000       -0.28209514    0.00000000
                                                     2        1.5000000       -0.72686737    0.00000000
                                      P - G
                                                     0        0.0000010       -0.01465594    0.00000000
                                                     2        0.1200000        0.07908409    0.00000000
                                                     2        0.1800000       -0.30615861    0.00000000
                                                     2        0.2600000        0.41506950    0.00000000
                                                     2        0.5000000       -0.36252345    0.00000000
                                                     2        0.9000000        0.15124193    0.00000000
                                                     2        3.0000000       -0.80425677    0.00000000
                                      D - G
                                                     0        0.0000010        0.01149631    0.00000000
                                                     2        0.1200000       -0.04713561    0.00000000
                                                     2        0.1600000        0.10865096    0.00000000
                                                     2        0.2800000       -0.15816701    0.00000000
                                                     2        0.7000000        0.65478804    0.00000000
                                                     2        1.3000000       -1.73816624    0.00000000
                                      F - G
                                                     0        0.0000010        0.00481868    0.00000000
                                                     2        0.1200000       -0.04746842    0.00000000
                                                     2        0.1600000        0.09327889    0.00000000
                                                     2        0.4000000       -0.19693326    0.00000000
                                                     2        0.9000000        0.34938253    0.00000000
    2          7            7
                                      G and up 
                                                     0        0.0000010       -0.00000022    0.00000000
                                                     2        0.1200000       -0.00992020    0.00000000
                                                     2        0.1400000        0.02578711    0.00000000
                                                     2        0.2200000       -0.10543517    0.00000000
                                                     2        0.3000000        0.23013665    0.00000000
                                                     2        0.5000000       -0.60834094    0.00000000
                                                     2        0.8000000        1.81436815    0.00000000
                                                     2        1.2000000       -3.87539738    0.00000000
                                                     2        2.0000000        2.94656640    0.00000000
                                      S - G
                                                     0        0.0000010       -0.00223566    0.00000000
                                                     2        0.1200000        0.45247937    0.00000000
                                                     2        0.1600000       -0.78978304    0.00000000
                                                     2        0.4000000        0.84956595    0.00000000
                                                     2        3.0000000       -0.75910174    0.00000000
                                      P - G
                                                     0        0.0000010       -0.25576737    0.00000000
                                                     2        0.1200000       -0.19992277    0.00000000
                                                     2        0.1600000        0.88518512    0.00000000
                                                     2        0.2400000       -1.33293917    0.00000000
                                                     2        0.4000000        1.33451776    0.00000000
                                                     2        0.9000000       -0.55709210    0.00000000
                                                     2        2.5000000        2.48506502    0.00000000
                                      D - G
                                                     0        0.0000010        0.26143746    0.00000000
                                                     2        0.1200000       -0.04492212    0.00000000
                                                     2        0.1400000       -0.18274021    0.00000000
                                                     2        0.2400000        0.53490004    0.00000000
                                                     2        0.4000000       -0.74136473    0.00000000
                                                     2        1.3000000        1.71401021    0.00000000
                                      F - G
                                                     0        0.0000010       -0.07169988    0.00000000
                                                     2        0.1200000        0.04480029    0.00000000
                                                     2        0.2600000       -0.08050831    0.00000000
                                                     2        0.5000000        0.31290809    0.00000000
                                                     2        1.0000000       -0.45253098    0.00000000
    3          6            6
                                      G and up 
                                                     0        0.0000010       -0.00011185    0.00000000
                                                     2        0.1200000       -0.02301220    0.00000000
                                                     2        0.1400000        0.13317600    0.00000000
                                                     2        0.1600000       -0.19690668    0.00000000
                                                     2        0.2200000        0.23163694    0.00000000
                                                     2        0.3000000       -0.36920489    0.00000000
                                                     2        0.4000000        0.36389709    0.00000000
                                                     2        0.7000000       -0.38862160    0.00000000
                                                     2        1.3000000        0.80803421    0.00000000
                                      S - G
                                                     0        0.0000010        0.00312304    0.00000000
                                                     2        0.1200000       -0.00632892    0.00000000
                                                     2        0.2200000       -0.03780897    0.00000000
                                                     2        0.4000000        0.26269560    0.00000000
                                                     2        0.9000000       -0.28209514    0.00000000
                                                     2        1.5000000       -0.72686737    0.00000000
                                      P - G
                                                     0        0.0000010       -0.01465594    0.00000000
                                                     2        0.1200000        0.07908409    0.00000000
                                                     2        0.1800000       -0.30615861    0.00000000
                                                     2        0.2600000        0.41506950    0.00000000
                                                     2        0.5000000       -0.36252345    0.00000000
                                                     2        0.9000000        0.15124193    0.00000000
                                                     2        3.0000000       -0.80425677    0.00000000
                                      D - G
                                                     0        0.0000010        0.01149631    0.00000000
                                                     2        0.1200000       -0.04713561    0.00000000
                                                     2        0.1600000        0.10865096    0.00000000
                                                     2        0.2800000       -0.15816701    0.00000000
                                                     2        0.7000000        0.65478804    0.00000000
                                                     2        1.3000000       -1.73816624    0.00000000
                                      F - G
                                                     0        0.0000010        0.00481868    0.00000000
                                                     2        0.1200000       -0.04746842    0.00000000
                                                     2        0.1600000        0.09327889    0.00000000
                                                     2        0.4000000       -0.19693326    0.00000000
                                                     2        0.9000000        0.34938253    0.00000000
    4          6            6
                                      G and up 
                                                     0        0.0000010       -0.00011185    0.00000000
                                                     2        0.1200000       -0.02301220    0.00000000
                                                     2        0.1400000        0.13317600    0.00000000
                                                     2        0.1600000       -0.19690668    0.00000000
                                                     2        0.2200000        0.23163694    0.00000000
                                                     2        0.3000000       -0.36920489    0.00000000
                                                     2        0.4000000        0.36389709    0.00000000
                                                     2        0.7000000       -0.38862160    0.00000000
                                                     2        1.3000000        0.80803421    0.00000000
                                      S - G
                                                     0        0.0000010        0.00312304    0.00000000
                                                     2        0.1200000       -0.00632892    0.00000000
                                                     2        0.2200000       -0.03780897    0.00000000
                                                     2        0.4000000        0.26269560    0.00000000
                                                     2        0.9000000       -0.28209514    0.00000000
                                                     2        1.5000000       -0.72686737    0.00000000
                                      P - G
                                                     0        0.0000010       -0.01465594    0.00000000
                                                     2        0.1200000        0.07908409    0.00000000
                                                     2        0.1800000       -0.30615861    0.00000000
                                                     2        0.2600000        0.41506950    0.00000000
                                                     2        0.5000000       -0.36252345    0.00000000
                                                     2        0.9000000        0.15124193    0.00000000
                                                     2        3.0000000       -0.80425677    0.00000000
                                      D - G
                                                     0        0.0000010        0.01149631    0.00000000
                                                     2        0.1200000       -0.04713561    0.00000000
                                                     2        0.1600000        0.10865096    0.00000000
                                                     2        0.2800000       -0.15816701    0.00000000
                                                     2        0.7000000        0.65478804    0.00000000
                                                     2        1.3000000       -1.73816624    0.00000000
                                      F - G
                                                     0        0.0000010        0.00481868    0.00000000
                                                     2        0.1200000       -0.04746842    0.00000000
                                                     2        0.1600000        0.09327889    0.00000000
                                                     2        0.4000000       -0.19693326    0.00000000
                                                     2        0.9000000        0.34938253    0.00000000
    5          6            6
                                      G and up 
                                                     0        0.0000010       -0.00011185    0.00000000
                                                     2        0.1200000       -0.02301220    0.00000000
                                                     2        0.1400000        0.13317600    0.00000000
                                                     2        0.1600000       -0.19690668    0.00000000
                                                     2        0.2200000        0.23163694    0.00000000
                                                     2        0.3000000       -0.36920489    0.00000000
                                                     2        0.4000000        0.36389709    0.00000000
                                                     2        0.7000000       -0.38862160    0.00000000
                                                     2        1.3000000        0.80803421    0.00000000
                                      S - G
                                                     0        0.0000010        0.00312304    0.00000000
                                                     2        0.1200000       -0.00632892    0.00000000
                                                     2        0.2200000       -0.03780897    0.00000000
                                                     2        0.4000000        0.26269560    0.00000000
                                                     2        0.9000000       -0.28209514    0.00000000
                                                     2        1.5000000       -0.72686737    0.00000000
                                      P - G
                                                     0        0.0000010       -0.01465594    0.00000000
                                                     2        0.1200000        0.07908409    0.00000000
                                                     2        0.1800000       -0.30615861    0.00000000
                                                     2        0.2600000        0.41506950    0.00000000
                                                     2        0.5000000       -0.36252345    0.00000000
                                                     2        0.9000000        0.15124193    0.00000000
                                                     2        3.0000000       -0.80425677    0.00000000
                                      D - G
                                                     0        0.0000010        0.01149631    0.00000000
                                                     2        0.1200000       -0.04713561    0.00000000
                                                     2        0.1600000        0.10865096    0.00000000
                                                     2        0.2800000       -0.15816701    0.00000000
                                                     2        0.7000000        0.65478804    0.00000000
                                                     2        1.3000000       -1.73816624    0.00000000
                                      F - G
                                                     0        0.0000010        0.00481868    0.00000000
                                                     2        0.1200000       -0.04746842    0.00000000
                                                     2        0.1600000        0.09327889    0.00000000
                                                     2        0.4000000       -0.19693326    0.00000000
                                                     2        0.9000000        0.34938253    0.00000000
    6          6            6
                                      G and up 
                                                     0        0.0000010       -0.00011185    0.00000000
                                                     2        0.1200000       -0.02301220    0.00000000
                                                     2        0.1400000        0.13317600    0.00000000
                                                     2        0.1600000       -0.19690668    0.00000000
                                                     2        0.2200000        0.23163694    0.00000000
                                                     2        0.3000000       -0.36920489    0.00000000
                                                     2        0.4000000        0.36389709    0.00000000
                                                     2        0.7000000       -0.38862160    0.00000000
                                                     2        1.3000000        0.80803421    0.00000000
                                      S - G
                                                     0        0.0000010        0.00312304    0.00000000
                                                     2        0.1200000       -0.00632892    0.00000000
                                                     2        0.2200000       -0.03780897    0.00000000
                                                     2        0.4000000        0.26269560    0.00000000
                                                     2        0.9000000       -0.28209514    0.00000000
                                                     2        1.5000000       -0.72686737    0.00000000
                                      P - G
                                                     0        0.0000010       -0.01465594    0.00000000
                                                     2        0.1200000        0.07908409    0.00000000
                                                     2        0.1800000       -0.30615861    0.00000000
                                                     2        0.2600000        0.41506950    0.00000000
                                                     2        0.5000000       -0.36252345    0.00000000
                                                     2        0.9000000        0.15124193    0.00000000
                                                     2        3.0000000       -0.80425677    0.00000000
                                      D - G
                                                     0        0.0000010        0.01149631    0.00000000
                                                     2        0.1200000       -0.04713561    0.00000000
                                                     2        0.1600000        0.10865096    0.00000000
                                                     2        0.2800000       -0.15816701    0.00000000
                                                     2        0.7000000        0.65478804    0.00000000
                                                     2        1.3000000       -1.73816624    0.00000000
                                      F - G
                                                     0        0.0000010        0.00481868    0.00000000
                                                     2        0.1200000       -0.04746842    0.00000000
                                                     2        0.1600000        0.09327889    0.00000000
                                                     2        0.4000000       -0.19693326    0.00000000
                                                     2        0.9000000        0.34938253    0.00000000
    7          7            7
                                      G and up 
                                                     0        0.0000010       -0.00000022    0.00000000
                                                     2        0.1200000       -0.00992020    0.00000000
                                                     2        0.1400000        0.02578711    0.00000000
                                                     2        0.2200000       -0.10543517    0.00000000
                                                     2        0.3000000        0.23013665    0.00000000
                                                     2        0.5000000       -0.60834094    0.00000000
                                                     2        0.8000000        1.81436815    0.00000000
                                                     2        1.2000000       -3.87539738    0.00000000
                                                     2        2.0000000        2.94656640    0.00000000
                                      S - G
                                                     0        0.0000010       -0.00223566    0.00000000
                                                     2        0.1200000        0.45247937    0.00000000
                                                     2        0.1600000       -0.78978304    0.00000000
                                                     2        0.4000000        0.84956595    0.00000000
                                                     2        3.0000000       -0.75910174    0.00000000
                                      P - G
                                                     0        0.0000010       -0.25576737    0.00000000
                                                     2        0.1200000       -0.19992277    0.00000000
                                                     2        0.1600000        0.88518512    0.00000000
                                                     2        0.2400000       -1.33293917    0.00000000
                                                     2        0.4000000        1.33451776    0.00000000
                                                     2        0.9000000       -0.55709210    0.00000000
                                                     2        2.5000000        2.48506502    0.00000000
                                      D - G
                                                     0        0.0000010        0.26143746    0.00000000
                                                     2        0.1200000       -0.04492212    0.00000000
                                                     2        0.1400000       -0.18274021    0.00000000
                                                     2        0.2400000        0.53490004    0.00000000
                                                     2        0.4000000       -0.74136473    0.00000000
                                                     2        1.3000000        1.71401021    0.00000000
                                      F - G
                                                     0        0.0000010       -0.07169988    0.00000000
                                                     2        0.1200000        0.04480029    0.00000000
                                                     2        0.2600000       -0.08050831    0.00000000
                                                     2        0.5000000        0.31290809    0.00000000
                                                     2        1.0000000       -0.45253098    0.00000000
    8          1            1
                                      F and up 
                                                     0        0.0000010       -0.00000699    0.00000000
                                                     2        0.1200000        0.00123686    0.00000000
                                                     2        0.1800000       -0.00752022    0.00000000
                                                     2        0.2600000        0.02503380    0.00000000
                                                     2        0.4000000       -0.08702670    0.00000000
                                                     2        0.6000000        0.30134159    0.00000000
                                                     2        0.8000000       -0.50204959    0.00000000
                                                     2        1.2000000        0.52208372    0.00000000
                                      S - F
                                                     0        0.0000010       -0.01618346    0.00000000
                                                     2        0.1200000       -0.07880581    0.00000000
                                                     2        0.1600000        0.32040539    0.00000000
                                                     2        0.2400000       -0.47500956    0.00000000
                                                     2        0.5000000        0.54013668    0.00000000
                                                     2        1.5000000       -1.40434292    0.00000000
                                                     2        3.0000000        1.46283806    0.00000000
                                      P - F
                                                     0        0.0000010        0.00612970    0.00000000
                                                     2        0.1200000        0.02254406    0.00000000
                                                     2        0.1800000       -0.13874529    0.00000000
                                                     2        0.3000000        0.38299049    0.00000000
                                                     2        0.5000000       -0.57923512    0.00000000
                                                     2        1.0000000        0.63021625    0.00000000
                                                     2        2.0000000       -0.79201034    0.00000000
                                      D - F
                                                     0        0.0000010       -0.00296226    0.00000000
                                                     2        0.1200000       -0.00547344    0.00000000
                                                     2        0.1400000        0.01837884    0.00000000
                                                     2        0.2400000       -0.05565704    0.00000000
                                                     2        0.4000000        0.15376597    0.00000000
                                                     2        0.8000000       -0.32464795    0.00000000
    9          1            1
                                      F and up 
                                                     0        0.0000010       -0.00000699    0.00000000
                                                     2        0.1200000        0.00123686    0.00000000
                                                     2        0.1800000       -0.00752022    0.00000000
                                                     2        0.2600000        0.02503380    0.00000000
                                                     2        0.4000000       -0.08702670    0.00000000
                                                     2        0.6000000        0.30134159    0.00000000
                                                     2        0.8000000       -0.50204959    0.00000000
                                                     2        1.2000000        0.52208372    0.00000000
                                      S - F
                                                     0        0.0000010       -0.01618346    0.00000000
                                                     2        0.1200000       -0.07880581    0.00000000
                                                     2        0.1600000        0.32040539    0.00000000
                                                     2        0.2400000       -0.47500956    0.00000000
                                                     2        0.5000000        0.54013668    0.00000000
                                                     2        1.5000000       -1.40434292    0.00000000
                                                     2        3.0000000        1.46283806    0.00000000
                                      P - F
                                                     0        0.0000010        0.00612970    0.00000000
                                                     2        0.1200000        0.02254406    0.00000000
                                                     2        0.1800000       -0.13874529    0.00000000
                                                     2        0.3000000        0.38299049    0.00000000
                                                     2        0.5000000       -0.57923512    0.00000000
                                                     2        1.0000000        0.63021625    0.00000000
                                                     2        2.0000000       -0.79201034    0.00000000
                                      D - F
                                                     0        0.0000010       -0.00296226    0.00000000
                                                     2        0.1200000       -0.00547344    0.00000000
                                                     2        0.1400000        0.01837884    0.00000000
                                                     2        0.2400000       -0.05565704    0.00000000
                                                     2        0.4000000        0.15376597    0.00000000
                                                     2        0.8000000       -0.32464795    0.00000000
   10          1            1
                                      F and up 
                                                     0        0.0000010       -0.00000699    0.00000000
                                                     2        0.1200000        0.00123686    0.00000000
                                                     2        0.1800000       -0.00752022    0.00000000
                                                     2        0.2600000        0.02503380    0.00000000
                                                     2        0.4000000       -0.08702670    0.00000000
                                                     2        0.6000000        0.30134159    0.00000000
                                                     2        0.8000000       -0.50204959    0.00000000
                                                     2        1.2000000        0.52208372    0.00000000
                                      S - F
                                                     0        0.0000010       -0.01618346    0.00000000
                                                     2        0.1200000       -0.07880581    0.00000000
                                                     2        0.1600000        0.32040539    0.00000000
                                                     2        0.2400000       -0.47500956    0.00000000
                                                     2        0.5000000        0.54013668    0.00000000
                                                     2        1.5000000       -1.40434292    0.00000000
                                                     2        3.0000000        1.46283806    0.00000000
                                      P - F
                                                     0        0.0000010        0.00612970    0.00000000
                                                     2        0.1200000        0.02254406    0.00000000
                                                     2        0.1800000       -0.13874529    0.00000000
                                                     2        0.3000000        0.38299049    0.00000000
                                                     2        0.5000000       -0.57923512    0.00000000
                                                     2        1.0000000        0.63021625    0.00000000
                                                     2        2.0000000       -0.79201034    0.00000000
                                      D - F
                                                     0        0.0000010       -0.00296226    0.00000000
                                                     2        0.1200000       -0.00547344    0.00000000
                                                     2        0.1400000        0.01837884    0.00000000
                                                     2        0.2400000       -0.05565704    0.00000000
                                                     2        0.4000000        0.15376597    0.00000000
                                                     2        0.8000000       -0.32464795    0.00000000
   11          1            1
                                      F and up 
                                                     0        0.0000010       -0.00000699    0.00000000
                                                     2        0.1200000        0.00123686    0.00000000
                                                     2        0.1800000       -0.00752022    0.00000000
                                                     2        0.2600000        0.02503380    0.00000000
                                                     2        0.4000000       -0.08702670    0.00000000
                                                     2        0.6000000        0.30134159    0.00000000
                                                     2        0.8000000       -0.50204959    0.00000000
                                                     2        1.2000000        0.52208372    0.00000000
                                      S - F
                                                     0        0.0000010       -0.01618346    0.00000000
                                                     2        0.1200000       -0.07880581    0.00000000
                                                     2        0.1600000        0.32040539    0.00000000
                                                     2        0.2400000       -0.47500956    0.00000000
                                                     2        0.5000000        0.54013668    0.00000000
                                                     2        1.5000000       -1.40434292    0.00000000
                                                     2        3.0000000        1.46283806    0.00000000
                                      P - F
                                                     0        0.0000010        0.00612970    0.00000000
                                                     2        0.1200000        0.02254406    0.00000000
                                                     2        0.1800000       -0.13874529    0.00000000
                                                     2        0.3000000        0.38299049    0.00000000
                                                     2        0.5000000       -0.57923512    0.00000000
                                                     2        1.0000000        0.63021625    0.00000000
                                                     2        2.0000000       -0.79201034    0.00000000
                                      D - F
                                                     0        0.0000010       -0.00296226    0.00000000
                                                     2        0.1200000       -0.00547344    0.00000000
                                                     2        0.1400000        0.01837884    0.00000000
                                                     2        0.2400000       -0.05565704    0.00000000
                                                     2        0.4000000        0.15376597    0.00000000
                                                     2        0.8000000       -0.32464795    0.00000000
   12          1            1
                                      F and up 
                                                     0        0.0000010       -0.00000699    0.00000000
                                                     2        0.1200000        0.00123686    0.00000000
                                                     2        0.1800000       -0.00752022    0.00000000
                                                     2        0.2600000        0.02503380    0.00000000
                                                     2        0.4000000       -0.08702670    0.00000000
                                                     2        0.6000000        0.30134159    0.00000000
                                                     2        0.8000000       -0.50204959    0.00000000
                                                     2        1.2000000        0.52208372    0.00000000
                                      S - F
                                                     0        0.0000010       -0.01618346    0.00000000
                                                     2        0.1200000       -0.07880581    0.00000000
                                                     2        0.1600000        0.32040539    0.00000000
                                                     2        0.2400000       -0.47500956    0.00000000
                                                     2        0.5000000        0.54013668    0.00000000
                                                     2        1.5000000       -1.40434292    0.00000000
                                                     2        3.0000000        1.46283806    0.00000000
                                      P - F
                                                     0        0.0000010        0.00612970    0.00000000
                                                     2        0.1200000        0.02254406    0.00000000
                                                     2        0.1800000       -0.13874529    0.00000000
                                                     2        0.3000000        0.38299049    0.00000000
                                                     2        0.5000000       -0.57923512    0.00000000
                                                     2        1.0000000        0.63021625    0.00000000
                                                     2        2.0000000       -0.79201034    0.00000000
                                      D - F
                                                     0        0.0000010       -0.00296226    0.00000000
                                                     2        0.1200000       -0.00547344    0.00000000
                                                     2        0.1400000        0.01837884    0.00000000
                                                     2        0.2400000       -0.05565704    0.00000000
                                                     2        0.4000000        0.15376597    0.00000000
                                                     2        0.8000000       -0.32464795    0.00000000
   13          1            1
                                      F and up 
                                                     0        0.0000010       -0.00000699    0.00000000
                                                     2        0.1200000        0.00123686    0.00000000
                                                     2        0.1800000       -0.00752022    0.00000000
                                                     2        0.2600000        0.02503380    0.00000000
                                                     2        0.4000000       -0.08702670    0.00000000
                                                     2        0.6000000        0.30134159    0.00000000
                                                     2        0.8000000       -0.50204959    0.00000000
                                                     2        1.2000000        0.52208372    0.00000000
                                      S - F
                                                     0        0.0000010       -0.01618346    0.00000000
                                                     2        0.1200000       -0.07880581    0.00000000
                                                     2        0.1600000        0.32040539    0.00000000
                                                     2        0.2400000       -0.47500956    0.00000000
                                                     2        0.5000000        0.54013668    0.00000000
                                                     2        1.5000000       -1.40434292    0.00000000
                                                     2        3.0000000        1.46283806    0.00000000
                                      P - F
                                                     0        0.0000010        0.00612970    0.00000000
                                                     2        0.1200000        0.02254406    0.00000000
                                                     2        0.1800000       -0.13874529    0.00000000
                                                     2        0.3000000        0.38299049    0.00000000
                                                     2        0.5000000       -0.57923512    0.00000000
                                                     2        1.0000000        0.63021625    0.00000000
                                                     2        2.0000000       -0.79201034    0.00000000
                                      D - F
                                                     0        0.0000010       -0.00296226    0.00000000
                                                     2        0.1200000       -0.00547344    0.00000000
                                                     2        0.1400000        0.01837884    0.00000000
                                                     2        0.2400000       -0.05565704    0.00000000
                                                     2        0.4000000        0.15376597    0.00000000
                                                     2        0.8000000       -0.32464795    0.00000000
   14          1            1
                                      F and up 
                                                     0        0.0000010       -0.00000699    0.00000000
                                                     2        0.1200000        0.00123686    0.00000000
                                                     2        0.1800000       -0.00752022    0.00000000
                                                     2        0.2600000        0.02503380    0.00000000
                                                     2        0.4000000       -0.08702670    0.00000000
                                                     2        0.6000000        0.30134159    0.00000000
                                                     2        0.8000000       -0.50204959    0.00000000
                                                     2        1.2000000        0.52208372    0.00000000
                                      S - F
                                                     0        0.0000010       -0.01618346    0.00000000
                                                     2        0.1200000       -0.07880581    0.00000000
                                                     2        0.1600000        0.32040539    0.00000000
                                                     2        0.2400000       -0.47500956    0.00000000
                                                     2        0.5000000        0.54013668    0.00000000
                                                     2        1.5000000       -1.40434292    0.00000000
                                                     2        3.0000000        1.46283806    0.00000000
                                      P - F
                                                     0        0.0000010        0.00612970    0.00000000
                                                     2        0.1200000        0.02254406    0.00000000
                                                     2        0.1800000       -0.13874529    0.00000000
                                                     2        0.3000000        0.38299049    0.00000000
                                                     2        0.5000000       -0.57923512    0.00000000
                                                     2        1.0000000        0.63021625    0.00000000
                                                     2        2.0000000       -0.79201034    0.00000000
                                      D - F
                                                     0        0.0000010       -0.00296226    0.00000000
                                                     2        0.1200000       -0.00547344    0.00000000
                                                     2        0.1400000        0.01837884    0.00000000
                                                     2        0.2400000       -0.05565704    0.00000000
                                                     2        0.4000000        0.15376597    0.00000000
                                                     2        0.8000000       -0.32464795    0.00000000
   15          1            1
                                      F and up 
                                                     0        0.0000010       -0.00000699    0.00000000
                                                     2        0.1200000        0.00123686    0.00000000
                                                     2        0.1800000       -0.00752022    0.00000000
                                                     2        0.2600000        0.02503380    0.00000000
                                                     2        0.4000000       -0.08702670    0.00000000
                                                     2        0.6000000        0.30134159    0.00000000
                                                     2        0.8000000       -0.50204959    0.00000000
                                                     2        1.2000000        0.52208372    0.00000000
                                      S - F
                                                     0        0.0000010       -0.01618346    0.00000000
                                                     2        0.1200000       -0.07880581    0.00000000
                                                     2        0.1600000        0.32040539    0.00000000
                                                     2        0.2400000       -0.47500956    0.00000000
                                                     2        0.5000000        0.54013668    0.00000000
                                                     2        1.5000000       -1.40434292    0.00000000
                                                     2        3.0000000        1.46283806    0.00000000
                                      P - F
                                                     0        0.0000010        0.00612970    0.00000000
                                                     2        0.1200000        0.02254406    0.00000000
                                                     2        0.1800000       -0.13874529    0.00000000
                                                     2        0.3000000        0.38299049    0.00000000
                                                     2        0.5000000       -0.57923512    0.00000000
                                                     2        1.0000000        0.63021625    0.00000000
                                                     2        2.0000000       -0.79201034    0.00000000
                                      D - F
                                                     0        0.0000010       -0.00296226    0.00000000
                                                     2        0.1200000       -0.00547344    0.00000000
                                                     2        0.1400000        0.01837884    0.00000000
                                                     2        0.2400000       -0.05565704    0.00000000
                                                     2        0.4000000        0.15376597    0.00000000
                                                     2        0.8000000       -0.32464795    0.00000000
 ======================================================================================================
   233 basis functions,   389 primitive gaussians,   247 cartesian basis functions
    26 alpha electrons       26 beta electrons
       nuclear repulsion energy       301.6655628349 Hartrees.
 NAtoms=   15 NActive=   15 NUniq=   15 SFac= 1.00D+00 NAtFMM=   60 NAOKFM=F Big=F
   1 Symmetry operations used in ECPInt.
 ECPInt:  NShTT=    5356 NPrTT=   23992 LenC2=    5353 LenP2D=   19267.
 LDataN:  DoStor=T MaxTD1= 6 Len=  172
 Initial guess from the checkpoint file:  "Grambow2020_wb97xd3_009342_forward_mol1.chk"
 B after Tr=     0.089338   -0.552991    0.234113
         Rot=    0.122436   -0.098841    0.963772    0.215368 Ang=-165.93 deg.
 >>>>>>>>>> Convergence criterion not met.
 SCF Done:  E(RHF) =  -302.840115418     A.U. after    2 cycles
            NFock=  1  Conv=0.38D-02     -V/T= 2.0013

 **********************************************************************

            Population analysis using the SCF Density.

 **********************************************************************

 Orbital symmetries:
       Occupied  (A) (A) (A) (A) (A) (A) (A) (A) (A) (A) (A) (A)
                 (A) (A) (A) (A) (A) (A) (A) (A) (A) (A) (A) (A)
                 (A) (A)
       Virtual   (A) (A) (A) (A) (A) (A) (A) (A) (A) (A) (A) (A)
                 (A) (A) (A) (A) (A) (A) (A) (A) (A) (A) (A) (A)
                 (A) (A) (A) (A) (A) (A) (A) (A) (A) (A) (A) (A)
                 (A) (A) (A) (A) (A) (A) (A) (A) (A) (A) (A) (A)
                 (A) (A) (A) (A) (A) (A) (A) (A) (A) (A) (A) (A)
                 (A) (A) (A) (A) (A) (A) (A) (A) (A) (A) (A) (A)
                 (A) (A) (A) (A) (A) (A) (A) (A) (A) (A) (A) (A)
                 (A) (A) (A) (A) (A) (A) (A) (A) (A) (A) (A) (A)
                 (A) (A) (A) (A) (A) (A) (A) (A) (A) (A) (A) (A)
                 (A) (A) (A) (A) (A) (A) (A) (A) (A) (A) (A) (A)
                 (A) (A) (A) (A) (A) (A) (A) (A) (A) (A) (A) (A)
                 (A) (A) (A) (A) (A) (A) (A) (A) (A) (A) (A) (A)
                 (A) (A) (A) (A) (A) (A) (A) (A) (A) (A) (A) (A)
                 (A) (A) (A) (A) (A) (A) (A) (A) (A) (A) (A) (A)
                 (A) (A) (A) (A) (A) (A) (A) (A) (A) (A) (A) (A)
                 (A) (A) (A) (A) (A) (A) (A) (A) (A) (A) (A) (A)
                 (A) (A) (A) (A) (A) (A) (A) (A) (A) (A) (A) (A)
                 (A) (A) (A)
 The electronic state is 1-A.
 Alpha  occ. eigenvalues --  -15.68296 -15.67750 -11.30470 -11.28658 -11.28108
 Alpha  occ. eigenvalues --  -11.25868 -11.22832  -1.34781  -1.11112  -1.08974
 Alpha  occ. eigenvalues --   -0.94582  -0.91877  -0.80424  -0.77108  -0.70913
 Alpha  occ. eigenvalues --   -0.66200  -0.61509  -0.59328  -0.58439  -0.57332
 Alpha  occ. eigenvalues --   -0.55589  -0.53856  -0.46446  -0.42306  -0.35252
 Alpha  occ. eigenvalues --   -0.33651
 Alpha virt. eigenvalues --    0.02619   0.03829   0.04187   0.04853   0.06433
 Alpha virt. eigenvalues --    0.06930   0.07776   0.07936   0.09634   0.10830
 Alpha virt. eigenvalues --    0.11787   0.12445   0.12942   0.13622   0.14011
 Alpha virt. eigenvalues --    0.15032   0.15804   0.16390   0.16860   0.16934
 Alpha virt. eigenvalues --    0.17308   0.17717   0.18507   0.19438   0.19707
 Alpha virt. eigenvalues --    0.20863   0.21276   0.23191   0.24675   0.25262
 Alpha virt. eigenvalues --    0.27082   0.27578   0.28651   0.29243   0.30258
 Alpha virt. eigenvalues --    0.30650   0.31018   0.32824   0.34031   0.34158
 Alpha virt. eigenvalues --    0.36027   0.36929   0.37386   0.38544   0.39558
 Alpha virt. eigenvalues --    0.40546   0.42111   0.42358   0.43551   0.44301
 Alpha virt. eigenvalues --    0.44720   0.45334   0.46403   0.46783   0.47808
 Alpha virt. eigenvalues --    0.49301   0.50527   0.51487   0.52428   0.54303
 Alpha virt. eigenvalues --    0.54849   0.55767   0.56804   0.57759   0.57961
 Alpha virt. eigenvalues --    0.58765   0.59986   0.61038   0.61408   0.62552
 Alpha virt. eigenvalues --    0.62912   0.64321   0.64914   0.65716   0.66346
 Alpha virt. eigenvalues --    0.66834   0.68014   0.69283   0.69867   0.71126
 Alpha virt. eigenvalues --    0.72329   0.72905   0.74111   0.74668   0.75331
 Alpha virt. eigenvalues --    0.77011   0.77383   0.78507   0.79069   0.80262
 Alpha virt. eigenvalues --    0.81059   0.82938   0.84647   0.86769   0.87447
 Alpha virt. eigenvalues --    0.87871   0.89506   0.90640   0.91392   0.94023
 Alpha virt. eigenvalues --    0.94816   0.97005   0.98342   1.00382   1.01972
 Alpha virt. eigenvalues --    1.02696   1.03833   1.06591   1.07652   1.10333
 Alpha virt. eigenvalues --    1.12092   1.14497   1.15860   1.18699   1.19749
 Alpha virt. eigenvalues --    1.23913   1.24472   1.28353   1.28532   1.32917
 Alpha virt. eigenvalues --    1.33896   1.36337   1.37046   1.40207   1.43476
 Alpha virt. eigenvalues --    1.44070   1.45965   1.51198   1.52320   1.54773
 Alpha virt. eigenvalues --    1.56705   1.60649   1.61218   1.64136   1.67974
 Alpha virt. eigenvalues --    1.68459   1.71534   1.72589   1.75492   1.76606
 Alpha virt. eigenvalues --    1.78342   1.82351   1.82746   1.85089   1.86610
 Alpha virt. eigenvalues --    1.87643   1.89230   1.90403   1.91865   1.94718
 Alpha virt. eigenvalues --    1.97579   2.00198   2.03646   2.04744   2.10730
 Alpha virt. eigenvalues --    2.12091   2.13003   2.14142   2.17875   2.18705
 Alpha virt. eigenvalues --    2.22041   2.23716   2.25430   2.26563   2.27582
 Alpha virt. eigenvalues --    2.30088   2.33125   2.33927   2.35832   2.40070
 Alpha virt. eigenvalues --    2.42244   2.44183   2.45434   2.48537   2.51158
 Alpha virt. eigenvalues --    2.55647   2.57347   2.60811   2.61989   2.64987
 Alpha virt. eigenvalues --    2.68713   2.70100   2.72318   2.73232   2.78263
 Alpha virt. eigenvalues --    2.82874   2.83020   2.85819   2.88130   2.93525
 Alpha virt. eigenvalues --    2.97285   2.99755   3.04805   3.07763   3.08945
 Alpha virt. eigenvalues --    3.13356   3.17455   3.17970   3.24295   3.28548
 Alpha virt. eigenvalues --    3.32601   3.38181   3.47609   3.59957   3.68474
 Alpha virt. eigenvalues --    3.78385   4.35185
          Condensed to atoms (all electrons):
 Mulliken charges:
               1
     1  C    0.851944
     2  N   -0.265328
     3  C    0.706486
     4  C   -0.638498
     5  C    0.387341
     6  C    0.745555
     7  N   -0.503866
     8  H   -0.101145
     9  H   -0.179692
    10  H   -0.177880
    11  H   -0.350619
    12  H   -0.071875
    13  H   -0.070699
    14  H   -0.064912
    15  H   -0.266815
 Sum of Mulliken charges =  -0.00000
 Mulliken charges with hydrogens summed into heavy atoms:
               1
     1  C    0.393228
     2  N   -0.265328
     3  C    0.355867
     4  C   -0.638498
     5  C    0.179856
     6  C    0.478740
     7  N   -0.503866
 Electronic spatial extent (au):  <R**2>=            655.0796
 Charge=              0.0000 electrons
 Dipole moment (field-independent basis, Debye):
    X=              2.2406    Y=             -2.9618    Z=              1.1205  Tot=              3.8792

 Test job not archived.
 1\1\GINC-SE044\SP\RHF\Aug-CC-pVDZ\C5H8N2\OHZDE\09-Apr-2025\0\\#t hf au
 g-cc-pvdz iop(5/13=1,5/36=2,99/5=2) pseudo=read geom=check guess=(read
 ,tcheck) scf=(maxcycle=1)\\title\\0,1\C,0,-1.9351852,-0.43590679,-0.63
 452525\N,0,-0.90437178,0.08630555,0.22361517\C,0,0.23180547,-0.5692680
 8,0.67716517\C,0,1.13422767,0.3536484,1.27248122\C,0,1.62359763,-0.464
 50407,-0.39470948\C,0,0.43589668,1.58608604,0.90354434\N,0,-0.72361241
 ,1.41004286,0.33094909\H,0,-1.64596182,-0.3972943,-1.69026774\H,0,-2.8
 4163132,0.15020151,-0.49799912\H,0,-2.13709813,-1.47167774,-0.36153691
 \H,0,0.1519468,-1.63028391,0.87596278\H,0,2.34088167,0.34637996,-0.436
 95898\H,0,1.06658275,-0.47650343,-1.33447599\H,0,2.15291576,-1.3938951
 9,-0.22237059\H,0,0.75511823,2.59460819,1.1268133\\Version=ES64L-G16Re
 vC.01\State=1-A\HF=-302.8401154\RMSD=3.823e-03\Dipole=-0.4691542,-0.96
 22066,-1.087826\Quadrupole=-0.0367223,2.2759638,-2.2392415,2.0261596,-
 2.7236911,0.9160215\PG=C01 [X(C5H8N2)]\\@


 You never know when you're making a memory.
                        -- Rickie Lee Jones
 Job cpu time:       0 days  0 hours  1 minutes  5.1 seconds.
 Elapsed time:       0 days  0 hours  0 minutes  5.0 seconds.
 File lengths (MBytes):  RWF=     10 Int=      0 D2E=      0 Chk=      8 Scr=      1
 Normal termination of Gaussian 16 at Wed Apr  9 04:05:57 2025.
