 Entering Gaussian System, Link 0=g16
 Input=Grambow2020_wb97xd3_008490_reverse_mol2.gjf
 Output=Grambow2020_wb97xd3_008490_reverse_mol2.log
 Initial command:
 /arc/software/Gaussian/g16.c01/l1.exe "/tmp/slurm/4877905/Gau-2613887.inp" -scrdir="/tmp/slurm/4877905/"
 Entering Link 1 = /arc/software/Gaussian/g16.c01/l1.exe PID=   2613888.
  
 Copyright (c) 1988-2019, Gaussian, Inc.  All Rights Reserved.
  
 This is part of the Gaussian(R) 16 program.  It is based on
 the Gaussian(R) 09 system (copyright 2009, Gaussian, Inc.),
 the Gaussian(R) 03 system (copyright 2003, Gaussian, Inc.),
 the Gaussian(R) 98 system (copyright 1998, Gaussian, Inc.),
 the Gaussian(R) 94 system (copyright 1995, Gaussian, Inc.),
 the Gaussian 92(TM) system (copyright 1992, Gaussian, Inc.),
 the Gaussian 90(TM) system (copyright 1990, Gaussian, Inc.),
 the Gaussian 88(TM) system (copyright 1988, Gaussian, Inc.),
 the Gaussian 86(TM) system (copyright 1986, Carnegie Mellon
 University), and the Gaussian 82(TM) system (copyright 1983,
 Carnegie Mellon University). Gaussian is a federally registered
 trademark of Gaussian, Inc.
  
 This software contains proprietary and confidential information,
 including trade secrets, belonging to Gaussian, Inc.
  
 This software is provided under written license and may be
 used, copied, transmitted, or stored only in accord with that
 written license.
  
 The following legend is applicable only to US Government
 contracts under FAR:
  
                    RESTRICTED RIGHTS LEGEND
  
 Use, reproduction and disclosure by the US Government is
 subject to restrictions as set forth in subparagraphs (a)
 and (c) of the Commercial Computer Software - Restricted
 Rights clause in FAR 52.227-19.
  
 Gaussian, Inc.
 340 Quinnipiac St., Bldg. 40, Wallingford CT 06492
  
  
 ---------------------------------------------------------------
 Warning -- This program may not be used in any manner that
 competes with the business of Gaussian, Inc. or will provide
 assistance to any competitor of Gaussian, Inc.  The licensee
 of this program is prohibited from giving any competitor of
 Gaussian, Inc. access to this program.  By using this program,
 the user acknowledges that Gaussian, Inc. is engaged in the
 business of creating and licensing software in the field of
 computational chemistry and represents and warrants to the
 licensee that it is not a competitor of Gaussian, Inc. and that
 it will not use this program in any manner prohibited above.
 ---------------------------------------------------------------
  

 Cite this work as:
 Gaussian 16, Revision C.01,
 M. J. Frisch, G. W. Trucks, H. B. Schlegel, G. E. Scuseria, 
 M. A. Robb, J. R. Cheeseman, G. Scalmani, V. Barone, 
 G. A. Petersson, H. Nakatsuji, X. Li, M. Caricato, A. V. Marenich, 
 J. Bloino, B. G. Janesko, R. Gomperts, B. Mennucci, H. P. Hratchian, 
 J. V. Ortiz, A. F. Izmaylov, J. L. Sonnenberg, D. Williams-Young, 
 F. Ding, F. Lipparini, F. Egidi, J. Goings, B. Peng, A. Petrone, 
 T. Henderson, D. Ranasinghe, V. G. Zakrzewski, J. Gao, N. Rega, 
 G. Zheng, W. Liang, M. Hada, M. Ehara, K. Toyota, R. Fukuda, 
 J. Hasegawa, M. Ishida, T. Nakajima, Y. Honda, O. Kitao, H. Nakai, 
 T. Vreven, K. Throssell, J. A. Montgomery, Jr., J. E. Peralta, 
 F. Ogliaro, M. J. Bearpark, J. J. Heyd, E. N. Brothers, K. N. Kudin, 
 V. N. Staroverov, T. A. Keith, R. Kobayashi, J. Normand, 
 K. Raghavachari, A. P. Rendell, J. C. Burant, S. S. Iyengar, 
 J. Tomasi, M. Cossi, J. M. Millam, M. Klene, C. Adamo, R. Cammi, 
 J. W. Ochterski, R. L. Martin, K. Morokuma, O. Farkas, 
 J. B. Foresman, and D. J. Fox, Gaussian, Inc., Wallingford CT, 2019.
 
 ******************************************
 Gaussian 16:  ES64L-G16RevC.01  3-Jul-2019
                 9-Apr-2025 
 ******************************************
 %nprocs=16
 Will use up to   16 processors via shared memory.
 %mem=30GB
 %chk=Grambow2020_wb97xd3_008490_reverse_mol2.chk
 ----------------------------------------------------------------------
 #t hf aug-cc-pvdz symm=none int=(grid=ultrafine) guess=(read,tcheck) s
 table=(opt,rrhf)
 ----------------------------------------------------------------------
 -----
 title
 -----
 Symbolic Z-matrix:
 Charge =  0 Multiplicity = 1
 C                    -3.08549  -0.14457   0.18635 
 O                    -1.91396  -0.52307   0.88396 
 C                     0.26791   0.02952  -0.97801 
 O                    -0.38484  -0.20432  -1.90502 
 C                     1.03457   0.32147   0.04334 
 C                     2.50728   0.51511  -0.11586 
 O                     3.18999  -0.6263    0.38352 
 H                    -3.02987  -0.40315  -0.87599 
 H                    -3.98276  -0.5973    0.6208 
 H                    -3.17089   0.93791   0.27281 
 H                     0.55337   0.3439    1.01082 
 H                    -1.81714  -1.47495   0.83205 
 H                     2.74939   0.68167  -1.17218 
 H                     2.81167   1.41007   0.43913 
 H                     4.13068  -0.43806   0.38932 
 
                    Distance matrix (angstroms):
                    1          2          3          4          5
     1  C    0.000000
     2  O    1.415064   0.000000
     3  C    3.554060   2.921100   0.000000
     4  O    3.416275   3.196593   1.157630   0.000000
     5  C    4.148797   3.180198   1.310023   2.467242   0.000000
     6  C    5.639647   4.650247   2.448243   3.476067   1.493899
     7  O    6.297034   5.129464   3.289748   4.265550   2.379043
     8  H    1.094769   2.087352   3.327605   2.845107   4.229642
     9  H    1.094897   2.086793   4.584462   4.413530   5.133337
    10  H    1.089279   2.021834   3.770287   3.716144   4.256583
    11  H    3.762939   2.618291   2.033667   3.111745   1.080775
    12  H    1.948216   0.958197   3.144390   3.340295   3.461415
    13  H    6.047656   5.236976   2.573083   3.338477   2.132573
    14  H    6.103879   5.125081   3.222567   4.280068   2.121275
    15  H    7.224986   6.065434   4.124224   5.070360   3.206633
                    6          7          8          9         10
     6  C    0.000000
     7  O    1.420664   0.000000
     8  H    5.664013   6.350026   0.000000
     9  H    6.625765   7.176735   1.784955   0.000000
    10  H    5.707139   6.551320   1.771461   1.771183   0.000000
    11  H    2.261965   2.878634   4.117983   4.649138   3.842870
    12  H    4.853811   5.098310   2.353053   2.346231   2.822631
    13  H    1.096437   2.079692   5.887650   7.083248   6.099457
    14  H    1.096185   2.071958   6.256269   7.087089   6.003467
    15  H    1.949145   0.959350   7.271565   8.118299   7.430997
                   11         12         13         14         15
    11  H    0.000000
    12  H    2.993239   0.000000
    13  H    3.114820   5.433338   0.000000
    14  H    2.561927   5.468418   1.769398   0.000000
    15  H    3.714136   6.053730   2.366445   2.271091   0.000000
 Symmetry turned off by external request.
 Rotational constants (GHZ):           4.7648613           0.9825714           0.8669797
   233 basis functions,   389 primitive gaussians,   247 cartesian basis functions
    28 alpha electrons       28 beta electrons
       nuclear repulsion energy       283.5429024439 Hartrees.
 NAtoms=   15 NActive=   15 NUniq=   15 SFac= 1.00D+00 NAtFMM=   60 NAOKFM=F Big=F
 ExpMin= 2.97D-02 ExpMax= 1.17D+04 ExpMxC= 4.01D+02 IAcc=3 IRadAn=         5 AccDes= 0.00D+00
 Harris functional with IExCor=  205 and IRadAn=       5 diagonalized for initial guess.
 HarFok:  IExCor=  205 AccDes= 0.00D+00 IRadAn=         5 IDoV= 1 UseB2=F ITyADJ=14
 ICtDFT=  3500011 ScaDFX=  1.000000  1.000000  1.000000  1.000000
 FoFCou: FMM=F IPFlag=           0 FMFlag=      100000 FMFlg1=           0
         NFxFlg=           0 DoJE=T BraDBF=F KetDBF=T FulRan=T
         wScrn=  0.000000 ICntrl=       500 IOpCl=  0 I1Cent=   200000004 NGrid=           0
         NMat0=    1 NMatS0=      1 NMatT0=    0 NMatD0=    1 NMtDS0=    0 NMtDT0=    0
 Symmetry not used in FoFCou.
 SCF Done:  E(RHF) =  -380.717525692     A.U. after   14 cycles
            NFock= 14  Conv=0.70D-08     -V/T= 2.0012

 **********************************************************************

            Population analysis using the SCF Density.

 **********************************************************************

 Alpha  occ. eigenvalues --  -20.62658 -20.57446 -20.57095 -11.37904 -11.30319
 Alpha  occ. eigenvalues --  -11.27992 -11.23212  -1.47125  -1.37046  -1.36937
 Alpha  occ. eigenvalues --   -1.07439  -0.92979  -0.90894  -0.74543  -0.70841
 Alpha  occ. eigenvalues --   -0.69892  -0.68635  -0.63994  -0.63182  -0.61680
 Alpha  occ. eigenvalues --   -0.60382  -0.59601  -0.56022  -0.51248  -0.50532
 Alpha  occ. eigenvalues --   -0.45594  -0.45296  -0.34755
 Alpha virt. eigenvalues --    0.03366   0.03936   0.05042   0.05400   0.05874
 Alpha virt. eigenvalues --    0.06634   0.06853   0.08554   0.10376   0.11686
 Alpha virt. eigenvalues --    0.12249   0.12607   0.13797   0.14909   0.15432
 Alpha virt. eigenvalues --    0.16276   0.16535   0.16915   0.17358   0.18273
 Alpha virt. eigenvalues --    0.18595   0.18644   0.20603   0.21610   0.23006
 Alpha virt. eigenvalues --    0.23565   0.24611   0.25358   0.27431   0.27611
 Alpha virt. eigenvalues --    0.28071   0.29034   0.29618   0.31064   0.32179
 Alpha virt. eigenvalues --    0.32598   0.33749   0.34760   0.35356   0.36752
 Alpha virt. eigenvalues --    0.37218   0.37794   0.39199   0.40230   0.41736
 Alpha virt. eigenvalues --    0.42155   0.42606   0.43545   0.45096   0.45437
 Alpha virt. eigenvalues --    0.45965   0.46394   0.48143   0.49352   0.49879
 Alpha virt. eigenvalues --    0.50731   0.51683   0.52197   0.53230   0.54674
 Alpha virt. eigenvalues --    0.55303   0.57761   0.58588   0.59383   0.59973
 Alpha virt. eigenvalues --    0.60601   0.61390   0.62303   0.62553   0.63691
 Alpha virt. eigenvalues --    0.65141   0.66078   0.67073   0.67504   0.69395
 Alpha virt. eigenvalues --    0.69878   0.70163   0.71154   0.72630   0.73101
 Alpha virt. eigenvalues --    0.75071   0.75362   0.76047   0.76859   0.78375
 Alpha virt. eigenvalues --    0.79657   0.81402   0.81792   0.83060   0.85299
 Alpha virt. eigenvalues --    0.86161   0.87439   0.91376   0.93248   0.94418
 Alpha virt. eigenvalues --    0.97584   1.00613   1.01973   1.02388   1.05477
 Alpha virt. eigenvalues --    1.06661   1.09243   1.11157   1.13230   1.13549
 Alpha virt. eigenvalues --    1.16937   1.17198   1.20407   1.21917   1.24073
 Alpha virt. eigenvalues --    1.25646   1.27326   1.28219   1.29418   1.30059
 Alpha virt. eigenvalues --    1.32611   1.34197   1.35922   1.40835   1.45453
 Alpha virt. eigenvalues --    1.46355   1.49340   1.52201   1.54850   1.55666
 Alpha virt. eigenvalues --    1.57274   1.61895   1.64327   1.65758   1.67572
 Alpha virt. eigenvalues --    1.69196   1.70204   1.72845   1.75708   1.78642
 Alpha virt. eigenvalues --    1.79702   1.80677   1.82831   1.84520   1.86103
 Alpha virt. eigenvalues --    1.87841   1.90372   1.91871   1.93274   1.97720
 Alpha virt. eigenvalues --    1.98708   1.99885   2.04435   2.06210   2.09687
 Alpha virt. eigenvalues --    2.12834   2.13591   2.14098   2.17070   2.18964
 Alpha virt. eigenvalues --    2.21855   2.22669   2.23561   2.25972   2.28596
 Alpha virt. eigenvalues --    2.31919   2.35654   2.38933   2.39343   2.41672
 Alpha virt. eigenvalues --    2.44587   2.47254   2.49794   2.50647   2.55709
 Alpha virt. eigenvalues --    2.58940   2.65090   2.68510   2.69163   2.73064
 Alpha virt. eigenvalues --    2.77813   2.80604   2.85069   2.89229   2.92880
 Alpha virt. eigenvalues --    2.95235   2.98202   3.02516   3.06959   3.08421
 Alpha virt. eigenvalues --    3.14236   3.23722   3.27920   3.37531   3.61331
 Alpha virt. eigenvalues --    3.68983   3.76145   3.77402   3.77823   3.78491
 Alpha virt. eigenvalues --    3.80726   3.82215   3.84154   3.90784   3.92753
 Alpha virt. eigenvalues --    3.94739   3.95970   4.24164   4.31161   4.35384
          Condensed to atoms (all electrons):
 Mulliken charges:
               1
     1  C    0.983052
     2  O   -0.647775
     3  C   -0.473537
     4  O   -0.438061
     5  C    1.342715
     6  C    0.695674
     7  O   -0.650928
     8  H   -0.130031
     9  H   -0.193794
    10  H   -0.178559
    11  H   -0.332513
    12  H    0.169150
    13  H   -0.176823
    14  H   -0.078150
    15  H    0.109579
 Sum of Mulliken charges =  -0.00000
 Mulliken charges with hydrogens summed into heavy atoms:
               1
     1  C    0.480668
     2  O   -0.478626
     3  C   -0.473537
     4  O   -0.438061
     5  C    1.010202
     6  C    0.440701
     7  O   -0.541348
 Electronic spatial extent (au):  <R**2>=           1324.3302
 Charge=             -0.0000 electrons
 Dipole moment (field-independent basis, Debye):
    X=              0.3956    Y=              0.6559    Z=              0.2923  Tot=              0.8199
 NROrb=    233 NOA=    28 NOB=    28 NVA=   205 NVB=   205

 **** Warning!!: The largest alpha MO coefficient is  0.46673476D+02

    12 initial guesses have been made.
 Iteration     1 Dimension    12 NMult     0 NNew     12
 Iteration     2 Dimension    24 NMult    12 NNew     12
 Iteration     3 Dimension    27 NMult    24 NNew      3
 Iteration     4 Dimension    30 NMult    27 NNew      3
 Iteration     5 Dimension    33 NMult    30 NNew      3
 Iteration     6 Dimension    36 NMult    33 NNew      3
 Iteration     7 Dimension    39 NMult    36 NNew      3
 ***********************************************************************
 Stability analysis using <AA,BB:AA,BB> singles matrix:
 ***********************************************************************
 Ground to excited state transition densities written to RWF  633

 Eigenvectors of the stability matrix:
 
 Excited state symmetry could not be determined.
 Eigenvector   1:      Singlet-?Sym  Eigenvalue= 0.1592908  <S**2>=0.000
      28 -> 36        -0.11419
      28 -> 37        -0.10731
      28 -> 39        -0.13398
      28 -> 41         0.50533
      28 -> 42        -0.21416
      28 -> 46        -0.22022
      28 -> 48        -0.11843
      28 -> 49         0.17276
 The wavefunction is stable under the perturbations considered.
 The wavefunction is already stable.

 **********************************************************************

            Population analysis using the SCF Density.

 **********************************************************************

 Alpha  occ. eigenvalues --  -20.62658 -20.57446 -20.57095 -11.37904 -11.30319
 Alpha  occ. eigenvalues --  -11.27992 -11.23212  -1.47125  -1.37046  -1.36937
 Alpha  occ. eigenvalues --   -1.07439  -0.92979  -0.90894  -0.74543  -0.70841
 Alpha  occ. eigenvalues --   -0.69892  -0.68635  -0.63994  -0.63182  -0.61680
 Alpha  occ. eigenvalues --   -0.60382  -0.59601  -0.56022  -0.51248  -0.50532
 Alpha  occ. eigenvalues --   -0.45594  -0.45296  -0.34755
 Alpha virt. eigenvalues --    0.03366   0.03936   0.05042   0.05400   0.05874
 Alpha virt. eigenvalues --    0.06634   0.06853   0.08554   0.10376   0.11686
 Alpha virt. eigenvalues --    0.12249   0.12607   0.13797   0.14909   0.15432
 Alpha virt. eigenvalues --    0.16276   0.16535   0.16915   0.17358   0.18273
 Alpha virt. eigenvalues --    0.18595   0.18644   0.20603   0.21610   0.23006
 Alpha virt. eigenvalues --    0.23565   0.24611   0.25358   0.27431   0.27611
 Alpha virt. eigenvalues --    0.28071   0.29034   0.29618   0.31064   0.32179
 Alpha virt. eigenvalues --    0.32598   0.33749   0.34760   0.35356   0.36752
 Alpha virt. eigenvalues --    0.37218   0.37794   0.39199   0.40230   0.41736
 Alpha virt. eigenvalues --    0.42155   0.42606   0.43545   0.45096   0.45437
 Alpha virt. eigenvalues --    0.45965   0.46394   0.48143   0.49352   0.49879
 Alpha virt. eigenvalues --    0.50731   0.51683   0.52197   0.53230   0.54674
 Alpha virt. eigenvalues --    0.55303   0.57761   0.58588   0.59383   0.59973
 Alpha virt. eigenvalues --    0.60601   0.61390   0.62303   0.62553   0.63691
 Alpha virt. eigenvalues --    0.65141   0.66078   0.67073   0.67504   0.69395
 Alpha virt. eigenvalues --    0.69878   0.70163   0.71154   0.72630   0.73101
 Alpha virt. eigenvalues --    0.75071   0.75362   0.76047   0.76859   0.78375
 Alpha virt. eigenvalues --    0.79657   0.81402   0.81792   0.83060   0.85299
 Alpha virt. eigenvalues --    0.86161   0.87439   0.91376   0.93248   0.94418
 Alpha virt. eigenvalues --    0.97584   1.00613   1.01973   1.02388   1.05477
 Alpha virt. eigenvalues --    1.06661   1.09243   1.11157   1.13230   1.13549
 Alpha virt. eigenvalues --    1.16937   1.17198   1.20407   1.21917   1.24073
 Alpha virt. eigenvalues --    1.25646   1.27326   1.28219   1.29418   1.30059
 Alpha virt. eigenvalues --    1.32611   1.34197   1.35922   1.40835   1.45453
 Alpha virt. eigenvalues --    1.46355   1.49340   1.52201   1.54850   1.55666
 Alpha virt. eigenvalues --    1.57274   1.61895   1.64327   1.65758   1.67572
 Alpha virt. eigenvalues --    1.69196   1.70204   1.72845   1.75708   1.78642
 Alpha virt. eigenvalues --    1.79702   1.80677   1.82831   1.84520   1.86103
 Alpha virt. eigenvalues --    1.87841   1.90372   1.91871   1.93274   1.97720
 Alpha virt. eigenvalues --    1.98708   1.99885   2.04435   2.06210   2.09687
 Alpha virt. eigenvalues --    2.12834   2.13591   2.14098   2.17070   2.18964
 Alpha virt. eigenvalues --    2.21855   2.22669   2.23561   2.25972   2.28596
 Alpha virt. eigenvalues --    2.31919   2.35654   2.38933   2.39343   2.41672
 Alpha virt. eigenvalues --    2.44587   2.47254   2.49794   2.50647   2.55709
 Alpha virt. eigenvalues --    2.58940   2.65090   2.68510   2.69163   2.73064
 Alpha virt. eigenvalues --    2.77813   2.80604   2.85069   2.89229   2.92880
 Alpha virt. eigenvalues --    2.95235   2.98202   3.02516   3.06959   3.08421
 Alpha virt. eigenvalues --    3.14236   3.23722   3.27920   3.37531   3.61331
 Alpha virt. eigenvalues --    3.68983   3.76145   3.77402   3.77823   3.78491
 Alpha virt. eigenvalues --    3.80726   3.82215   3.84154   3.90784   3.92753
 Alpha virt. eigenvalues --    3.94739   3.95970   4.24164   4.31161   4.35384
          Condensed to atoms (all electrons):
 Mulliken charges:
               1
     1  C    0.983052
     2  O   -0.647775
     3  C   -0.473537
     4  O   -0.438061
     5  C    1.342715
     6  C    0.695674
     7  O   -0.650928
     8  H   -0.130031
     9  H   -0.193794
    10  H   -0.178559
    11  H   -0.332513
    12  H    0.169150
    13  H   -0.176823
    14  H   -0.078150
    15  H    0.109579
 Sum of Mulliken charges =  -0.00000
 Mulliken charges with hydrogens summed into heavy atoms:
               1
     1  C    0.480668
     2  O   -0.478626
     3  C   -0.473537
     4  O   -0.438061
     5  C    1.010202
     6  C    0.440701
     7  O   -0.541348
 Electronic spatial extent (au):  <R**2>=           1324.3302
 Charge=             -0.0000 electrons
 Dipole moment (field-independent basis, Debye):
    X=              0.3956    Y=              0.6559    Z=              0.2923  Tot=              0.8199
 Unable to Open any file for archive entry.
 1\1\GINC-SE105\Stability\RHF\Aug-CC-pVDZ\C4H8O3\OHZDE\09-Apr-2025\0\\#
 t hf aug-cc-pvdz symm=none int=(grid=ultrafine) guess=(read,tcheck) st
 able=(opt,rrhf)\\title\\0,1\C,0,-3.0854918,-0.1445715,0.18634851\O,0,-
 1.91395769,-0.52306583,0.88395501\C,0,0.26790889,0.02951958,-0.9780147
 3\O,0,-0.38483945,-0.2043189,-1.90502428\C,0,1.03456557,0.3214687,0.04
 333948\C,0,2.50728115,0.51511066,-0.11586278\O,0,3.18999254,-0.6262958
 3,0.38351859\H,0,-3.02986955,-0.40315368,-0.87598832\H,0,-3.98275978,-
 0.59729951,0.62079885\H,0,-3.17088835,0.93790725,0.27281269\H,0,0.5533
 749,0.34389515,1.01082414\H,0,-1.81713961,-1.4749452,0.8320536\H,0,2.7
 4939024,0.68167185,-1.17218413\H,0,2.8116705,1.41007151,0.43912741\H,0
 ,4.13067647,-0.43806224,0.38932395\\Version=ES64L-G16RevC.01\HF=-380.7
 175257\RMSD=6.979e-09\Dipole=0.1556517,0.2580568,0.1150185\Quadrupole=
 7.8533674,-1.734273,-6.1190944,4.7790046,-1.1397612,-0.3867588\PG=Unkn
 own\\@
 The archive entry for this job was punched.


 Spring appears, and we are once more children.
                                  -- Anonymous
 Job cpu time:       0 days  0 hours  6 minutes 48.4 seconds.
 Elapsed time:       0 days  0 hours  0 minutes 32.0 seconds.
 File lengths (MBytes):  RWF=    255 Int=      0 D2E=      0 Chk=      8 Scr=      1
 Normal termination of Gaussian 16 at Wed Apr  9 16:31:04 2025.
 Initial command:
 /arc/software/Gaussian/g16.c01/l1.exe "/tmp/slurm/4877905/Gau-2613887.inp" -scrdir="/tmp/slurm/4877905/"
 Entering Link 1 = /arc/software/Gaussian/g16.c01/l1.exe PID=   2614257.
  
 Copyright (c) 1988-2019, Gaussian, Inc.  All Rights Reserved.
  
 This is part of the Gaussian(R) 16 program.  It is based on
 the Gaussian(R) 09 system (copyright 2009, Gaussian, Inc.),
 the Gaussian(R) 03 system (copyright 2003, Gaussian, Inc.),
 the Gaussian(R) 98 system (copyright 1998, Gaussian, Inc.),
 the Gaussian(R) 94 system (copyright 1995, Gaussian, Inc.),
 the Gaussian 92(TM) system (copyright 1992, Gaussian, Inc.),
 the Gaussian 90(TM) system (copyright 1990, Gaussian, Inc.),
 the Gaussian 88(TM) system (copyright 1988, Gaussian, Inc.),
 the Gaussian 86(TM) system (copyright 1986, Carnegie Mellon
 University), and the Gaussian 82(TM) system (copyright 1983,
 Carnegie Mellon University). Gaussian is a federally registered
 trademark of Gaussian, Inc.
  
 This software contains proprietary and confidential information,
 including trade secrets, belonging to Gaussian, Inc.
  
 This software is provided under written license and may be
 used, copied, transmitted, or stored only in accord with that
 written license.
  
 The following legend is applicable only to US Government
 contracts under FAR:
  
                    RESTRICTED RIGHTS LEGEND
  
 Use, reproduction and disclosure by the US Government is
 subject to restrictions as set forth in subparagraphs (a)
 and (c) of the Commercial Computer Software - Restricted
 Rights clause in FAR 52.227-19.
  
 Gaussian, Inc.
 340 Quinnipiac St., Bldg. 40, Wallingford CT 06492
  
  
 ---------------------------------------------------------------
 Warning -- This program may not be used in any manner that
 competes with the business of Gaussian, Inc. or will provide
 assistance to any competitor of Gaussian, Inc.  The licensee
 of this program is prohibited from giving any competitor of
 Gaussian, Inc. access to this program.  By using this program,
 the user acknowledges that Gaussian, Inc. is engaged in the
 business of creating and licensing software in the field of
 computational chemistry and represents and warrants to the
 licensee that it is not a competitor of Gaussian, Inc. and that
 it will not use this program in any manner prohibited above.
 ---------------------------------------------------------------
  

 Cite this work as:
 Gaussian 16, Revision C.01,
 M. J. Frisch, G. W. Trucks, H. B. Schlegel, G. E. Scuseria, 
 M. A. Robb, J. R. Cheeseman, G. Scalmani, V. Barone, 
 G. A. Petersson, H. Nakatsuji, X. Li, M. Caricato, A. V. Marenich, 
 J. Bloino, B. G. Janesko, R. Gomperts, B. Mennucci, H. P. Hratchian, 
 J. V. Ortiz, A. F. Izmaylov, J. L. Sonnenberg, D. Williams-Young, 
 F. Ding, F. Lipparini, F. Egidi, J. Goings, B. Peng, A. Petrone, 
 T. Henderson, D. Ranasinghe, V. G. Zakrzewski, J. Gao, N. Rega, 
 G. Zheng, W. Liang, M. Hada, M. Ehara, K. Toyota, R. Fukuda, 
 J. Hasegawa, M. Ishida, T. Nakajima, Y. Honda, O. Kitao, H. Nakai, 
 T. Vreven, K. Throssell, J. A. Montgomery, Jr., J. E. Peralta, 
 F. Ogliaro, M. J. Bearpark, J. J. Heyd, E. N. Brothers, K. N. Kudin, 
 V. N. Staroverov, T. A. Keith, R. Kobayashi, J. Normand, 
 K. Raghavachari, A. P. Rendell, J. C. Burant, S. S. Iyengar, 
 J. Tomasi, M. Cossi, J. M. Millam, M. Klene, C. Adamo, R. Cammi, 
 J. W. Ochterski, R. L. Martin, K. Morokuma, O. Farkas, 
 J. B. Foresman, and D. J. Fox, Gaussian, Inc., Wallingford CT, 2019.
 
 ******************************************
 Gaussian 16:  ES64L-G16RevC.01  3-Jul-2019
                 9-Apr-2025 
 ******************************************
 %nprocs=16
 Will use up to   16 processors via shared memory.
 %mem=30GB
 %chk=Grambow2020_wb97xd3_008490_reverse_mol2.chk
 ----------------------------------------------------------------------
 #t hf aug-cc-pvdz iop(5/13=1,5/36=2,99/5=2) pseudo=read geom=check gue
 ss=(read,tcheck) scf=(maxcycle=1)
 ----------------------------------------------------------------------
 -----
 title
 -----
 Structure from the checkpoint file:  "Grambow2020_wb97xd3_008490_reverse_mol2.chk"
 Charge =  0 Multiplicity = 1
 Z-Matrix found in chk file.
 C,0,-3.0854918,-0.1445715,0.18634851
 O,0,-1.91395769,-0.52306583,0.88395501
 C,0,0.26790889,0.02951958,-0.97801473
 O,0,-0.38483945,-0.2043189,-1.90502428
 C,0,1.03456557,0.3214687,0.04333948
 C,0,2.50728115,0.51511066,-0.11586278
 O,0,3.18999254,-0.62629583,0.38351859
 H,0,-3.02986955,-0.40315368,-0.87598832
 H,0,-3.98275978,-0.59729951,0.62079885
 H,0,-3.17088835,0.93790725,0.27281269
 H,0,0.5533749,0.34389515,1.01082414
 H,0,-1.81713961,-1.4749452,0.8320536
 H,0,2.74939024,0.68167185,-1.17218413
 H,0,2.8116705,1.41007151,0.43912741
 H,0,4.13067647,-0.43806224,0.38932395
 Recover connectivity data from disk.
                    Distance matrix (angstroms):
                    1          2          3          4          5
     1  C    0.000000
     2  O    1.415064   0.000000
     3  C    3.554060   2.921100   0.000000
     4  O    3.416275   3.196593   1.157630   0.000000
     5  C    4.148797   3.180198   1.310023   2.467242   0.000000
     6  C    5.639647   4.650247   2.448243   3.476067   1.493899
     7  O    6.297034   5.129464   3.289748   4.265550   2.379043
     8  H    1.094769   2.087352   3.327605   2.845107   4.229642
     9  H    1.094897   2.086793   4.584462   4.413530   5.133337
    10  H    1.089279   2.021834   3.770287   3.716144   4.256583
    11  H    3.762939   2.618291   2.033667   3.111745   1.080775
    12  H    1.948216   0.958197   3.144390   3.340295   3.461415
    13  H    6.047656   5.236976   2.573083   3.338477   2.132573
    14  H    6.103879   5.125081   3.222567   4.280068   2.121275
    15  H    7.224986   6.065434   4.124224   5.070360   3.206633
                    6          7          8          9         10
     6  C    0.000000
     7  O    1.420664   0.000000
     8  H    5.664013   6.350026   0.000000
     9  H    6.625765   7.176735   1.784955   0.000000
    10  H    5.707139   6.551320   1.771461   1.771183   0.000000
    11  H    2.261965   2.878634   4.117983   4.649138   3.842870
    12  H    4.853811   5.098310   2.353053   2.346231   2.822631
    13  H    1.096437   2.079692   5.887650   7.083248   6.099457
    14  H    1.096185   2.071958   6.256269   7.087089   6.003467
    15  H    1.949145   0.959350   7.271565   8.118299   7.430997
                   11         12         13         14         15
    11  H    0.000000
    12  H    2.993239   0.000000
    13  H    3.114820   5.433338   0.000000
    14  H    2.561927   5.468418   1.769398   0.000000
    15  H    3.714136   6.053730   2.366445   2.271091   0.000000
 Framework group  C1[X(C4H8O3)]
 Deg. of freedom    39
                         Standard orientation:                         
 ---------------------------------------------------------------------
 Center     Atomic      Atomic             Coordinates (Angstroms)
 Number     Number       Type             X           Y           Z
 ---------------------------------------------------------------------
      1          6           0       -3.263307   -0.251573    0.167138
      2          8           0       -2.127883   -1.028734   -0.163371
      3          6           0        0.118877    0.829566    0.014441
      4          8           0       -0.524859    1.732552   -0.317716
      5          6           0        0.877281   -0.161833    0.412074
      6          6           0        2.361040   -0.018980    0.510993
      7          8           0        2.973739   -0.693670   -0.578813
      8          1           0       -3.198110    0.761633   -0.242352
      9          1           0       -4.191638   -0.719776   -0.176063
     10          1           0       -3.295214   -0.181980    1.253723
     11          1           0        0.377162   -1.102352    0.594772
     12          1           0       -2.078653   -1.114430   -1.116458
     13          1           0        2.633996    1.042934    0.513844
     14          1           0        2.698678   -0.450609    1.460371
     15          1           0        3.922457   -0.699693   -0.436515
 ---------------------------------------------------------------------
 Rotational constants (GHZ):           4.7648613           0.9825714           0.8669797
 ======================================================================================================
                                       Pseudopotential Parameters
 ======================================================================================================
  Center     Atomic      Valence      Angular      Power
  Number     Number     Electrons     Momentum     of R      Exponent        Coefficient   SO-Coeffient
 ======================================================================================================
    1          6            6
                                      G and up 
                                                     0        0.0000010       -0.00011185    0.00000000
                                                     2        0.1200000       -0.02301220    0.00000000
                                                     2        0.1400000        0.13317600    0.00000000
                                                     2        0.1600000       -0.19690668    0.00000000
                                                     2        0.2200000        0.23163694    0.00000000
                                                     2        0.3000000       -0.36920489    0.00000000
                                                     2        0.4000000        0.36389709    0.00000000
                                                     2        0.7000000       -0.38862160    0.00000000
                                                     2        1.3000000        0.80803421    0.00000000
                                      S - G
                                                     0        0.0000010        0.00312304    0.00000000
                                                     2        0.1200000       -0.00632892    0.00000000
                                                     2        0.2200000       -0.03780897    0.00000000
                                                     2        0.4000000        0.26269560    0.00000000
                                                     2        0.9000000       -0.28209514    0.00000000
                                                     2        1.5000000       -0.72686737    0.00000000
                                      P - G
                                                     0        0.0000010       -0.01465594    0.00000000
                                                     2        0.1200000        0.07908409    0.00000000
                                                     2        0.1800000       -0.30615861    0.00000000
                                                     2        0.2600000        0.41506950    0.00000000
                                                     2        0.5000000       -0.36252345    0.00000000
                                                     2        0.9000000        0.15124193    0.00000000
                                                     2        3.0000000       -0.80425677    0.00000000
                                      D - G
                                                     0        0.0000010        0.01149631    0.00000000
                                                     2        0.1200000       -0.04713561    0.00000000
                                                     2        0.1600000        0.10865096    0.00000000
                                                     2        0.2800000       -0.15816701    0.00000000
                                                     2        0.7000000        0.65478804    0.00000000
                                                     2        1.3000000       -1.73816624    0.00000000
                                      F - G
                                                     0        0.0000010        0.00481868    0.00000000
                                                     2        0.1200000       -0.04746842    0.00000000
                                                     2        0.1600000        0.09327889    0.00000000
                                                     2        0.4000000       -0.19693326    0.00000000
                                                     2        0.9000000        0.34938253    0.00000000
    2          8            8
                                      G and up 
                                                     0        0.0000010        0.00001165    0.00000000
                                                     2        0.1200000       -0.01744018    0.00000000
                                                     2        0.1400000        0.05401326    0.00000000
                                                     2        0.1800000       -0.08231208    0.00000000
                                                     2        0.2600000        0.11570222    0.00000000
                                                     2        0.4000000       -0.20630360    0.00000000
                                                     2        0.7000000        0.38074319    0.00000000
                                                     2        1.2000000       -0.17045091    0.00000000
                                                     2        2.0000000       -1.45433187    0.00000000
                                      S - G
                                                     0        0.0000010       -0.00117944    0.00000000
                                                     2        0.1400000        0.04368312    0.00000000
                                                     2        0.3000000       -0.33477926    0.00000000
                                                     2        0.6000000        1.52630657    0.00000000
                                                     2        1.5000000       -2.50804716    0.00000000
                                                     2        3.0000000        2.89751681    0.00000000
                                      P - G
                                                     0        0.0000010        0.06576007    0.00000000
                                                     2        0.1200000       -0.10329304    0.00000000
                                                     2        0.2000000        0.24891756    0.00000000
                                                     2        0.4000000       -0.50800022    0.00000000
                                                     2        0.9000000        0.81480796    0.00000000
                                      D - G
                                                     0        0.0000010       -0.14101855    0.00000000
                                                     2        0.1200000        0.22105937    0.00000000
                                                     2        0.1800000       -0.45814988    0.00000000
                                                     2        0.3000000        0.46029282    0.00000000
                                      F - G
                                                     0        0.0000010        0.07483044    0.00000000
                                                     2        0.1200000       -0.09134252    0.00000000
                                                     2        0.1400000        0.04125459    0.00000000
                                                     2        0.3000000        0.37914837    0.00000000
                                                     2        0.5000000       -0.86881279    0.00000000
    3          6            6
                                      G and up 
                                                     0        0.0000010       -0.00011185    0.00000000
                                                     2        0.1200000       -0.02301220    0.00000000
                                                     2        0.1400000        0.13317600    0.00000000
                                                     2        0.1600000       -0.19690668    0.00000000
                                                     2        0.2200000        0.23163694    0.00000000
                                                     2        0.3000000       -0.36920489    0.00000000
                                                     2        0.4000000        0.36389709    0.00000000
                                                     2        0.7000000       -0.38862160    0.00000000
                                                     2        1.3000000        0.80803421    0.00000000
                                      S - G
                                                     0        0.0000010        0.00312304    0.00000000
                                                     2        0.1200000       -0.00632892    0.00000000
                                                     2        0.2200000       -0.03780897    0.00000000
                                                     2        0.4000000        0.26269560    0.00000000
                                                     2        0.9000000       -0.28209514    0.00000000
                                                     2        1.5000000       -0.72686737    0.00000000
                                      P - G
                                                     0        0.0000010       -0.01465594    0.00000000
                                                     2        0.1200000        0.07908409    0.00000000
                                                     2        0.1800000       -0.30615861    0.00000000
                                                     2        0.2600000        0.41506950    0.00000000
                                                     2        0.5000000       -0.36252345    0.00000000
                                                     2        0.9000000        0.15124193    0.00000000
                                                     2        3.0000000       -0.80425677    0.00000000
                                      D - G
                                                     0        0.0000010        0.01149631    0.00000000
                                                     2        0.1200000       -0.04713561    0.00000000
                                                     2        0.1600000        0.10865096    0.00000000
                                                     2        0.2800000       -0.15816701    0.00000000
                                                     2        0.7000000        0.65478804    0.00000000
                                                     2        1.3000000       -1.73816624    0.00000000
                                      F - G
                                                     0        0.0000010        0.00481868    0.00000000
                                                     2        0.1200000       -0.04746842    0.00000000
                                                     2        0.1600000        0.09327889    0.00000000
                                                     2        0.4000000       -0.19693326    0.00000000
                                                     2        0.9000000        0.34938253    0.00000000
    4          8            8
                                      G and up 
                                                     0        0.0000010        0.00001165    0.00000000
                                                     2        0.1200000       -0.01744018    0.00000000
                                                     2        0.1400000        0.05401326    0.00000000
                                                     2        0.1800000       -0.08231208    0.00000000
                                                     2        0.2600000        0.11570222    0.00000000
                                                     2        0.4000000       -0.20630360    0.00000000
                                                     2        0.7000000        0.38074319    0.00000000
                                                     2        1.2000000       -0.17045091    0.00000000
                                                     2        2.0000000       -1.45433187    0.00000000
                                      S - G
                                                     0        0.0000010       -0.00117944    0.00000000
                                                     2        0.1400000        0.04368312    0.00000000
                                                     2        0.3000000       -0.33477926    0.00000000
                                                     2        0.6000000        1.52630657    0.00000000
                                                     2        1.5000000       -2.50804716    0.00000000
                                                     2        3.0000000        2.89751681    0.00000000
                                      P - G
                                                     0        0.0000010        0.06576007    0.00000000
                                                     2        0.1200000       -0.10329304    0.00000000
                                                     2        0.2000000        0.24891756    0.00000000
                                                     2        0.4000000       -0.50800022    0.00000000
                                                     2        0.9000000        0.81480796    0.00000000
                                      D - G
                                                     0        0.0000010       -0.14101855    0.00000000
                                                     2        0.1200000        0.22105937    0.00000000
                                                     2        0.1800000       -0.45814988    0.00000000
                                                     2        0.3000000        0.46029282    0.00000000
                                      F - G
                                                     0        0.0000010        0.07483044    0.00000000
                                                     2        0.1200000       -0.09134252    0.00000000
                                                     2        0.1400000        0.04125459    0.00000000
                                                     2        0.3000000        0.37914837    0.00000000
                                                     2        0.5000000       -0.86881279    0.00000000
    5          6            6
                                      G and up 
                                                     0        0.0000010       -0.00011185    0.00000000
                                                     2        0.1200000       -0.02301220    0.00000000
                                                     2        0.1400000        0.13317600    0.00000000
                                                     2        0.1600000       -0.19690668    0.00000000
                                                     2        0.2200000        0.23163694    0.00000000
                                                     2        0.3000000       -0.36920489    0.00000000
                                                     2        0.4000000        0.36389709    0.00000000
                                                     2        0.7000000       -0.38862160    0.00000000
                                                     2        1.3000000        0.80803421    0.00000000
                                      S - G
                                                     0        0.0000010        0.00312304    0.00000000
                                                     2        0.1200000       -0.00632892    0.00000000
                                                     2        0.2200000       -0.03780897    0.00000000
                                                     2        0.4000000        0.26269560    0.00000000
                                                     2        0.9000000       -0.28209514    0.00000000
                                                     2        1.5000000       -0.72686737    0.00000000
                                      P - G
                                                     0        0.0000010       -0.01465594    0.00000000
                                                     2        0.1200000        0.07908409    0.00000000
                                                     2        0.1800000       -0.30615861    0.00000000
                                                     2        0.2600000        0.41506950    0.00000000
                                                     2        0.5000000       -0.36252345    0.00000000
                                                     2        0.9000000        0.15124193    0.00000000
                                                     2        3.0000000       -0.80425677    0.00000000
                                      D - G
                                                     0        0.0000010        0.01149631    0.00000000
                                                     2        0.1200000       -0.04713561    0.00000000
                                                     2        0.1600000        0.10865096    0.00000000
                                                     2        0.2800000       -0.15816701    0.00000000
                                                     2        0.7000000        0.65478804    0.00000000
                                                     2        1.3000000       -1.73816624    0.00000000
                                      F - G
                                                     0        0.0000010        0.00481868    0.00000000
                                                     2        0.1200000       -0.04746842    0.00000000
                                                     2        0.1600000        0.09327889    0.00000000
                                                     2        0.4000000       -0.19693326    0.00000000
                                                     2        0.9000000        0.34938253    0.00000000
    6          6            6
                                      G and up 
                                                     0        0.0000010       -0.00011185    0.00000000
                                                     2        0.1200000       -0.02301220    0.00000000
                                                     2        0.1400000        0.13317600    0.00000000
                                                     2        0.1600000       -0.19690668    0.00000000
                                                     2        0.2200000        0.23163694    0.00000000
                                                     2        0.3000000       -0.36920489    0.00000000
                                                     2        0.4000000        0.36389709    0.00000000
                                                     2        0.7000000       -0.38862160    0.00000000
                                                     2        1.3000000        0.80803421    0.00000000
                                      S - G
                                                     0        0.0000010        0.00312304    0.00000000
                                                     2        0.1200000       -0.00632892    0.00000000
                                                     2        0.2200000       -0.03780897    0.00000000
                                                     2        0.4000000        0.26269560    0.00000000
                                                     2        0.9000000       -0.28209514    0.00000000
                                                     2        1.5000000       -0.72686737    0.00000000
                                      P - G
                                                     0        0.0000010       -0.01465594    0.00000000
                                                     2        0.1200000        0.07908409    0.00000000
                                                     2        0.1800000       -0.30615861    0.00000000
                                                     2        0.2600000        0.41506950    0.00000000
                                                     2        0.5000000       -0.36252345    0.00000000
                                                     2        0.9000000        0.15124193    0.00000000
                                                     2        3.0000000       -0.80425677    0.00000000
                                      D - G
                                                     0        0.0000010        0.01149631    0.00000000
                                                     2        0.1200000       -0.04713561    0.00000000
                                                     2        0.1600000        0.10865096    0.00000000
                                                     2        0.2800000       -0.15816701    0.00000000
                                                     2        0.7000000        0.65478804    0.00000000
                                                     2        1.3000000       -1.73816624    0.00000000
                                      F - G
                                                     0        0.0000010        0.00481868    0.00000000
                                                     2        0.1200000       -0.04746842    0.00000000
                                                     2        0.1600000        0.09327889    0.00000000
                                                     2        0.4000000       -0.19693326    0.00000000
                                                     2        0.9000000        0.34938253    0.00000000
    7          8            8
                                      G and up 
                                                     0        0.0000010        0.00001165    0.00000000
                                                     2        0.1200000       -0.01744018    0.00000000
                                                     2        0.1400000        0.05401326    0.00000000
                                                     2        0.1800000       -0.08231208    0.00000000
                                                     2        0.2600000        0.11570222    0.00000000
                                                     2        0.4000000       -0.20630360    0.00000000
                                                     2        0.7000000        0.38074319    0.00000000
                                                     2        1.2000000       -0.17045091    0.00000000
                                                     2        2.0000000       -1.45433187    0.00000000
                                      S - G
                                                     0        0.0000010       -0.00117944    0.00000000
                                                     2        0.1400000        0.04368312    0.00000000
                                                     2        0.3000000       -0.33477926    0.00000000
                                                     2        0.6000000        1.52630657    0.00000000
                                                     2        1.5000000       -2.50804716    0.00000000
                                                     2        3.0000000        2.89751681    0.00000000
                                      P - G
                                                     0        0.0000010        0.06576007    0.00000000
                                                     2        0.1200000       -0.10329304    0.00000000
                                                     2        0.2000000        0.24891756    0.00000000
                                                     2        0.4000000       -0.50800022    0.00000000
                                                     2        0.9000000        0.81480796    0.00000000
                                      D - G
                                                     0        0.0000010       -0.14101855    0.00000000
                                                     2        0.1200000        0.22105937    0.00000000
                                                     2        0.1800000       -0.45814988    0.00000000
                                                     2        0.3000000        0.46029282    0.00000000
                                      F - G
                                                     0        0.0000010        0.07483044    0.00000000
                                                     2        0.1200000       -0.09134252    0.00000000
                                                     2        0.1400000        0.04125459    0.00000000
                                                     2        0.3000000        0.37914837    0.00000000
                                                     2        0.5000000       -0.86881279    0.00000000
    8          1            1
                                      F and up 
                                                     0        0.0000010       -0.00000699    0.00000000
                                                     2        0.1200000        0.00123686    0.00000000
                                                     2        0.1800000       -0.00752022    0.00000000
                                                     2        0.2600000        0.02503380    0.00000000
                                                     2        0.4000000       -0.08702670    0.00000000
                                                     2        0.6000000        0.30134159    0.00000000
                                                     2        0.8000000       -0.50204959    0.00000000
                                                     2        1.2000000        0.52208372    0.00000000
                                      S - F
                                                     0        0.0000010       -0.01618346    0.00000000
                                                     2        0.1200000       -0.07880581    0.00000000
                                                     2        0.1600000        0.32040539    0.00000000
                                                     2        0.2400000       -0.47500956    0.00000000
                                                     2        0.5000000        0.54013668    0.00000000
                                                     2        1.5000000       -1.40434292    0.00000000
                                                     2        3.0000000        1.46283806    0.00000000
                                      P - F
                                                     0        0.0000010        0.00612970    0.00000000
                                                     2        0.1200000        0.02254406    0.00000000
                                                     2        0.1800000       -0.13874529    0.00000000
                                                     2        0.3000000        0.38299049    0.00000000
                                                     2        0.5000000       -0.57923512    0.00000000
                                                     2        1.0000000        0.63021625    0.00000000
                                                     2        2.0000000       -0.79201034    0.00000000
                                      D - F
                                                     0        0.0000010       -0.00296226    0.00000000
                                                     2        0.1200000       -0.00547344    0.00000000
                                                     2        0.1400000        0.01837884    0.00000000
                                                     2        0.2400000       -0.05565704    0.00000000
                                                     2        0.4000000        0.15376597    0.00000000
                                                     2        0.8000000       -0.32464795    0.00000000
    9          1            1
                                      F and up 
                                                     0        0.0000010       -0.00000699    0.00000000
                                                     2        0.1200000        0.00123686    0.00000000
                                                     2        0.1800000       -0.00752022    0.00000000
                                                     2        0.2600000        0.02503380    0.00000000
                                                     2        0.4000000       -0.08702670    0.00000000
                                                     2        0.6000000        0.30134159    0.00000000
                                                     2        0.8000000       -0.50204959    0.00000000
                                                     2        1.2000000        0.52208372    0.00000000
                                      S - F
                                                     0        0.0000010       -0.01618346    0.00000000
                                                     2        0.1200000       -0.07880581    0.00000000
                                                     2        0.1600000        0.32040539    0.00000000
                                                     2        0.2400000       -0.47500956    0.00000000
                                                     2        0.5000000        0.54013668    0.00000000
                                                     2        1.5000000       -1.40434292    0.00000000
                                                     2        3.0000000        1.46283806    0.00000000
                                      P - F
                                                     0        0.0000010        0.00612970    0.00000000
                                                     2        0.1200000        0.02254406    0.00000000
                                                     2        0.1800000       -0.13874529    0.00000000
                                                     2        0.3000000        0.38299049    0.00000000
                                                     2        0.5000000       -0.57923512    0.00000000
                                                     2        1.0000000        0.63021625    0.00000000
                                                     2        2.0000000       -0.79201034    0.00000000
                                      D - F
                                                     0        0.0000010       -0.00296226    0.00000000
                                                     2        0.1200000       -0.00547344    0.00000000
                                                     2        0.1400000        0.01837884    0.00000000
                                                     2        0.2400000       -0.05565704    0.00000000
                                                     2        0.4000000        0.15376597    0.00000000
                                                     2        0.8000000       -0.32464795    0.00000000
   10          1            1
                                      F and up 
                                                     0        0.0000010       -0.00000699    0.00000000
                                                     2        0.1200000        0.00123686    0.00000000
                                                     2        0.1800000       -0.00752022    0.00000000
                                                     2        0.2600000        0.02503380    0.00000000
                                                     2        0.4000000       -0.08702670    0.00000000
                                                     2        0.6000000        0.30134159    0.00000000
                                                     2        0.8000000       -0.50204959    0.00000000
                                                     2        1.2000000        0.52208372    0.00000000
                                      S - F
                                                     0        0.0000010       -0.01618346    0.00000000
                                                     2        0.1200000       -0.07880581    0.00000000
                                                     2        0.1600000        0.32040539    0.00000000
                                                     2        0.2400000       -0.47500956    0.00000000
                                                     2        0.5000000        0.54013668    0.00000000
                                                     2        1.5000000       -1.40434292    0.00000000
                                                     2        3.0000000        1.46283806    0.00000000
                                      P - F
                                                     0        0.0000010        0.00612970    0.00000000
                                                     2        0.1200000        0.02254406    0.00000000
                                                     2        0.1800000       -0.13874529    0.00000000
                                                     2        0.3000000        0.38299049    0.00000000
                                                     2        0.5000000       -0.57923512    0.00000000
                                                     2        1.0000000        0.63021625    0.00000000
                                                     2        2.0000000       -0.79201034    0.00000000
                                      D - F
                                                     0        0.0000010       -0.00296226    0.00000000
                                                     2        0.1200000       -0.00547344    0.00000000
                                                     2        0.1400000        0.01837884    0.00000000
                                                     2        0.2400000       -0.05565704    0.00000000
                                                     2        0.4000000        0.15376597    0.00000000
                                                     2        0.8000000       -0.32464795    0.00000000
   11          1            1
                                      F and up 
                                                     0        0.0000010       -0.00000699    0.00000000
                                                     2        0.1200000        0.00123686    0.00000000
                                                     2        0.1800000       -0.00752022    0.00000000
                                                     2        0.2600000        0.02503380    0.00000000
                                                     2        0.4000000       -0.08702670    0.00000000
                                                     2        0.6000000        0.30134159    0.00000000
                                                     2        0.8000000       -0.50204959    0.00000000
                                                     2        1.2000000        0.52208372    0.00000000
                                      S - F
                                                     0        0.0000010       -0.01618346    0.00000000
                                                     2        0.1200000       -0.07880581    0.00000000
                                                     2        0.1600000        0.32040539    0.00000000
                                                     2        0.2400000       -0.47500956    0.00000000
                                                     2        0.5000000        0.54013668    0.00000000
                                                     2        1.5000000       -1.40434292    0.00000000
                                                     2        3.0000000        1.46283806    0.00000000
                                      P - F
                                                     0        0.0000010        0.00612970    0.00000000
                                                     2        0.1200000        0.02254406    0.00000000
                                                     2        0.1800000       -0.13874529    0.00000000
                                                     2        0.3000000        0.38299049    0.00000000
                                                     2        0.5000000       -0.57923512    0.00000000
                                                     2        1.0000000        0.63021625    0.00000000
                                                     2        2.0000000       -0.79201034    0.00000000
                                      D - F
                                                     0        0.0000010       -0.00296226    0.00000000
                                                     2        0.1200000       -0.00547344    0.00000000
                                                     2        0.1400000        0.01837884    0.00000000
                                                     2        0.2400000       -0.05565704    0.00000000
                                                     2        0.4000000        0.15376597    0.00000000
                                                     2        0.8000000       -0.32464795    0.00000000
   12          1            1
                                      F and up 
                                                     0        0.0000010       -0.00000699    0.00000000
                                                     2        0.1200000        0.00123686    0.00000000
                                                     2        0.1800000       -0.00752022    0.00000000
                                                     2        0.2600000        0.02503380    0.00000000
                                                     2        0.4000000       -0.08702670    0.00000000
                                                     2        0.6000000        0.30134159    0.00000000
                                                     2        0.8000000       -0.50204959    0.00000000
                                                     2        1.2000000        0.52208372    0.00000000
                                      S - F
                                                     0        0.0000010       -0.01618346    0.00000000
                                                     2        0.1200000       -0.07880581    0.00000000
                                                     2        0.1600000        0.32040539    0.00000000
                                                     2        0.2400000       -0.47500956    0.00000000
                                                     2        0.5000000        0.54013668    0.00000000
                                                     2        1.5000000       -1.40434292    0.00000000
                                                     2        3.0000000        1.46283806    0.00000000
                                      P - F
                                                     0        0.0000010        0.00612970    0.00000000
                                                     2        0.1200000        0.02254406    0.00000000
                                                     2        0.1800000       -0.13874529    0.00000000
                                                     2        0.3000000        0.38299049    0.00000000
                                                     2        0.5000000       -0.57923512    0.00000000
                                                     2        1.0000000        0.63021625    0.00000000
                                                     2        2.0000000       -0.79201034    0.00000000
                                      D - F
                                                     0        0.0000010       -0.00296226    0.00000000
                                                     2        0.1200000       -0.00547344    0.00000000
                                                     2        0.1400000        0.01837884    0.00000000
                                                     2        0.2400000       -0.05565704    0.00000000
                                                     2        0.4000000        0.15376597    0.00000000
                                                     2        0.8000000       -0.32464795    0.00000000
   13          1            1
                                      F and up 
                                                     0        0.0000010       -0.00000699    0.00000000
                                                     2        0.1200000        0.00123686    0.00000000
                                                     2        0.1800000       -0.00752022    0.00000000
                                                     2        0.2600000        0.02503380    0.00000000
                                                     2        0.4000000       -0.08702670    0.00000000
                                                     2        0.6000000        0.30134159    0.00000000
                                                     2        0.8000000       -0.50204959    0.00000000
                                                     2        1.2000000        0.52208372    0.00000000
                                      S - F
                                                     0        0.0000010       -0.01618346    0.00000000
                                                     2        0.1200000       -0.07880581    0.00000000
                                                     2        0.1600000        0.32040539    0.00000000
                                                     2        0.2400000       -0.47500956    0.00000000
                                                     2        0.5000000        0.54013668    0.00000000
                                                     2        1.5000000       -1.40434292    0.00000000
                                                     2        3.0000000        1.46283806    0.00000000
                                      P - F
                                                     0        0.0000010        0.00612970    0.00000000
                                                     2        0.1200000        0.02254406    0.00000000
                                                     2        0.1800000       -0.13874529    0.00000000
                                                     2        0.3000000        0.38299049    0.00000000
                                                     2        0.5000000       -0.57923512    0.00000000
                                                     2        1.0000000        0.63021625    0.00000000
                                                     2        2.0000000       -0.79201034    0.00000000
                                      D - F
                                                     0        0.0000010       -0.00296226    0.00000000
                                                     2        0.1200000       -0.00547344    0.00000000
                                                     2        0.1400000        0.01837884    0.00000000
                                                     2        0.2400000       -0.05565704    0.00000000
                                                     2        0.4000000        0.15376597    0.00000000
                                                     2        0.8000000       -0.32464795    0.00000000
   14          1            1
                                      F and up 
                                                     0        0.0000010       -0.00000699    0.00000000
                                                     2        0.1200000        0.00123686    0.00000000
                                                     2        0.1800000       -0.00752022    0.00000000
                                                     2        0.2600000        0.02503380    0.00000000
                                                     2        0.4000000       -0.08702670    0.00000000
                                                     2        0.6000000        0.30134159    0.00000000
                                                     2        0.8000000       -0.50204959    0.00000000
                                                     2        1.2000000        0.52208372    0.00000000
                                      S - F
                                                     0        0.0000010       -0.01618346    0.00000000
                                                     2        0.1200000       -0.07880581    0.00000000
                                                     2        0.1600000        0.32040539    0.00000000
                                                     2        0.2400000       -0.47500956    0.00000000
                                                     2        0.5000000        0.54013668    0.00000000
                                                     2        1.5000000       -1.40434292    0.00000000
                                                     2        3.0000000        1.46283806    0.00000000
                                      P - F
                                                     0        0.0000010        0.00612970    0.00000000
                                                     2        0.1200000        0.02254406    0.00000000
                                                     2        0.1800000       -0.13874529    0.00000000
                                                     2        0.3000000        0.38299049    0.00000000
                                                     2        0.5000000       -0.57923512    0.00000000
                                                     2        1.0000000        0.63021625    0.00000000
                                                     2        2.0000000       -0.79201034    0.00000000
                                      D - F
                                                     0        0.0000010       -0.00296226    0.00000000
                                                     2        0.1200000       -0.00547344    0.00000000
                                                     2        0.1400000        0.01837884    0.00000000
                                                     2        0.2400000       -0.05565704    0.00000000
                                                     2        0.4000000        0.15376597    0.00000000
                                                     2        0.8000000       -0.32464795    0.00000000
   15          1            1
                                      F and up 
                                                     0        0.0000010       -0.00000699    0.00000000
                                                     2        0.1200000        0.00123686    0.00000000
                                                     2        0.1800000       -0.00752022    0.00000000
                                                     2        0.2600000        0.02503380    0.00000000
                                                     2        0.4000000       -0.08702670    0.00000000
                                                     2        0.6000000        0.30134159    0.00000000
                                                     2        0.8000000       -0.50204959    0.00000000
                                                     2        1.2000000        0.52208372    0.00000000
                                      S - F
                                                     0        0.0000010       -0.01618346    0.00000000
                                                     2        0.1200000       -0.07880581    0.00000000
                                                     2        0.1600000        0.32040539    0.00000000
                                                     2        0.2400000       -0.47500956    0.00000000
                                                     2        0.5000000        0.54013668    0.00000000
                                                     2        1.5000000       -1.40434292    0.00000000
                                                     2        3.0000000        1.46283806    0.00000000
                                      P - F
                                                     0        0.0000010        0.00612970    0.00000000
                                                     2        0.1200000        0.02254406    0.00000000
                                                     2        0.1800000       -0.13874529    0.00000000
                                                     2        0.3000000        0.38299049    0.00000000
                                                     2        0.5000000       -0.57923512    0.00000000
                                                     2        1.0000000        0.63021625    0.00000000
                                                     2        2.0000000       -0.79201034    0.00000000
                                      D - F
                                                     0        0.0000010       -0.00296226    0.00000000
                                                     2        0.1200000       -0.00547344    0.00000000
                                                     2        0.1400000        0.01837884    0.00000000
                                                     2        0.2400000       -0.05565704    0.00000000
                                                     2        0.4000000        0.15376597    0.00000000
                                                     2        0.8000000       -0.32464795    0.00000000
 ======================================================================================================
   233 basis functions,   389 primitive gaussians,   247 cartesian basis functions
    28 alpha electrons       28 beta electrons
       nuclear repulsion energy       283.5429024439 Hartrees.
 NAtoms=   15 NActive=   15 NUniq=   15 SFac= 1.00D+00 NAtFMM=   60 NAOKFM=F Big=F
   1 Symmetry operations used in ECPInt.
 ECPInt:  NShTT=    5356 NPrTT=   23992 LenC2=    5287 LenP2D=   17732.
 LDataN:  DoStor=T MaxTD1= 6 Len=  172
 Initial guess from the checkpoint file:  "Grambow2020_wb97xd3_008490_reverse_mol2.chk"
 B after Tr=    -0.323453   -0.254709    0.259196
         Rot=    0.755294   -0.654801   -0.008584    0.026327 Ang= -81.90 deg.
 >>>>>>>>>> Convergence criterion not met.
 SCF Done:  E(RHF) =  -380.842827265     A.U. after    2 cycles
            NFock=  1  Conv=0.37D-02     -V/T= 1.9975

 **********************************************************************

            Population analysis using the SCF Density.

 **********************************************************************

 Orbital symmetries:
       Occupied  (A) (A) (A) (A) (A) (A) (A) (A) (A) (A) (A) (A)
                 (A) (A) (A) (A) (A) (A) (A) (A) (A) (A) (A) (A)
                 (A) (A) (A) (A)
       Virtual   (A) (A) (A) (A) (A) (A) (A) (A) (A) (A) (A) (A)
                 (A) (A) (A) (A) (A) (A) (A) (A) (A) (A) (A) (A)
                 (A) (A) (A) (A) (A) (A) (A) (A) (A) (A) (A) (A)
                 (A) (A) (A) (A) (A) (A) (A) (A) (A) (A) (A) (A)
                 (A) (A) (A) (A) (A) (A) (A) (A) (A) (A) (A) (A)
                 (A) (A) (A) (A) (A) (A) (A) (A) (A) (A) (A) (A)
                 (A) (A) (A) (A) (A) (A) (A) (A) (A) (A) (A) (A)
                 (A) (A) (A) (A) (A) (A) (A) (A) (A) (A) (A) (A)
                 (A) (A) (A) (A) (A) (A) (A) (A) (A) (A) (A) (A)
                 (A) (A) (A) (A) (A) (A) (A) (A) (A) (A) (A) (A)
                 (A) (A) (A) (A) (A) (A) (A) (A) (A) (A) (A) (A)
                 (A) (A) (A) (A) (A) (A) (A) (A) (A) (A) (A) (A)
                 (A) (A) (A) (A) (A) (A) (A) (A) (A) (A) (A) (A)
                 (A) (A) (A) (A) (A) (A) (A) (A) (A) (A) (A) (A)
                 (A) (A) (A) (A) (A) (A) (A) (A) (A) (A) (A) (A)
                 (A) (A) (A) (A) (A) (A) (A) (A) (A) (A) (A) (A)
                 (A) (A) (A) (A) (A) (A) (A) (A) (A) (A) (A) (A)
                 (A)
 The electronic state is 1-A.
 Alpha  occ. eigenvalues --  -20.63191 -20.57852 -20.57502 -11.38305 -11.30755
 Alpha  occ. eigenvalues --  -11.28419 -11.23603  -1.43206  -1.32822  -1.32744
 Alpha  occ. eigenvalues --   -1.06724  -0.92949  -0.90945  -0.75538  -0.72022
 Alpha  occ. eigenvalues --   -0.71088  -0.69410  -0.65251  -0.64772  -0.62687
 Alpha  occ. eigenvalues --   -0.61492  -0.60753  -0.57406  -0.52284  -0.51474
 Alpha  occ. eigenvalues --   -0.47042  -0.46726  -0.35475
 Alpha virt. eigenvalues --    0.03296   0.03926   0.05075   0.05417   0.05873
 Alpha virt. eigenvalues --    0.06576   0.06836   0.08455   0.10275   0.11630
 Alpha virt. eigenvalues --    0.12133   0.12527   0.13379   0.14809   0.15421
 Alpha virt. eigenvalues --    0.16191   0.16501   0.16798   0.17295   0.18196
 Alpha virt. eigenvalues --    0.18520   0.18613   0.20496   0.21419   0.22750
 Alpha virt. eigenvalues --    0.23340   0.24432   0.25177   0.27348   0.27492
 Alpha virt. eigenvalues --    0.27933   0.28971   0.29515   0.30954   0.31924
 Alpha virt. eigenvalues --    0.32398   0.33562   0.34607   0.35288   0.36695
 Alpha virt. eigenvalues --    0.37062   0.37732   0.39114   0.40117   0.41654
 Alpha virt. eigenvalues --    0.42020   0.42520   0.43490   0.44867   0.45358
 Alpha virt. eigenvalues --    0.45828   0.46260   0.47939   0.49202   0.49819
 Alpha virt. eigenvalues --    0.50594   0.51496   0.52135   0.53121   0.54502
 Alpha virt. eigenvalues --    0.55135   0.57582   0.58469   0.59166   0.59879
 Alpha virt. eigenvalues --    0.60459   0.61135   0.62191   0.62357   0.63476
 Alpha virt. eigenvalues --    0.64984   0.65929   0.66831   0.67236   0.69261
 Alpha virt. eigenvalues --    0.69653   0.70042   0.71005   0.72378   0.72977
 Alpha virt. eigenvalues --    0.74888   0.75045   0.75880   0.76665   0.78138
 Alpha virt. eigenvalues --    0.79492   0.81260   0.81759   0.82906   0.85182
 Alpha virt. eigenvalues --    0.86019   0.87236   0.91282   0.93052   0.94218
 Alpha virt. eigenvalues --    0.97627   1.00642   1.01963   1.02208   1.05364
 Alpha virt. eigenvalues --    1.06451   1.08910   1.10811   1.12939   1.13344
 Alpha virt. eigenvalues --    1.16227   1.16927   1.20524   1.21862   1.24185
 Alpha virt. eigenvalues --    1.25551   1.26921   1.27639   1.29527   1.29987
 Alpha virt. eigenvalues --    1.32500   1.34049   1.35742   1.40383   1.44747
 Alpha virt. eigenvalues --    1.45697   1.48778   1.51185   1.53679   1.54652
 Alpha virt. eigenvalues --    1.56033   1.61208   1.63263   1.64635   1.66776
 Alpha virt. eigenvalues --    1.68087   1.68880   1.71675   1.74353   1.77420
 Alpha virt. eigenvalues --    1.78359   1.79340   1.81681   1.83461   1.84853
 Alpha virt. eigenvalues --    1.86274   1.89496   1.90755   1.92421   1.96163
 Alpha virt. eigenvalues --    1.97066   1.98559   2.03649   2.04545   2.07969
 Alpha virt. eigenvalues --    2.11539   2.12585   2.12982   2.15798   2.17653
 Alpha virt. eigenvalues --    2.20403   2.21640   2.22964   2.24717   2.27452
 Alpha virt. eigenvalues --    2.30624   2.34092   2.36984   2.38280   2.40407
 Alpha virt. eigenvalues --    2.42954   2.46207   2.47767   2.48528   2.53972
 Alpha virt. eigenvalues --    2.57127   2.63010   2.67006   2.67633   2.71472
 Alpha virt. eigenvalues --    2.75561   2.79554   2.83341   2.87467   2.90671
 Alpha virt. eigenvalues --    2.93160   2.95762   3.00285   3.04599   3.06844
 Alpha virt. eigenvalues --    3.11234   3.22667   3.26785   3.37747   3.53585
 Alpha virt. eigenvalues --    3.58168   3.60943   3.62300   3.62863   3.63639
 Alpha virt. eigenvalues --    3.65363   3.67206   3.69073   3.75473   3.77611
 Alpha virt. eigenvalues --    3.79623   3.81592   4.09318   4.15803   4.19856
          Condensed to atoms (all electrons):
 Mulliken charges:
               1
     1  C    0.885987
     2  O   -0.551075
     3  C   -0.726985
     4  O   -0.221456
     5  C    1.354626
     6  C    0.568167
     7  O   -0.532881
     8  H   -0.141814
     9  H   -0.193706
    10  H   -0.182007
    11  H   -0.313065
    12  H    0.174766
    13  H   -0.169038
    14  H   -0.071779
    15  H    0.120261
 Sum of Mulliken charges =   0.00000
 Mulliken charges with hydrogens summed into heavy atoms:
               1
     1  C    0.368461
     2  O   -0.376309
     3  C   -0.726985
     4  O   -0.221456
     5  C    1.041561
     6  C    0.327349
     7  O   -0.412620
 Electronic spatial extent (au):  <R**2>=           1309.3633
 Charge=              0.0000 electrons
 Dipole moment (field-independent basis, Debye):
    X=              0.5145    Y=             -0.2981    Z=              0.7720  Tot=              0.9744

 Test job not archived.
 1\1\GINC-SE105\SP\RHF\Aug-CC-pVDZ\C4H8O3\OHZDE\09-Apr-2025\0\\#t hf au
 g-cc-pvdz iop(5/13=1,5/36=2,99/5=2) pseudo=read geom=check guess=(read
 ,tcheck) scf=(maxcycle=1)\\title\\0,1\C,0,-3.0854918,-0.1445715,0.1863
 4851\O,0,-1.91395769,-0.52306583,0.88395501\C,0,0.26790889,0.02951958,
 -0.97801473\O,0,-0.38483945,-0.2043189,-1.90502428\C,0,1.03456557,0.32
 14687,0.04333948\C,0,2.50728115,0.51511066,-0.11586278\O,0,3.18999254,
 -0.62629583,0.38351859\H,0,-3.02986955,-0.40315368,-0.87598832\H,0,-3.
 98275978,-0.59729951,0.62079885\H,0,-3.17088835,0.93790725,0.27281269\
 H,0,0.5533749,0.34389515,1.01082414\H,0,-1.81713961,-1.4749452,0.83205
 36\H,0,2.74939024,0.68167185,-1.17218413\H,0,2.8116705,1.41007151,0.43
 912741\H,0,4.13067647,-0.43806224,0.38932395\\Version=ES64L-G16RevC.01
 \State=1-A\HF=-380.8428273\RMSD=3.686e-03\Dipole=0.1910402,0.2940566,0
 .1549475\Quadrupole=8.081302,-1.6381662,-6.4431359,4.9461687,-1.236476
 4,-0.3193014\PG=C01 [X(C4H8O3)]\\@


 SEEN ON A WALL AT THE UNIVERSITY OF ILLINOIS AT CHICAGO CIRCLE:

 TO DO IS TO BE  -- SOCRATES
 TO BE IS TO DO  -- SARTRE
 OO BE DO BE DO  -- SINATRA
 Job cpu time:       0 days  0 hours  0 minutes 55.7 seconds.
 Elapsed time:       0 days  0 hours  0 minutes  4.4 seconds.
 File lengths (MBytes):  RWF=     10 Int=      0 D2E=      0 Chk=      8 Scr=      1
 Normal termination of Gaussian 16 at Wed Apr  9 16:31:09 2025.
