 Entering Gaussian System, Link 0=g16
 Input=Grambow2020_b97d3_006887_reverse_mol1.gjf
 Output=Grambow2020_b97d3_006887_reverse_mol1.log
 Initial command:
 /arc/software/Gaussian/g16.c01/l1.exe "/tmp/slurm/4874803/Gau-484178.inp" -scrdir="/tmp/slurm/4874803/"
 Entering Link 1 = /arc/software/Gaussian/g16.c01/l1.exe PID=    484179.
  
 Copyright (c) 1988-2019, Gaussian, Inc.  All Rights Reserved.
  
 This is part of the Gaussian(R) 16 program.  It is based on
 the Gaussian(R) 09 system (copyright 2009, Gaussian, Inc.),
 the Gaussian(R) 03 system (copyright 2003, Gaussian, Inc.),
 the Gaussian(R) 98 system (copyright 1998, Gaussian, Inc.),
 the Gaussian(R) 94 system (copyright 1995, Gaussian, Inc.),
 the Gaussian 92(TM) system (copyright 1992, Gaussian, Inc.),
 the Gaussian 90(TM) system (copyright 1990, Gaussian, Inc.),
 the Gaussian 88(TM) system (copyright 1988, Gaussian, Inc.),
 the Gaussian 86(TM) system (copyright 1986, Carnegie Mellon
 University), and the Gaussian 82(TM) system (copyright 1983,
 Carnegie Mellon University). Gaussian is a federally registered
 trademark of Gaussian, Inc.
  
 This software contains proprietary and confidential information,
 including trade secrets, belonging to Gaussian, Inc.
  
 This software is provided under written license and may be
 used, copied, transmitted, or stored only in accord with that
 written license.
  
 The following legend is applicable only to US Government
 contracts under FAR:
  
                    RESTRICTED RIGHTS LEGEND
  
 Use, reproduction and disclosure by the US Government is
 subject to restrictions as set forth in subparagraphs (a)
 and (c) of the Commercial Computer Software - Restricted
 Rights clause in FAR 52.227-19.
  
 Gaussian, Inc.
 340 Quinnipiac St., Bldg. 40, Wallingford CT 06492
  
  
 ---------------------------------------------------------------
 Warning -- This program may not be used in any manner that
 competes with the business of Gaussian, Inc. or will provide
 assistance to any competitor of Gaussian, Inc.  The licensee
 of this program is prohibited from giving any competitor of
 Gaussian, Inc. access to this program.  By using this program,
 the user acknowledges that Gaussian, Inc. is engaged in the
 business of creating and licensing software in the field of
 computational chemistry and represents and warrants to the
 licensee that it is not a competitor of Gaussian, Inc. and that
 it will not use this program in any manner prohibited above.
 ---------------------------------------------------------------
  

 Cite this work as:
 Gaussian 16, Revision C.01,
 M. J. Frisch, G. W. Trucks, H. B. Schlegel, G. E. Scuseria, 
 M. A. Robb, J. R. Cheeseman, G. Scalmani, V. Barone, 
 G. A. Petersson, H. Nakatsuji, X. Li, M. Caricato, A. V. Marenich, 
 J. Bloino, B. G. Janesko, R. Gomperts, B. Mennucci, H. P. Hratchian, 
 J. V. Ortiz, A. F. Izmaylov, J. L. Sonnenberg, D. Williams-Young, 
 F. Ding, F. Lipparini, F. Egidi, J. Goings, B. Peng, A. Petrone, 
 T. Henderson, D. Ranasinghe, V. G. Zakrzewski, J. Gao, N. Rega, 
 G. Zheng, W. Liang, M. Hada, M. Ehara, K. Toyota, R. Fukuda, 
 J. Hasegawa, M. Ishida, T. Nakajima, Y. Honda, O. Kitao, H. Nakai, 
 T. Vreven, K. Throssell, J. A. Montgomery, Jr., J. E. Peralta, 
 F. Ogliaro, M. J. Bearpark, J. J. Heyd, E. N. Brothers, K. N. Kudin, 
 V. N. Staroverov, T. A. Keith, R. Kobayashi, J. Normand, 
 K. Raghavachari, A. P. Rendell, J. C. Burant, S. S. Iyengar, 
 J. Tomasi, M. Cossi, J. M. Millam, M. Klene, C. Adamo, R. Cammi, 
 J. W. Ochterski, R. L. Martin, K. Morokuma, O. Farkas, 
 J. B. Foresman, and D. J. Fox, Gaussian, Inc., Wallingford CT, 2019.
 
 ******************************************
 Gaussian 16:  ES64L-G16RevC.01  3-Jul-2019
                 9-Apr-2025 
 ******************************************
 %nprocs=16
 Will use up to   16 processors via shared memory.
 %mem=30GB
 %chk=Grambow2020_b97d3_006887_reverse_mol1.chk
 ----------------------------------------------------------------------
 #t hf aug-cc-pvdz symm=none int=(grid=ultrafine) guess=(read,tcheck) s
 table=(opt,rrhf)
 ----------------------------------------------------------------------
 -----
 title
 -----
 Symbolic Z-matrix:
 Charge =  0 Multiplicity = 1
 N                    -1.58544  -0.58717  -0.16817 
 C                    -0.8608    0.47821   0.01296 
 C                     0.55028   0.54548  -0.04566 
 C                     1.41168  -0.65343   0.12688 
 N                     0.84028  -1.6642   -0.33931 
 H                    -2.53828  -0.45079   0.20639 
 H                    -1.30805   1.45684   0.2735 
 H                     1.02442   1.42562  -0.49214 
 H                     2.47041  -0.56888   0.42587 
 
                    Distance matrix (angstroms):
                    1          2          3          4          5
     1  N    0.000000
     2  C    1.301138   0.000000
     3  C    2.420579   1.413891   0.000000
     4  C    3.012345   2.541212   1.486327   0.000000
     5  N    2.659585   2.758199   2.247888   1.251200   0.000000
     6  H    1.032852   1.927275   3.255030   3.955953   3.631082
     7  H    2.109502   1.107082   2.094234   3.445531   3.838192
     8  H    3.311751   2.169507   1.094904   2.203544   3.099075
     9  H    4.099168   3.516228   2.269595   1.103379   2.107739
                    6          7          8          9
     6  H    0.000000
     7  H    2.270904   0.000000
     8  H    4.086767   2.455114   0.000000
     9  H    5.014884   4.289936   2.629008   0.000000
 Symmetry turned off by external request.
 Rotational constants (GHZ):          10.9603882           4.8084117           3.4144126
   151 basis functions,   259 primitive gaussians,   161 cartesian basis functions
    18 alpha electrons       18 beta electrons
       nuclear repulsion energy       145.9124784834 Hartrees.
 NAtoms=    9 NActive=    9 NUniq=    9 SFac= 1.00D+00 NAtFMM=   60 NAOKFM=F Big=F
 ExpMin= 2.97D-02 ExpMax= 9.05D+03 ExpMxC= 3.09D+02 IAcc=3 IRadAn=         5 AccDes= 0.00D+00
 Harris functional with IExCor=  205 and IRadAn=       5 diagonalized for initial guess.
 HarFok:  IExCor=  205 AccDes= 0.00D+00 IRadAn=         5 IDoV= 1 UseB2=F ITyADJ=14
 ICtDFT=  3500011 ScaDFX=  1.000000  1.000000  1.000000  1.000000
 FoFCou: FMM=F IPFlag=           0 FMFlag=      100000 FMFlg1=           0
         NFxFlg=           0 DoJE=T BraDBF=F KetDBF=T FulRan=T
         wScrn=  0.000000 ICntrl=       500 IOpCl=  0 I1Cent=   200000004 NGrid=           0
         NMat0=    1 NMatS0=      1 NMatT0=    0 NMatD0=    1 NMtDS0=    0 NMtDT0=    0
 Symmetry not used in FoFCou.
 SCF Done:  E(RHF) =  -224.669359648     A.U. after   20 cycles
            NFock= 20  Conv=0.40D-08     -V/T= 2.0022

 **********************************************************************

            Population analysis using the SCF Density.

 **********************************************************************

 Alpha  occ. eigenvalues --  -15.64449 -15.56505 -11.32063 -11.30093 -11.29167
 Alpha  occ. eigenvalues --   -1.24931  -1.19309  -1.00658  -0.83991  -0.73625
 Alpha  occ. eigenvalues --   -0.69965  -0.63007  -0.59805  -0.57112  -0.50003
 Alpha  occ. eigenvalues --   -0.46001  -0.40619  -0.31483
 Alpha virt. eigenvalues --    0.00500   0.03070   0.03974   0.04955   0.06396
 Alpha virt. eigenvalues --    0.09533   0.10056   0.10742   0.12549   0.12967
 Alpha virt. eigenvalues --    0.14096   0.14902   0.14985   0.15741   0.16556
 Alpha virt. eigenvalues --    0.17903   0.18587   0.20616   0.20822   0.22668
 Alpha virt. eigenvalues --    0.23240   0.25980   0.26381   0.28276   0.28986
 Alpha virt. eigenvalues --    0.31795   0.33154   0.35334   0.35523   0.36680
 Alpha virt. eigenvalues --    0.39539   0.40188   0.40989   0.41780   0.43327
 Alpha virt. eigenvalues --    0.44933   0.45912   0.49210   0.50962   0.51899
 Alpha virt. eigenvalues --    0.53108   0.55565   0.58715   0.59067   0.60232
 Alpha virt. eigenvalues --    0.61306   0.62777   0.63840   0.66431   0.68384
 Alpha virt. eigenvalues --    0.69032   0.70124   0.70723   0.72969   0.75072
 Alpha virt. eigenvalues --    0.77196   0.78036   0.78594   0.81483   0.83085
 Alpha virt. eigenvalues --    0.85277   0.86547   0.88454   0.90958   0.91785
 Alpha virt. eigenvalues --    0.94358   0.94793   0.95816   0.96953   1.00217
 Alpha virt. eigenvalues --    1.02982   1.04453   1.06383   1.13154   1.15796
 Alpha virt. eigenvalues --    1.20416   1.24376   1.26034   1.29562   1.33402
 Alpha virt. eigenvalues --    1.42854   1.46714   1.50906   1.51624   1.52851
 Alpha virt. eigenvalues --    1.54649   1.60531   1.64084   1.65589   1.67292
 Alpha virt. eigenvalues --    1.68850   1.70311   1.72093   1.75999   1.81505
 Alpha virt. eigenvalues --    1.86876   1.89607   1.92789   1.95218   1.98144
 Alpha virt. eigenvalues --    2.00631   2.05483   2.06041   2.10461   2.12908
 Alpha virt. eigenvalues --    2.18987   2.22172   2.25171   2.29002   2.32046
 Alpha virt. eigenvalues --    2.34425   2.38684   2.43606   2.47636   2.50317
 Alpha virt. eigenvalues --    2.55939   2.60837   2.65327   2.66405   2.68475
 Alpha virt. eigenvalues --    2.76357   2.83469   2.85821   2.88996   2.92123
 Alpha virt. eigenvalues --    3.01813   3.07487   3.11195   3.20364   3.28941
 Alpha virt. eigenvalues --    3.37999   3.44211   3.68856
          Condensed to atoms (all electrons):
 Mulliken charges:
               1
     1  N   -0.541388
     2  C    0.691844
     3  C    0.201348
     4  C    0.667645
     5  N   -0.475221
     6  H    0.031634
     7  H   -0.220248
     8  H   -0.270849
     9  H   -0.084765
 Sum of Mulliken charges =  -0.00000
 Mulliken charges with hydrogens summed into heavy atoms:
               1
     1  N   -0.509754
     2  C    0.471597
     3  C   -0.069501
     4  C    0.582880
     5  N   -0.475221
 Electronic spatial extent (au):  <R**2>=            387.0262
 Charge=             -0.0000 electrons
 Dipole moment (field-independent basis, Debye):
    X=              1.4441    Y=              3.2858    Z=              1.3309  Tot=              3.8280
 NROrb=    151 NOA=    18 NOB=    18 NVA=   133 NVB=   133

 **** Warning!!: The largest alpha MO coefficient is  0.37492541D+02

    12 initial guesses have been made.
 Iteration     1 Dimension    12 NMult     0 NNew     12
 Iteration     2 Dimension    24 NMult    12 NNew     12
 Iteration     3 Dimension    27 NMult    24 NNew      3
 Iteration     4 Dimension    30 NMult    27 NNew      3
 Iteration     5 Dimension    33 NMult    30 NNew      3
 Iteration     6 Dimension    36 NMult    33 NNew      3
 ***********************************************************************
 Stability analysis using <AA,BB:AA,BB> singles matrix:
 ***********************************************************************
 Ground to excited state transition densities written to RWF  633

 Eigenvectors of the stability matrix:
 
 Excited state symmetry could not be determined.
 Eigenvector   1:      Singlet-?Sym  Eigenvalue= 0.0469730  <S**2>=0.000
      15 -> 19        -0.17503
      15 -> 25        -0.11769
      16 -> 19         0.11929
      17 -> 19        -0.12158
      18 -> 19         0.54997
      18 -> 25         0.14957
 The wavefunction is stable under the perturbations considered.
 The wavefunction is already stable.

 **********************************************************************

            Population analysis using the SCF Density.

 **********************************************************************

 Alpha  occ. eigenvalues --  -15.64449 -15.56505 -11.32063 -11.30093 -11.29167
 Alpha  occ. eigenvalues --   -1.24931  -1.19309  -1.00658  -0.83991  -0.73625
 Alpha  occ. eigenvalues --   -0.69965  -0.63007  -0.59805  -0.57112  -0.50003
 Alpha  occ. eigenvalues --   -0.46001  -0.40619  -0.31483
 Alpha virt. eigenvalues --    0.00500   0.03070   0.03974   0.04955   0.06396
 Alpha virt. eigenvalues --    0.09533   0.10056   0.10742   0.12549   0.12967
 Alpha virt. eigenvalues --    0.14096   0.14902   0.14985   0.15741   0.16556
 Alpha virt. eigenvalues --    0.17903   0.18587   0.20616   0.20822   0.22668
 Alpha virt. eigenvalues --    0.23240   0.25980   0.26381   0.28276   0.28986
 Alpha virt. eigenvalues --    0.31795   0.33154   0.35334   0.35523   0.36680
 Alpha virt. eigenvalues --    0.39539   0.40188   0.40989   0.41780   0.43327
 Alpha virt. eigenvalues --    0.44933   0.45912   0.49210   0.50962   0.51899
 Alpha virt. eigenvalues --    0.53108   0.55565   0.58715   0.59067   0.60232
 Alpha virt. eigenvalues --    0.61306   0.62777   0.63840   0.66431   0.68384
 Alpha virt. eigenvalues --    0.69032   0.70124   0.70723   0.72969   0.75072
 Alpha virt. eigenvalues --    0.77196   0.78036   0.78594   0.81483   0.83085
 Alpha virt. eigenvalues --    0.85277   0.86547   0.88454   0.90958   0.91785
 Alpha virt. eigenvalues --    0.94358   0.94793   0.95816   0.96953   1.00217
 Alpha virt. eigenvalues --    1.02982   1.04453   1.06383   1.13154   1.15796
 Alpha virt. eigenvalues --    1.20416   1.24376   1.26034   1.29562   1.33402
 Alpha virt. eigenvalues --    1.42854   1.46714   1.50906   1.51624   1.52851
 Alpha virt. eigenvalues --    1.54649   1.60531   1.64084   1.65589   1.67292
 Alpha virt. eigenvalues --    1.68850   1.70311   1.72093   1.75999   1.81505
 Alpha virt. eigenvalues --    1.86876   1.89607   1.92789   1.95218   1.98144
 Alpha virt. eigenvalues --    2.00631   2.05483   2.06041   2.10461   2.12908
 Alpha virt. eigenvalues --    2.18987   2.22172   2.25171   2.29002   2.32046
 Alpha virt. eigenvalues --    2.34425   2.38684   2.43606   2.47636   2.50317
 Alpha virt. eigenvalues --    2.55939   2.60837   2.65327   2.66405   2.68475
 Alpha virt. eigenvalues --    2.76357   2.83469   2.85821   2.88996   2.92123
 Alpha virt. eigenvalues --    3.01813   3.07487   3.11195   3.20364   3.28941
 Alpha virt. eigenvalues --    3.37999   3.44211   3.68856
          Condensed to atoms (all electrons):
 Mulliken charges:
               1
     1  N   -0.541388
     2  C    0.691844
     3  C    0.201348
     4  C    0.667645
     5  N   -0.475221
     6  H    0.031634
     7  H   -0.220248
     8  H   -0.270849
     9  H   -0.084765
 Sum of Mulliken charges =  -0.00000
 Mulliken charges with hydrogens summed into heavy atoms:
               1
     1  N   -0.509754
     2  C    0.471597
     3  C   -0.069501
     4  C    0.582880
     5  N   -0.475221
 Electronic spatial extent (au):  <R**2>=            387.0262
 Charge=             -0.0000 electrons
 Dipole moment (field-independent basis, Debye):
    X=              1.4441    Y=              3.2858    Z=              1.3309  Tot=              3.8280
 Unable to Open any file for archive entry.
 1\1\GINC-SE026\Stability\RHF\Aug-CC-pVDZ\C3H4N2\OHZDE\09-Apr-2025\0\\#
 t hf aug-cc-pvdz symm=none int=(grid=ultrafine) guess=(read,tcheck) st
 able=(opt,rrhf)\\title\\0,1\N,0,-1.58544419,-0.58717172,-0.16816684\C,
 0,-0.86079828,0.47821104,0.01296005\C,0,0.55027519,0.54547822,-0.04565
 691\C,0,1.41168397,-0.65342679,0.12687977\N,0,0.84027505,-1.66419798,-
 0.33931294\H,0,-2.53827517,-0.4507894,0.20639493\H,0,-1.30805084,1.456
 84062,0.27349558\H,0,1.02441965,1.42562432,-0.49213597\H,0,2.47041162,
 -0.5688823,0.42586834\\Version=ES64L-G16RevC.01\HF=-224.6693596\RMSD=4
 .043e-09\Dipole=0.5681568,1.29274,0.523628\Quadrupole=4.5351065,-2.605
 765,-1.9293415,-1.4869168,-0.4619703,-2.0431544\PG=Unknown\\@
 The archive entry for this job was punched.


 MAN IS A SINGULAR CREATURE.  HE HAS A SET OF GIFTS
 WHICH MAKE HIM UNIQUE AMONG THE ANIMALS: SO THAT, 
 UNLIKE THEM, HE IS NOT A FIGURE IN THE LANDSCAPE --
 HE IS A SHAPER OF THE LANDSCAPE.

                       -- JACOB BRONOWSKI
 Job cpu time:       0 days  0 hours  0 minutes 49.0 seconds.
 Elapsed time:       0 days  0 hours  0 minutes  6.7 seconds.
 File lengths (MBytes):  RWF=    125 Int=      0 D2E=      0 Chk=      4 Scr=      1
 Normal termination of Gaussian 16 at Wed Apr  9 14:15:58 2025.
 Initial command:
 /arc/software/Gaussian/g16.c01/l1.exe "/tmp/slurm/4874803/Gau-484178.inp" -scrdir="/tmp/slurm/4874803/"
 Entering Link 1 = /arc/software/Gaussian/g16.c01/l1.exe PID=    484390.
  
 Copyright (c) 1988-2019, Gaussian, Inc.  All Rights Reserved.
  
 This is part of the Gaussian(R) 16 program.  It is based on
 the Gaussian(R) 09 system (copyright 2009, Gaussian, Inc.),
 the Gaussian(R) 03 system (copyright 2003, Gaussian, Inc.),
 the Gaussian(R) 98 system (copyright 1998, Gaussian, Inc.),
 the Gaussian(R) 94 system (copyright 1995, Gaussian, Inc.),
 the Gaussian 92(TM) system (copyright 1992, Gaussian, Inc.),
 the Gaussian 90(TM) system (copyright 1990, Gaussian, Inc.),
 the Gaussian 88(TM) system (copyright 1988, Gaussian, Inc.),
 the Gaussian 86(TM) system (copyright 1986, Carnegie Mellon
 University), and the Gaussian 82(TM) system (copyright 1983,
 Carnegie Mellon University). Gaussian is a federally registered
 trademark of Gaussian, Inc.
  
 This software contains proprietary and confidential information,
 including trade secrets, belonging to Gaussian, Inc.
  
 This software is provided under written license and may be
 used, copied, transmitted, or stored only in accord with that
 written license.
  
 The following legend is applicable only to US Government
 contracts under FAR:
  
                    RESTRICTED RIGHTS LEGEND
  
 Use, reproduction and disclosure by the US Government is
 subject to restrictions as set forth in subparagraphs (a)
 and (c) of the Commercial Computer Software - Restricted
 Rights clause in FAR 52.227-19.
  
 Gaussian, Inc.
 340 Quinnipiac St., Bldg. 40, Wallingford CT 06492
  
  
 ---------------------------------------------------------------
 Warning -- This program may not be used in any manner that
 competes with the business of Gaussian, Inc. or will provide
 assistance to any competitor of Gaussian, Inc.  The licensee
 of this program is prohibited from giving any competitor of
 Gaussian, Inc. access to this program.  By using this program,
 the user acknowledges that Gaussian, Inc. is engaged in the
 business of creating and licensing software in the field of
 computational chemistry and represents and warrants to the
 licensee that it is not a competitor of Gaussian, Inc. and that
 it will not use this program in any manner prohibited above.
 ---------------------------------------------------------------
  

 Cite this work as:
 Gaussian 16, Revision C.01,
 M. J. Frisch, G. W. Trucks, H. B. Schlegel, G. E. Scuseria, 
 M. A. Robb, J. R. Cheeseman, G. Scalmani, V. Barone, 
 G. A. Petersson, H. Nakatsuji, X. Li, M. Caricato, A. V. Marenich, 
 J. Bloino, B. G. Janesko, R. Gomperts, B. Mennucci, H. P. Hratchian, 
 J. V. Ortiz, A. F. Izmaylov, J. L. Sonnenberg, D. Williams-Young, 
 F. Ding, F. Lipparini, F. Egidi, J. Goings, B. Peng, A. Petrone, 
 T. Henderson, D. Ranasinghe, V. G. Zakrzewski, J. Gao, N. Rega, 
 G. Zheng, W. Liang, M. Hada, M. Ehara, K. Toyota, R. Fukuda, 
 J. Hasegawa, M. Ishida, T. Nakajima, Y. Honda, O. Kitao, H. Nakai, 
 T. Vreven, K. Throssell, J. A. Montgomery, Jr., J. E. Peralta, 
 F. Ogliaro, M. J. Bearpark, J. J. Heyd, E. N. Brothers, K. N. Kudin, 
 V. N. Staroverov, T. A. Keith, R. Kobayashi, J. Normand, 
 K. Raghavachari, A. P. Rendell, J. C. Burant, S. S. Iyengar, 
 J. Tomasi, M. Cossi, J. M. Millam, M. Klene, C. Adamo, R. Cammi, 
 J. W. Ochterski, R. L. Martin, K. Morokuma, O. Farkas, 
 J. B. Foresman, and D. J. Fox, Gaussian, Inc., Wallingford CT, 2019.
 
 ******************************************
 Gaussian 16:  ES64L-G16RevC.01  3-Jul-2019
                 9-Apr-2025 
 ******************************************
 %nprocs=16
 Will use up to   16 processors via shared memory.
 %mem=30GB
 %chk=Grambow2020_b97d3_006887_reverse_mol1.chk
 ----------------------------------------------------------------------
 #t hf aug-cc-pvdz iop(5/13=1,5/36=2,99/5=2) pseudo=read geom=check gue
 ss=(read,tcheck) scf=(maxcycle=1)
 ----------------------------------------------------------------------
 -----
 title
 -----
 Structure from the checkpoint file:  "Grambow2020_b97d3_006887_reverse_mol1.chk"
 Charge =  0 Multiplicity = 1
 Z-Matrix found in chk file.
 N,0,-1.58544419,-0.58717172,-0.16816684
 C,0,-0.86079828,0.47821104,0.01296005
 C,0,0.55027519,0.54547822,-0.04565691
 C,0,1.41168397,-0.65342679,0.12687977
 N,0,0.84027505,-1.66419798,-0.33931294
 H,0,-2.53827517,-0.4507894,0.20639493
 H,0,-1.30805084,1.45684062,0.27349558
 H,0,1.02441965,1.42562432,-0.49213597
 H,0,2.47041162,-0.5688823,0.42586834
 Recover connectivity data from disk.
                    Distance matrix (angstroms):
                    1          2          3          4          5
     1  N    0.000000
     2  C    1.301138   0.000000
     3  C    2.420579   1.413891   0.000000
     4  C    3.012345   2.541212   1.486327   0.000000
     5  N    2.659585   2.758199   2.247888   1.251200   0.000000
     6  H    1.032852   1.927275   3.255030   3.955953   3.631082
     7  H    2.109502   1.107082   2.094234   3.445531   3.838192
     8  H    3.311751   2.169507   1.094904   2.203544   3.099075
     9  H    4.099168   3.516228   2.269595   1.103379   2.107739
                    6          7          8          9
     6  H    0.000000
     7  H    2.270904   0.000000
     8  H    4.086767   2.455114   0.000000
     9  H    5.014884   4.289936   2.629008   0.000000
 Framework group  C1[X(C3H4N2)]
 Deg. of freedom    21
                         Standard orientation:                         
 ---------------------------------------------------------------------
 Center     Atomic      Atomic             Coordinates (Angstroms)
 Number     Number       Type             X           Y           Z
 ---------------------------------------------------------------------
      1          7           0        1.456507   -0.749929    0.025323
      2          6           0        1.092604    0.498266   -0.025101
      3          6           0       -0.230952    0.984683    0.078279
      4          6           0       -1.416110    0.129984   -0.193856
      5          7           0       -1.183125   -1.050325    0.149788
      6          1           0        2.407670   -0.870550   -0.358765
      7          1           0        1.818669    1.316527   -0.195124
      8          1           0       -0.416485    1.914433    0.625960
      9          1           0       -2.396780    0.563774   -0.453777
 ---------------------------------------------------------------------
 Rotational constants (GHZ):          10.9603882           4.8084117           3.4144126
 ======================================================================================================
                                       Pseudopotential Parameters
 ======================================================================================================
  Center     Atomic      Valence      Angular      Power
  Number     Number     Electrons     Momentum     of R      Exponent        Coefficient   SO-Coeffient
 ======================================================================================================
    1          7            7
                                      G and up 
                                                     0        0.0000010       -0.00000022    0.00000000
                                                     2        0.1200000       -0.00992020    0.00000000
                                                     2        0.1400000        0.02578711    0.00000000
                                                     2        0.2200000       -0.10543517    0.00000000
                                                     2        0.3000000        0.23013665    0.00000000
                                                     2        0.5000000       -0.60834094    0.00000000
                                                     2        0.8000000        1.81436815    0.00000000
                                                     2        1.2000000       -3.87539738    0.00000000
                                                     2        2.0000000        2.94656640    0.00000000
                                      S - G
                                                     0        0.0000010       -0.00223566    0.00000000
                                                     2        0.1200000        0.45247937    0.00000000
                                                     2        0.1600000       -0.78978304    0.00000000
                                                     2        0.4000000        0.84956595    0.00000000
                                                     2        3.0000000       -0.75910174    0.00000000
                                      P - G
                                                     0        0.0000010       -0.25576737    0.00000000
                                                     2        0.1200000       -0.19992277    0.00000000
                                                     2        0.1600000        0.88518512    0.00000000
                                                     2        0.2400000       -1.33293917    0.00000000
                                                     2        0.4000000        1.33451776    0.00000000
                                                     2        0.9000000       -0.55709210    0.00000000
                                                     2        2.5000000        2.48506502    0.00000000
                                      D - G
                                                     0        0.0000010        0.26143746    0.00000000
                                                     2        0.1200000       -0.04492212    0.00000000
                                                     2        0.1400000       -0.18274021    0.00000000
                                                     2        0.2400000        0.53490004    0.00000000
                                                     2        0.4000000       -0.74136473    0.00000000
                                                     2        1.3000000        1.71401021    0.00000000
                                      F - G
                                                     0        0.0000010       -0.07169988    0.00000000
                                                     2        0.1200000        0.04480029    0.00000000
                                                     2        0.2600000       -0.08050831    0.00000000
                                                     2        0.5000000        0.31290809    0.00000000
                                                     2        1.0000000       -0.45253098    0.00000000
    2          6            6
                                      G and up 
                                                     0        0.0000010       -0.00011185    0.00000000
                                                     2        0.1200000       -0.02301220    0.00000000
                                                     2        0.1400000        0.13317600    0.00000000
                                                     2        0.1600000       -0.19690668    0.00000000
                                                     2        0.2200000        0.23163694    0.00000000
                                                     2        0.3000000       -0.36920489    0.00000000
                                                     2        0.4000000        0.36389709    0.00000000
                                                     2        0.7000000       -0.38862160    0.00000000
                                                     2        1.3000000        0.80803421    0.00000000
                                      S - G
                                                     0        0.0000010        0.00312304    0.00000000
                                                     2        0.1200000       -0.00632892    0.00000000
                                                     2        0.2200000       -0.03780897    0.00000000
                                                     2        0.4000000        0.26269560    0.00000000
                                                     2        0.9000000       -0.28209514    0.00000000
                                                     2        1.5000000       -0.72686737    0.00000000
                                      P - G
                                                     0        0.0000010       -0.01465594    0.00000000
                                                     2        0.1200000        0.07908409    0.00000000
                                                     2        0.1800000       -0.30615861    0.00000000
                                                     2        0.2600000        0.41506950    0.00000000
                                                     2        0.5000000       -0.36252345    0.00000000
                                                     2        0.9000000        0.15124193    0.00000000
                                                     2        3.0000000       -0.80425677    0.00000000
                                      D - G
                                                     0        0.0000010        0.01149631    0.00000000
                                                     2        0.1200000       -0.04713561    0.00000000
                                                     2        0.1600000        0.10865096    0.00000000
                                                     2        0.2800000       -0.15816701    0.00000000
                                                     2        0.7000000        0.65478804    0.00000000
                                                     2        1.3000000       -1.73816624    0.00000000
                                      F - G
                                                     0        0.0000010        0.00481868    0.00000000
                                                     2        0.1200000       -0.04746842    0.00000000
                                                     2        0.1600000        0.09327889    0.00000000
                                                     2        0.4000000       -0.19693326    0.00000000
                                                     2        0.9000000        0.34938253    0.00000000
    3          6            6
                                      G and up 
                                                     0        0.0000010       -0.00011185    0.00000000
                                                     2        0.1200000       -0.02301220    0.00000000
                                                     2        0.1400000        0.13317600    0.00000000
                                                     2        0.1600000       -0.19690668    0.00000000
                                                     2        0.2200000        0.23163694    0.00000000
                                                     2        0.3000000       -0.36920489    0.00000000
                                                     2        0.4000000        0.36389709    0.00000000
                                                     2        0.7000000       -0.38862160    0.00000000
                                                     2        1.3000000        0.80803421    0.00000000
                                      S - G
                                                     0        0.0000010        0.00312304    0.00000000
                                                     2        0.1200000       -0.00632892    0.00000000
                                                     2        0.2200000       -0.03780897    0.00000000
                                                     2        0.4000000        0.26269560    0.00000000
                                                     2        0.9000000       -0.28209514    0.00000000
                                                     2        1.5000000       -0.72686737    0.00000000
                                      P - G
                                                     0        0.0000010       -0.01465594    0.00000000
                                                     2        0.1200000        0.07908409    0.00000000
                                                     2        0.1800000       -0.30615861    0.00000000
                                                     2        0.2600000        0.41506950    0.00000000
                                                     2        0.5000000       -0.36252345    0.00000000
                                                     2        0.9000000        0.15124193    0.00000000
                                                     2        3.0000000       -0.80425677    0.00000000
                                      D - G
                                                     0        0.0000010        0.01149631    0.00000000
                                                     2        0.1200000       -0.04713561    0.00000000
                                                     2        0.1600000        0.10865096    0.00000000
                                                     2        0.2800000       -0.15816701    0.00000000
                                                     2        0.7000000        0.65478804    0.00000000
                                                     2        1.3000000       -1.73816624    0.00000000
                                      F - G
                                                     0        0.0000010        0.00481868    0.00000000
                                                     2        0.1200000       -0.04746842    0.00000000
                                                     2        0.1600000        0.09327889    0.00000000
                                                     2        0.4000000       -0.19693326    0.00000000
                                                     2        0.9000000        0.34938253    0.00000000
    4          6            6
                                      G and up 
                                                     0        0.0000010       -0.00011185    0.00000000
                                                     2        0.1200000       -0.02301220    0.00000000
                                                     2        0.1400000        0.13317600    0.00000000
                                                     2        0.1600000       -0.19690668    0.00000000
                                                     2        0.2200000        0.23163694    0.00000000
                                                     2        0.3000000       -0.36920489    0.00000000
                                                     2        0.4000000        0.36389709    0.00000000
                                                     2        0.7000000       -0.38862160    0.00000000
                                                     2        1.3000000        0.80803421    0.00000000
                                      S - G
                                                     0        0.0000010        0.00312304    0.00000000
                                                     2        0.1200000       -0.00632892    0.00000000
                                                     2        0.2200000       -0.03780897    0.00000000
                                                     2        0.4000000        0.26269560    0.00000000
                                                     2        0.9000000       -0.28209514    0.00000000
                                                     2        1.5000000       -0.72686737    0.00000000
                                      P - G
                                                     0        0.0000010       -0.01465594    0.00000000
                                                     2        0.1200000        0.07908409    0.00000000
                                                     2        0.1800000       -0.30615861    0.00000000
                                                     2        0.2600000        0.41506950    0.00000000
                                                     2        0.5000000       -0.36252345    0.00000000
                                                     2        0.9000000        0.15124193    0.00000000
                                                     2        3.0000000       -0.80425677    0.00000000
                                      D - G
                                                     0        0.0000010        0.01149631    0.00000000
                                                     2        0.1200000       -0.04713561    0.00000000
                                                     2        0.1600000        0.10865096    0.00000000
                                                     2        0.2800000       -0.15816701    0.00000000
                                                     2        0.7000000        0.65478804    0.00000000
                                                     2        1.3000000       -1.73816624    0.00000000
                                      F - G
                                                     0        0.0000010        0.00481868    0.00000000
                                                     2        0.1200000       -0.04746842    0.00000000
                                                     2        0.1600000        0.09327889    0.00000000
                                                     2        0.4000000       -0.19693326    0.00000000
                                                     2        0.9000000        0.34938253    0.00000000
    5          7            7
                                      G and up 
                                                     0        0.0000010       -0.00000022    0.00000000
                                                     2        0.1200000       -0.00992020    0.00000000
                                                     2        0.1400000        0.02578711    0.00000000
                                                     2        0.2200000       -0.10543517    0.00000000
                                                     2        0.3000000        0.23013665    0.00000000
                                                     2        0.5000000       -0.60834094    0.00000000
                                                     2        0.8000000        1.81436815    0.00000000
                                                     2        1.2000000       -3.87539738    0.00000000
                                                     2        2.0000000        2.94656640    0.00000000
                                      S - G
                                                     0        0.0000010       -0.00223566    0.00000000
                                                     2        0.1200000        0.45247937    0.00000000
                                                     2        0.1600000       -0.78978304    0.00000000
                                                     2        0.4000000        0.84956595    0.00000000
                                                     2        3.0000000       -0.75910174    0.00000000
                                      P - G
                                                     0        0.0000010       -0.25576737    0.00000000
                                                     2        0.1200000       -0.19992277    0.00000000
                                                     2        0.1600000        0.88518512    0.00000000
                                                     2        0.2400000       -1.33293917    0.00000000
                                                     2        0.4000000        1.33451776    0.00000000
                                                     2        0.9000000       -0.55709210    0.00000000
                                                     2        2.5000000        2.48506502    0.00000000
                                      D - G
                                                     0        0.0000010        0.26143746    0.00000000
                                                     2        0.1200000       -0.04492212    0.00000000
                                                     2        0.1400000       -0.18274021    0.00000000
                                                     2        0.2400000        0.53490004    0.00000000
                                                     2        0.4000000       -0.74136473    0.00000000
                                                     2        1.3000000        1.71401021    0.00000000
                                      F - G
                                                     0        0.0000010       -0.07169988    0.00000000
                                                     2        0.1200000        0.04480029    0.00000000
                                                     2        0.2600000       -0.08050831    0.00000000
                                                     2        0.5000000        0.31290809    0.00000000
                                                     2        1.0000000       -0.45253098    0.00000000
    6          1            1
                                      F and up 
                                                     0        0.0000010       -0.00000699    0.00000000
                                                     2        0.1200000        0.00123686    0.00000000
                                                     2        0.1800000       -0.00752022    0.00000000
                                                     2        0.2600000        0.02503380    0.00000000
                                                     2        0.4000000       -0.08702670    0.00000000
                                                     2        0.6000000        0.30134159    0.00000000
                                                     2        0.8000000       -0.50204959    0.00000000
                                                     2        1.2000000        0.52208372    0.00000000
                                      S - F
                                                     0        0.0000010       -0.01618346    0.00000000
                                                     2        0.1200000       -0.07880581    0.00000000
                                                     2        0.1600000        0.32040539    0.00000000
                                                     2        0.2400000       -0.47500956    0.00000000
                                                     2        0.5000000        0.54013668    0.00000000
                                                     2        1.5000000       -1.40434292    0.00000000
                                                     2        3.0000000        1.46283806    0.00000000
                                      P - F
                                                     0        0.0000010        0.00612970    0.00000000
                                                     2        0.1200000        0.02254406    0.00000000
                                                     2        0.1800000       -0.13874529    0.00000000
                                                     2        0.3000000        0.38299049    0.00000000
                                                     2        0.5000000       -0.57923512    0.00000000
                                                     2        1.0000000        0.63021625    0.00000000
                                                     2        2.0000000       -0.79201034    0.00000000
                                      D - F
                                                     0        0.0000010       -0.00296226    0.00000000
                                                     2        0.1200000       -0.00547344    0.00000000
                                                     2        0.1400000        0.01837884    0.00000000
                                                     2        0.2400000       -0.05565704    0.00000000
                                                     2        0.4000000        0.15376597    0.00000000
                                                     2        0.8000000       -0.32464795    0.00000000
    7          1            1
                                      F and up 
                                                     0        0.0000010       -0.00000699    0.00000000
                                                     2        0.1200000        0.00123686    0.00000000
                                                     2        0.1800000       -0.00752022    0.00000000
                                                     2        0.2600000        0.02503380    0.00000000
                                                     2        0.4000000       -0.08702670    0.00000000
                                                     2        0.6000000        0.30134159    0.00000000
                                                     2        0.8000000       -0.50204959    0.00000000
                                                     2        1.2000000        0.52208372    0.00000000
                                      S - F
                                                     0        0.0000010       -0.01618346    0.00000000
                                                     2        0.1200000       -0.07880581    0.00000000
                                                     2        0.1600000        0.32040539    0.00000000
                                                     2        0.2400000       -0.47500956    0.00000000
                                                     2        0.5000000        0.54013668    0.00000000
                                                     2        1.5000000       -1.40434292    0.00000000
                                                     2        3.0000000        1.46283806    0.00000000
                                      P - F
                                                     0        0.0000010        0.00612970    0.00000000
                                                     2        0.1200000        0.02254406    0.00000000
                                                     2        0.1800000       -0.13874529    0.00000000
                                                     2        0.3000000        0.38299049    0.00000000
                                                     2        0.5000000       -0.57923512    0.00000000
                                                     2        1.0000000        0.63021625    0.00000000
                                                     2        2.0000000       -0.79201034    0.00000000
                                      D - F
                                                     0        0.0000010       -0.00296226    0.00000000
                                                     2        0.1200000       -0.00547344    0.00000000
                                                     2        0.1400000        0.01837884    0.00000000
                                                     2        0.2400000       -0.05565704    0.00000000
                                                     2        0.4000000        0.15376597    0.00000000
                                                     2        0.8000000       -0.32464795    0.00000000
    8          1            1
                                      F and up 
                                                     0        0.0000010       -0.00000699    0.00000000
                                                     2        0.1200000        0.00123686    0.00000000
                                                     2        0.1800000       -0.00752022    0.00000000
                                                     2        0.2600000        0.02503380    0.00000000
                                                     2        0.4000000       -0.08702670    0.00000000
                                                     2        0.6000000        0.30134159    0.00000000
                                                     2        0.8000000       -0.50204959    0.00000000
                                                     2        1.2000000        0.52208372    0.00000000
                                      S - F
                                                     0        0.0000010       -0.01618346    0.00000000
                                                     2        0.1200000       -0.07880581    0.00000000
                                                     2        0.1600000        0.32040539    0.00000000
                                                     2        0.2400000       -0.47500956    0.00000000
                                                     2        0.5000000        0.54013668    0.00000000
                                                     2        1.5000000       -1.40434292    0.00000000
                                                     2        3.0000000        1.46283806    0.00000000
                                      P - F
                                                     0        0.0000010        0.00612970    0.00000000
                                                     2        0.1200000        0.02254406    0.00000000
                                                     2        0.1800000       -0.13874529    0.00000000
                                                     2        0.3000000        0.38299049    0.00000000
                                                     2        0.5000000       -0.57923512    0.00000000
                                                     2        1.0000000        0.63021625    0.00000000
                                                     2        2.0000000       -0.79201034    0.00000000
                                      D - F
                                                     0        0.0000010       -0.00296226    0.00000000
                                                     2        0.1200000       -0.00547344    0.00000000
                                                     2        0.1400000        0.01837884    0.00000000
                                                     2        0.2400000       -0.05565704    0.00000000
                                                     2        0.4000000        0.15376597    0.00000000
                                                     2        0.8000000       -0.32464795    0.00000000
    9          1            1
                                      F and up 
                                                     0        0.0000010       -0.00000699    0.00000000
                                                     2        0.1200000        0.00123686    0.00000000
                                                     2        0.1800000       -0.00752022    0.00000000
                                                     2        0.2600000        0.02503380    0.00000000
                                                     2        0.4000000       -0.08702670    0.00000000
                                                     2        0.6000000        0.30134159    0.00000000
                                                     2        0.8000000       -0.50204959    0.00000000
                                                     2        1.2000000        0.52208372    0.00000000
                                      S - F
                                                     0        0.0000010       -0.01618346    0.00000000
                                                     2        0.1200000       -0.07880581    0.00000000
                                                     2        0.1600000        0.32040539    0.00000000
                                                     2        0.2400000       -0.47500956    0.00000000
                                                     2        0.5000000        0.54013668    0.00000000
                                                     2        1.5000000       -1.40434292    0.00000000
                                                     2        3.0000000        1.46283806    0.00000000
                                      P - F
                                                     0        0.0000010        0.00612970    0.00000000
                                                     2        0.1200000        0.02254406    0.00000000
                                                     2        0.1800000       -0.13874529    0.00000000
                                                     2        0.3000000        0.38299049    0.00000000
                                                     2        0.5000000       -0.57923512    0.00000000
                                                     2        1.0000000        0.63021625    0.00000000
                                                     2        2.0000000       -0.79201034    0.00000000
                                      D - F
                                                     0        0.0000010       -0.00296226    0.00000000
                                                     2        0.1200000       -0.00547344    0.00000000
                                                     2        0.1400000        0.01837884    0.00000000
                                                     2        0.2400000       -0.05565704    0.00000000
                                                     2        0.4000000        0.15376597    0.00000000
                                                     2        0.8000000       -0.32464795    0.00000000
 ======================================================================================================
   151 basis functions,   259 primitive gaussians,   161 cartesian basis functions
    18 alpha electrons       18 beta electrons
       nuclear repulsion energy       145.9124784834 Hartrees.
 NAtoms=    9 NActive=    9 NUniq=    9 SFac= 1.00D+00 NAtFMM=   60 NAOKFM=F Big=F
   1 Symmetry operations used in ECPInt.
 ECPInt:  NShTT=    2145 NPrTT=   10533 LenC2=    2146 LenP2D=    8527.
 LDataN:  DoStor=T MaxTD1= 6 Len=  172
 Initial guess from the checkpoint file:  "Grambow2020_b97d3_006887_reverse_mol1.chk"
 B after Tr=     0.239757    0.578004   -0.072477
         Rot=    0.005376    0.154367    0.986565    0.053205 Ang= 179.38 deg.
 >>>>>>>>>> Convergence criterion not met.
 SCF Done:  E(RHF) =  -224.732401560     A.U. after    2 cycles
            NFock=  1  Conv=0.42D-02     -V/T= 2.0032

 **********************************************************************

            Population analysis using the SCF Density.

 **********************************************************************

 Orbital symmetries:
       Occupied  (A) (A) (A) (A) (A) (A) (A) (A) (A) (A) (A) (A)
                 (A) (A) (A) (A) (A) (A)
       Virtual   (A) (A) (A) (A) (A) (A) (A) (A) (A) (A) (A) (A)
                 (A) (A) (A) (A) (A) (A) (A) (A) (A) (A) (A) (A)
                 (A) (A) (A) (A) (A) (A) (A) (A) (A) (A) (A) (A)
                 (A) (A) (A) (A) (A) (A) (A) (A) (A) (A) (A) (A)
                 (A) (A) (A) (A) (A) (A) (A) (A) (A) (A) (A) (A)
                 (A) (A) (A) (A) (A) (A) (A) (A) (A) (A) (A) (A)
                 (A) (A) (A) (A) (A) (A) (A) (A) (A) (A) (A) (A)
                 (A) (A) (A) (A) (A) (A) (A) (A) (A) (A) (A) (A)
                 (A) (A) (A) (A) (A) (A) (A) (A) (A) (A) (A) (A)
                 (A) (A) (A) (A) (A) (A) (A) (A) (A) (A) (A) (A)
                 (A) (A) (A) (A) (A) (A) (A) (A) (A) (A) (A) (A)
                 (A)
 The electronic state is 1-A.
 Alpha  occ. eigenvalues --  -15.70135 -15.62190 -11.32498 -11.30538 -11.29539
 Alpha  occ. eigenvalues --   -1.22068  -1.16154  -0.99435  -0.83422  -0.73561
 Alpha  occ. eigenvalues --   -0.69995  -0.62972  -0.59936  -0.56495  -0.49950
 Alpha  occ. eigenvalues --   -0.45731  -0.40180  -0.31300
 Alpha virt. eigenvalues --    0.00655   0.02958   0.03765   0.04862   0.06390
 Alpha virt. eigenvalues --    0.09473   0.10211   0.10641   0.12608   0.12787
 Alpha virt. eigenvalues --    0.14125   0.14891   0.15004   0.15781   0.16752
 Alpha virt. eigenvalues --    0.17854   0.18480   0.20765   0.20920   0.22695
 Alpha virt. eigenvalues --    0.23360   0.26076   0.26373   0.28142   0.28906
 Alpha virt. eigenvalues --    0.31801   0.33127   0.35256   0.35455   0.36683
 Alpha virt. eigenvalues --    0.39518   0.40195   0.41061   0.41782   0.43300
 Alpha virt. eigenvalues --    0.44933   0.45852   0.49282   0.51045   0.51933
 Alpha virt. eigenvalues --    0.53093   0.55579   0.58713   0.59087   0.60319
 Alpha virt. eigenvalues --    0.61295   0.62789   0.63846   0.66323   0.68464
 Alpha virt. eigenvalues --    0.69108   0.70226   0.70738   0.72965   0.75117
 Alpha virt. eigenvalues --    0.77174   0.78031   0.78609   0.81504   0.82981
 Alpha virt. eigenvalues --    0.85267   0.86621   0.88523   0.90999   0.91896
 Alpha virt. eigenvalues --    0.94452   0.94708   0.95962   0.96958   1.00100
 Alpha virt. eigenvalues --    1.02874   1.04311   1.06107   1.12678   1.15327
 Alpha virt. eigenvalues --    1.20445   1.24600   1.25802   1.29326   1.33402
 Alpha virt. eigenvalues --    1.42787   1.46509   1.50810   1.51179   1.52796
 Alpha virt. eigenvalues --    1.54548   1.60122   1.63554   1.64938   1.66328
 Alpha virt. eigenvalues --    1.68592   1.70190   1.71643   1.75816   1.80868
 Alpha virt. eigenvalues --    1.86702   1.88842   1.91948   1.95034   1.97953
 Alpha virt. eigenvalues --    2.00095   2.04743   2.05446   2.10229   2.12809
 Alpha virt. eigenvalues --    2.18380   2.22179   2.24961   2.28463   2.32411
 Alpha virt. eigenvalues --    2.34994   2.38912   2.44345   2.49171   2.51585
 Alpha virt. eigenvalues --    2.59829   2.62190   2.68029   2.75090   2.77940
 Alpha virt. eigenvalues --    2.84514   2.88537   2.92500   2.96833   2.98333
 Alpha virt. eigenvalues --    3.04768   3.09347   3.16128   3.25223   3.36841
 Alpha virt. eigenvalues --    3.43368   3.51239   3.75152
          Condensed to atoms (all electrons):
 Mulliken charges:
               1
     1  N   -0.403095
     2  C    0.647017
     3  C    0.098563
     4  C    0.615145
     5  N   -0.334273
     6  H    0.021583
     7  H   -0.246394
     8  H   -0.273939
     9  H   -0.124607
 Sum of Mulliken charges =   0.00000
 Mulliken charges with hydrogens summed into heavy atoms:
               1
     1  N   -0.381512
     2  C    0.400623
     3  C   -0.175376
     4  C    0.490538
     5  N   -0.334273
 Electronic spatial extent (au):  <R**2>=            371.1480
 Charge=             -0.0000 electrons
 Dipole moment (field-independent basis, Debye):
    X=             -0.3718    Y=              3.4869    Z=             -0.9182  Tot=              3.6249

 Test job not archived.
 1\1\GINC-SE026\SP\RHF\Aug-CC-pVDZ\C3H4N2\OHZDE\09-Apr-2025\0\\#t hf au
 g-cc-pvdz iop(5/13=1,5/36=2,99/5=2) pseudo=read geom=check guess=(read
 ,tcheck) scf=(maxcycle=1)\\title\\0,1\N,0,-1.58544419,-0.58717172,-0.1
 6816684\C,0,-0.86079828,0.47821104,0.01296005\C,0,0.55027519,0.5454782
 2,-0.04565691\C,0,1.41168397,-0.65342679,0.12687977\N,0,0.84027505,-1.
 66419798,-0.33931294\H,0,-2.53827517,-0.4507894,0.20639493\H,0,-1.3080
 5084,1.45684062,0.27349558\H,0,1.02441965,1.42562432,-0.49213597\H,0,2
 .47041162,-0.5688823,0.42586834\\Version=ES64L-G16RevC.01\State=1-A\HF
 =-224.7324016\RMSD=4.197e-03\Dipole=0.5465783,1.2167511,0.5046132\Quad
 rupole=3.9452604,-1.5754966,-2.3697638,-1.2692626,-0.4286404,-1.553488
 1\PG=C01 [X(C3H4N2)]\\@


 SOME PHYSICISTS WOULD PREFER TO COME BACK TO THE IDEA OF AN OBJECTIVE
 REAL WORLD WHOSE SMALLEST PARTS EXIST OBJECTIVELY IN THE SAME SENSE AS
 STONES OR TREES EXIST INDEPENDENTLY OF WHETHER WE OBSERVE THEM.
 THIS, HOWEVER, IS IMPOSSIBLE.  -- WERNER HEISENBERG
 Job cpu time:       0 days  0 hours  0 minutes 23.6 seconds.
 Elapsed time:       0 days  0 hours  0 minutes  2.4 seconds.
 File lengths (MBytes):  RWF=      6 Int=      0 D2E=      0 Chk=      4 Scr=      1
 Normal termination of Gaussian 16 at Wed Apr  9 14:16:01 2025.
