 Entering Gaussian System, Link 0=g16
 Input=Grambow2020_wb97xd3_006159_reverse_mol2.gjf
 Output=Grambow2020_wb97xd3_006159_reverse_mol2.log
 Initial command:
 /arc/software/Gaussian/g16.c01/l1.exe "/tmp/slurm/4862988/Gau-92021.inp" -scrdir="/tmp/slurm/4862988/"
 Entering Link 1 = /arc/software/Gaussian/g16.c01/l1.exe PID=     92035.
  
 Copyright (c) 1988-2019, Gaussian, Inc.  All Rights Reserved.
  
 This is part of the Gaussian(R) 16 program.  It is based on
 the Gaussian(R) 09 system (copyright 2009, Gaussian, Inc.),
 the Gaussian(R) 03 system (copyright 2003, Gaussian, Inc.),
 the Gaussian(R) 98 system (copyright 1998, Gaussian, Inc.),
 the Gaussian(R) 94 system (copyright 1995, Gaussian, Inc.),
 the Gaussian 92(TM) system (copyright 1992, Gaussian, Inc.),
 the Gaussian 90(TM) system (copyright 1990, Gaussian, Inc.),
 the Gaussian 88(TM) system (copyright 1988, Gaussian, Inc.),
 the Gaussian 86(TM) system (copyright 1986, Carnegie Mellon
 University), and the Gaussian 82(TM) system (copyright 1983,
 Carnegie Mellon University). Gaussian is a federally registered
 trademark of Gaussian, Inc.
  
 This software contains proprietary and confidential information,
 including trade secrets, belonging to Gaussian, Inc.
  
 This software is provided under written license and may be
 used, copied, transmitted, or stored only in accord with that
 written license.
  
 The following legend is applicable only to US Government
 contracts under FAR:
  
                    RESTRICTED RIGHTS LEGEND
  
 Use, reproduction and disclosure by the US Government is
 subject to restrictions as set forth in subparagraphs (a)
 and (c) of the Commercial Computer Software - Restricted
 Rights clause in FAR 52.227-19.
  
 Gaussian, Inc.
 340 Quinnipiac St., Bldg. 40, Wallingford CT 06492
  
  
 ---------------------------------------------------------------
 Warning -- This program may not be used in any manner that
 competes with the business of Gaussian, Inc. or will provide
 assistance to any competitor of Gaussian, Inc.  The licensee
 of this program is prohibited from giving any competitor of
 Gaussian, Inc. access to this program.  By using this program,
 the user acknowledges that Gaussian, Inc. is engaged in the
 business of creating and licensing software in the field of
 computational chemistry and represents and warrants to the
 licensee that it is not a competitor of Gaussian, Inc. and that
 it will not use this program in any manner prohibited above.
 ---------------------------------------------------------------
  

 Cite this work as:
 Gaussian 16, Revision C.01,
 M. J. Frisch, G. W. Trucks, H. B. Schlegel, G. E. Scuseria, 
 M. A. Robb, J. R. Cheeseman, G. Scalmani, V. Barone, 
 G. A. Petersson, H. Nakatsuji, X. Li, M. Caricato, A. V. Marenich, 
 J. Bloino, B. G. Janesko, R. Gomperts, B. Mennucci, H. P. Hratchian, 
 J. V. Ortiz, A. F. Izmaylov, J. L. Sonnenberg, D. Williams-Young, 
 F. Ding, F. Lipparini, F. Egidi, J. Goings, B. Peng, A. Petrone, 
 T. Henderson, D. Ranasinghe, V. G. Zakrzewski, J. Gao, N. Rega, 
 G. Zheng, W. Liang, M. Hada, M. Ehara, K. Toyota, R. Fukuda, 
 J. Hasegawa, M. Ishida, T. Nakajima, Y. Honda, O. Kitao, H. Nakai, 
 T. Vreven, K. Throssell, J. A. Montgomery, Jr., J. E. Peralta, 
 F. Ogliaro, M. J. Bearpark, J. J. Heyd, E. N. Brothers, K. N. Kudin, 
 V. N. Staroverov, T. A. Keith, R. Kobayashi, J. Normand, 
 K. Raghavachari, A. P. Rendell, J. C. Burant, S. S. Iyengar, 
 J. Tomasi, M. Cossi, J. M. Millam, M. Klene, C. Adamo, R. Cammi, 
 J. W. Ochterski, R. L. Martin, K. Morokuma, O. Farkas, 
 J. B. Foresman, and D. J. Fox, Gaussian, Inc., Wallingford CT, 2019.
 
 ******************************************
 Gaussian 16:  ES64L-G16RevC.01  3-Jul-2019
                 9-Apr-2025 
 ******************************************
 %nprocs=16
 Will use up to   16 processors via shared memory.
 %mem=30GB
 %chk=Grambow2020_wb97xd3_006159_reverse_mol2.chk
 ----------------------------------------------------------------------
 #t hf aug-cc-pvdz symm=none int=(grid=ultrafine) guess=(read,tcheck) s
 table=(opt,rrhf)
 ----------------------------------------------------------------------
 -----
 title
 -----
 Symbolic Z-matrix:
 Charge =  0 Multiplicity = 1
 O                     2.44157   0.32412   0.07956 
 C                     1.36733  -0.54626   0.34639 
 C                     0.07152  -0.18871  -0.38349 
 C                    -0.99409  -1.24032  -0.08234 
 C                    -1.60327   1.44463  -0.74118 
 C                    -0.36683   1.25907   0.02278 
 H                     2.34194   1.12001   0.60357 
 H                     1.68644  -1.53397   0.00431 
 H                     1.17421  -0.61927   1.42536 
 H                     0.27898  -0.17705  -1.45563 
 H                    -1.31161  -1.19336   0.96309 
 H                    -0.60498  -2.24374  -0.26817 
 H                    -1.87847  -1.11223  -0.7093 
 H                    -2.45072   1.21202  -0.06687 
 H                    -0.43701   1.30226   1.11926 
 H                     0.42341   1.92254  -0.33936 
 
                    Distance matrix (angstroms):
                    1          2          3          4          5
     1  O    0.000000
     2  C    1.408096   0.000000
     3  C    2.468708   1.529609   0.000000
     4  C    3.778549   2.498372   1.527127   0.000000
     5  C    4.276663   3.737769   2.366569   2.830919   0.000000
     6  C    2.960487   2.524137   1.566292   2.579036   1.465208
     7  H    0.958101   1.947418   2.800325   4.143756   4.180716
     8  H    2.007079   1.092893   2.137303   2.697957   4.499994
     9  H    2.075421   1.098544   2.161768   2.713001   4.082634
    10  H    2.699024   2.137312   1.092082   2.153412   2.585175
    11  H    4.143638   2.824147   2.176161   1.093588   3.154138
    12  H    3.999532   2.673790   2.166587   1.092149   3.850239
    13  H    4.620403   3.459778   2.182090   1.091610   2.571822
    14  H    4.974363   4.223725   2.902411   2.852359   1.107686
    15  H    3.213095   2.696295   2.177122   2.866857   2.200375
    16  H    2.608336   2.730609   2.140829   3.475493   2.120679
                    6          7          8          9         10
     6  C    0.000000
     7  H    2.773826   0.000000
     8  H    3.466599   2.798638   0.000000
     9  H    2.805382   2.250337   1.765909   0.000000
    10  H    2.159906   3.190365   2.439998   3.049109   0.000000
    11  H    2.791272   4.339284   3.165999   2.592792   3.068071
    12  H    3.522925   4.556211   2.414253   2.944906   2.542172
    13  H    2.905861   4.951602   3.660011   3.757473   2.467018
    14  H    2.086342   4.840200   4.966041   4.326712   3.362946
    15  H    1.099571   2.832266   3.714340   2.526257   3.054674
    16  H    1.093538   2.283403   3.696053   3.184133   2.382267
                   11         12         13         14         15
    11  H    0.000000
    12  H    1.765958   0.000000
    13  H    1.767703   1.759738   0.000000
    14  H    2.853813   3.922946   2.478365   0.000000
    15  H    2.649047   3.811465   3.354276   2.338817   0.000000
    16  H    3.796778   4.291914   3.826923   2.973163   1.803507
                   16
    16  H    0.000000
 Symmetry turned off by external request.
 Rotational constants (GHZ):           5.3684427           2.5443197           1.8721187
   228 basis functions,   368 primitive gaussians,   240 cartesian basis functions
    24 alpha electrons       24 beta electrons
       nuclear repulsion energy       241.8314818604 Hartrees.
 NAtoms=   16 NActive=   16 NUniq=   16 SFac= 1.00D+00 NAtFMM=   60 NAOKFM=F Big=F
 ExpMin= 2.97D-02 ExpMax= 1.17D+04 ExpMxC= 4.01D+02 IAcc=3 IRadAn=         5 AccDes= 0.00D+00
 Harris functional with IExCor=  205 and IRadAn=       5 diagonalized for initial guess.
 HarFok:  IExCor=  205 AccDes= 0.00D+00 IRadAn=         5 IDoV= 1 UseB2=F ITyADJ=14
 ICtDFT=  3500011 ScaDFX=  1.000000  1.000000  1.000000  1.000000
 FoFCou: FMM=F IPFlag=           0 FMFlag=      100000 FMFlg1=           0
         NFxFlg=           0 DoJE=T BraDBF=F KetDBF=T FulRan=T
         wScrn=  0.000000 ICntrl=       500 IOpCl=  0 I1Cent=   200000004 NGrid=           0
         NMat0=    1 NMatS0=      1 NMatT0=    0 NMatD0=    1 NMtDS0=    0 NMtDT0=    0
 Symmetry not used in FoFCou.
 SCF Done:  E(RHF) =  -269.916000200     A.U. after   15 cycles
            NFock= 15  Conv=0.83D-08     -V/T= 2.0009

 **********************************************************************

            Population analysis using the SCF Density.

 **********************************************************************

 Alpha  occ. eigenvalues --  -20.57552 -11.28991 -11.27294 -11.25624 -11.24075
 Alpha  occ. eigenvalues --  -11.23673  -1.37662  -1.11360  -0.99828  -0.93299
 Alpha  occ. eigenvalues --   -0.82772  -0.76409  -0.71078  -0.64021  -0.62611
 Alpha  occ. eigenvalues --   -0.61928  -0.57896  -0.55357  -0.51902  -0.51378
 Alpha  occ. eigenvalues --   -0.49611  -0.46940  -0.43889  -0.35670
 Alpha virt. eigenvalues --    0.03284   0.04077   0.04555   0.05022   0.05651
 Alpha virt. eigenvalues --    0.06713   0.06808   0.07147   0.07615   0.08468
 Alpha virt. eigenvalues --    0.09464   0.12118   0.13522   0.14047   0.14145
 Alpha virt. eigenvalues --    0.14927   0.15675   0.15814   0.16395   0.16835
 Alpha virt. eigenvalues --    0.17949   0.18041   0.18933   0.19374   0.19841
 Alpha virt. eigenvalues --    0.20212   0.20513   0.22338   0.23438   0.24112
 Alpha virt. eigenvalues --    0.26350   0.27268   0.28467   0.30170   0.30668
 Alpha virt. eigenvalues --    0.32327   0.33634   0.33856   0.34566   0.36723
 Alpha virt. eigenvalues --    0.36882   0.37462   0.38398   0.40000   0.41030
 Alpha virt. eigenvalues --    0.42427   0.43091   0.43900   0.44255   0.44593
 Alpha virt. eigenvalues --    0.45918   0.46248   0.47525   0.48111   0.48908
 Alpha virt. eigenvalues --    0.49448   0.50825   0.51198   0.52444   0.54232
 Alpha virt. eigenvalues --    0.54264   0.55545   0.57249   0.57913   0.59208
 Alpha virt. eigenvalues --    0.60010   0.60162   0.60849   0.61481   0.62189
 Alpha virt. eigenvalues --    0.63245   0.64175   0.64664   0.66333   0.68137
 Alpha virt. eigenvalues --    0.68726   0.69280   0.70298   0.71104   0.71802
 Alpha virt. eigenvalues --    0.73000   0.73826   0.76467   0.76813   0.77266
 Alpha virt. eigenvalues --    0.78255   0.78933   0.80207   0.81417   0.82182
 Alpha virt. eigenvalues --    0.83726   0.84244   0.86021   0.87077   0.87815
 Alpha virt. eigenvalues --    0.88551   0.89914   0.90843   0.93117   0.93494
 Alpha virt. eigenvalues --    0.95158   0.95267   0.97014   1.00608   1.01830
 Alpha virt. eigenvalues --    1.03986   1.07396   1.09312   1.12630   1.15261
 Alpha virt. eigenvalues --    1.16564   1.17776   1.19192   1.23392   1.24450
 Alpha virt. eigenvalues --    1.29023   1.30369   1.31064   1.32815   1.33828
 Alpha virt. eigenvalues --    1.36394   1.38709   1.42258   1.43780   1.49486
 Alpha virt. eigenvalues --    1.51499   1.54283   1.58208   1.61417   1.64788
 Alpha virt. eigenvalues --    1.66358   1.67053   1.69362   1.71590   1.75748
 Alpha virt. eigenvalues --    1.77050   1.79260   1.79790   1.82143   1.84884
 Alpha virt. eigenvalues --    1.86046   1.89903   1.91382   1.93800   1.94804
 Alpha virt. eigenvalues --    1.96250   1.99022   2.01495   2.05481   2.08286
 Alpha virt. eigenvalues --    2.09327   2.11888   2.13935   2.14591   2.16177
 Alpha virt. eigenvalues --    2.18921   2.19624   2.21173   2.24302   2.25621
 Alpha virt. eigenvalues --    2.29157   2.29714   2.30235   2.31918   2.33923
 Alpha virt. eigenvalues --    2.35197   2.38297   2.41056   2.42807   2.46092
 Alpha virt. eigenvalues --    2.48026   2.50688   2.51701   2.53627   2.54171
 Alpha virt. eigenvalues --    2.57129   2.60342   2.63593   2.66365   2.70309
 Alpha virt. eigenvalues --    2.76199   2.78366   2.79428   2.81010   2.85709
 Alpha virt. eigenvalues --    2.89313   2.89769   2.92639   2.95263   2.98572
 Alpha virt. eigenvalues --    3.04956   3.09875   3.13351   3.15713   3.19937
 Alpha virt. eigenvalues --    3.29807   3.32176   3.46547   3.70102   3.81096
 Alpha virt. eigenvalues --    3.82654   3.91561   4.01343   4.36130
          Condensed to atoms (all electrons):
 Mulliken charges:
               1
     1  O   -0.691384
     2  C    1.298087
     3  C   -1.243882
     4  C    0.706742
     5  C   -0.051560
     6  C    0.815487
     7  H    0.152655
     8  H   -0.165666
     9  H   -0.089513
    10  H   -0.264450
    11  H   -0.008717
    12  H   -0.086740
    13  H   -0.062244
    14  H   -0.063025
    15  H   -0.173853
    16  H   -0.071936
 Sum of Mulliken charges =  -0.00000
 Mulliken charges with hydrogens summed into heavy atoms:
               1
     1  O   -0.538729
     2  C    1.042908
     3  C   -1.508331
     4  C    0.549040
     5  C   -0.114585
     6  C    0.569698
 Electronic spatial extent (au):  <R**2>=            693.7188
 Charge=             -0.0000 electrons
 Dipole moment (field-independent basis, Debye):
    X=             -0.4691    Y=             -0.7037    Z=              2.8030  Tot=              2.9278
 NROrb=    228 NOA=    24 NOB=    24 NVA=   204 NVB=   204

 **** Warning!!: The largest alpha MO coefficient is  0.55038066D+02

    12 initial guesses have been made.
 Iteration     1 Dimension    12 NMult     0 NNew     12
 Iteration     2 Dimension    24 NMult    12 NNew     12
 Iteration     3 Dimension    27 NMult    24 NNew      3
 Iteration     4 Dimension    30 NMult    27 NNew      3
 Iteration     5 Dimension    33 NMult    30 NNew      3
 Iteration     6 Dimension    36 NMult    33 NNew      3
 ***********************************************************************
 Stability analysis using <AA,BB:AA,BB> singles matrix:
 ***********************************************************************
 Ground to excited state transition densities written to RWF  633

 Eigenvectors of the stability matrix:
 
 Excited state symmetry could not be determined.
 Eigenvector   1:      Singlet-?Sym  Eigenvalue= 0.0959448  <S**2>=0.000
      24 -> 27         0.13289
      24 -> 28         0.15616
      24 -> 29         0.42396
      24 -> 30         0.10157
      24 -> 33         0.13853
      24 -> 34         0.35186
      24 -> 35         0.16031
      24 -> 37        -0.13939
 The wavefunction is stable under the perturbations considered.
 The wavefunction is already stable.

 **********************************************************************

            Population analysis using the SCF Density.

 **********************************************************************

 Alpha  occ. eigenvalues --  -20.57552 -11.28991 -11.27294 -11.25624 -11.24075
 Alpha  occ. eigenvalues --  -11.23673  -1.37662  -1.11360  -0.99828  -0.93299
 Alpha  occ. eigenvalues --   -0.82772  -0.76409  -0.71078  -0.64021  -0.62611
 Alpha  occ. eigenvalues --   -0.61928  -0.57896  -0.55357  -0.51902  -0.51378
 Alpha  occ. eigenvalues --   -0.49611  -0.46940  -0.43889  -0.35670
 Alpha virt. eigenvalues --    0.03284   0.04077   0.04555   0.05022   0.05651
 Alpha virt. eigenvalues --    0.06713   0.06808   0.07147   0.07615   0.08468
 Alpha virt. eigenvalues --    0.09464   0.12118   0.13522   0.14047   0.14145
 Alpha virt. eigenvalues --    0.14927   0.15675   0.15814   0.16395   0.16835
 Alpha virt. eigenvalues --    0.17949   0.18041   0.18933   0.19374   0.19841
 Alpha virt. eigenvalues --    0.20212   0.20513   0.22338   0.23438   0.24112
 Alpha virt. eigenvalues --    0.26350   0.27268   0.28467   0.30170   0.30668
 Alpha virt. eigenvalues --    0.32327   0.33634   0.33856   0.34566   0.36723
 Alpha virt. eigenvalues --    0.36882   0.37462   0.38398   0.40000   0.41030
 Alpha virt. eigenvalues --    0.42427   0.43091   0.43900   0.44255   0.44593
 Alpha virt. eigenvalues --    0.45918   0.46248   0.47525   0.48111   0.48908
 Alpha virt. eigenvalues --    0.49448   0.50825   0.51198   0.52444   0.54232
 Alpha virt. eigenvalues --    0.54264   0.55545   0.57249   0.57913   0.59208
 Alpha virt. eigenvalues --    0.60010   0.60162   0.60849   0.61481   0.62189
 Alpha virt. eigenvalues --    0.63245   0.64175   0.64664   0.66333   0.68137
 Alpha virt. eigenvalues --    0.68726   0.69280   0.70298   0.71104   0.71802
 Alpha virt. eigenvalues --    0.73000   0.73826   0.76467   0.76813   0.77266
 Alpha virt. eigenvalues --    0.78255   0.78933   0.80207   0.81417   0.82182
 Alpha virt. eigenvalues --    0.83726   0.84244   0.86021   0.87077   0.87815
 Alpha virt. eigenvalues --    0.88551   0.89914   0.90843   0.93117   0.93494
 Alpha virt. eigenvalues --    0.95158   0.95267   0.97014   1.00608   1.01830
 Alpha virt. eigenvalues --    1.03986   1.07396   1.09312   1.12630   1.15261
 Alpha virt. eigenvalues --    1.16564   1.17776   1.19192   1.23392   1.24450
 Alpha virt. eigenvalues --    1.29023   1.30369   1.31064   1.32815   1.33828
 Alpha virt. eigenvalues --    1.36394   1.38709   1.42258   1.43780   1.49486
 Alpha virt. eigenvalues --    1.51499   1.54283   1.58208   1.61417   1.64788
 Alpha virt. eigenvalues --    1.66358   1.67053   1.69362   1.71590   1.75748
 Alpha virt. eigenvalues --    1.77050   1.79260   1.79790   1.82143   1.84884
 Alpha virt. eigenvalues --    1.86046   1.89903   1.91382   1.93800   1.94804
 Alpha virt. eigenvalues --    1.96250   1.99022   2.01495   2.05481   2.08286
 Alpha virt. eigenvalues --    2.09327   2.11888   2.13935   2.14591   2.16177
 Alpha virt. eigenvalues --    2.18921   2.19624   2.21173   2.24302   2.25621
 Alpha virt. eigenvalues --    2.29157   2.29714   2.30235   2.31918   2.33923
 Alpha virt. eigenvalues --    2.35197   2.38297   2.41056   2.42807   2.46092
 Alpha virt. eigenvalues --    2.48026   2.50688   2.51701   2.53627   2.54171
 Alpha virt. eigenvalues --    2.57129   2.60342   2.63593   2.66365   2.70309
 Alpha virt. eigenvalues --    2.76199   2.78366   2.79428   2.81010   2.85709
 Alpha virt. eigenvalues --    2.89313   2.89769   2.92639   2.95263   2.98572
 Alpha virt. eigenvalues --    3.04956   3.09875   3.13351   3.15713   3.19937
 Alpha virt. eigenvalues --    3.29807   3.32176   3.46547   3.70102   3.81096
 Alpha virt. eigenvalues --    3.82654   3.91561   4.01343   4.36130
          Condensed to atoms (all electrons):
 Mulliken charges:
               1
     1  O   -0.691384
     2  C    1.298087
     3  C   -1.243882
     4  C    0.706742
     5  C   -0.051560
     6  C    0.815487
     7  H    0.152655
     8  H   -0.165666
     9  H   -0.089513
    10  H   -0.264450
    11  H   -0.008717
    12  H   -0.086740
    13  H   -0.062244
    14  H   -0.063025
    15  H   -0.173853
    16  H   -0.071936
 Sum of Mulliken charges =  -0.00000
 Mulliken charges with hydrogens summed into heavy atoms:
               1
     1  O   -0.538729
     2  C    1.042908
     3  C   -1.508331
     4  C    0.549040
     5  C   -0.114585
     6  C    0.569698
 Electronic spatial extent (au):  <R**2>=            693.7188
 Charge=             -0.0000 electrons
 Dipole moment (field-independent basis, Debye):
    X=             -0.4691    Y=             -0.7037    Z=              2.8030  Tot=              2.9278
 Unable to Open any file for archive entry.
 1\1\GINC-SE461\Stability\RHF\Aug-CC-pVDZ\C5H10O1\OHZDE\09-Apr-2025\0\\
 #t hf aug-cc-pvdz symm=none int=(grid=ultrafine) guess=(read,tcheck) s
 table=(opt,rrhf)\\title\\0,1\O,0,2.44156903,0.32411607,0.07955544\C,0,
 1.36733465,-0.54625913,0.34639332\C,0,0.07152402,-0.18870858,-0.383494
 87\C,0,-0.99409191,-1.24031819,-0.08233781\C,0,-1.60326655,1.44462784,
 -0.74117987\C,0,-0.36683374,1.25906703,0.02277967\H,0,2.34194069,1.120
 00659,0.60356809\H,0,1.68643668,-1.53396881,0.00431424\H,0,1.1742052,-
 0.61926558,1.4253602\H,0,0.27898264,-0.17704836,-1.45562698\H,0,-1.311
 61177,-1.19336396,0.96308591\H,0,-0.60498201,-2.2437365,-0.26817354\H,
 0,-1.87847175,-1.1122282,-0.70929629\H,0,-2.45071776,1.21201849,-0.066
 87461\H,0,-0.43701231,1.30225901,1.11925839\H,0,0.42340989,1.92254128,
 -0.33935728\\Version=ES64L-G16RevC.01\HF=-269.9160002\RMSD=8.341e-09\D
 ipole=-0.1845527,-0.2768625,1.1027877\Quadrupole=-3.0270568,3.1686189,
 -0.1415621,2.3204728,-1.2574874,3.902676\PG=Unknown\\@
 The archive entry for this job was punched.


 POCKETA-POCKETA
 BARON VON RICHTOFEN
 SLAUGHTERED THE ALLIES WITH
 HARDLY A CARE.
 KILLED EIGHTY-ONE WITH HIS
 BLOOD-COLORED TRIPLANE, THEN
 UN-AEROBATICALLY
 PLUNGED FROM THE AIR.
   -- TONY HOFFMAN
 Job cpu time:       0 days  0 hours  7 minutes  2.9 seconds.
 Elapsed time:       0 days  0 hours  0 minutes 29.8 seconds.
 File lengths (MBytes):  RWF=    222 Int=      0 D2E=      0 Chk=      7 Scr=      1
 Normal termination of Gaussian 16 at Wed Apr  9 03:21:13 2025.
 Initial command:
 /arc/software/Gaussian/g16.c01/l1.exe "/tmp/slurm/4862988/Gau-92021.inp" -scrdir="/tmp/slurm/4862988/"
 Entering Link 1 = /arc/software/Gaussian/g16.c01/l1.exe PID=     92625.
  
 Copyright (c) 1988-2019, Gaussian, Inc.  All Rights Reserved.
  
 This is part of the Gaussian(R) 16 program.  It is based on
 the Gaussian(R) 09 system (copyright 2009, Gaussian, Inc.),
 the Gaussian(R) 03 system (copyright 2003, Gaussian, Inc.),
 the Gaussian(R) 98 system (copyright 1998, Gaussian, Inc.),
 the Gaussian(R) 94 system (copyright 1995, Gaussian, Inc.),
 the Gaussian 92(TM) system (copyright 1992, Gaussian, Inc.),
 the Gaussian 90(TM) system (copyright 1990, Gaussian, Inc.),
 the Gaussian 88(TM) system (copyright 1988, Gaussian, Inc.),
 the Gaussian 86(TM) system (copyright 1986, Carnegie Mellon
 University), and the Gaussian 82(TM) system (copyright 1983,
 Carnegie Mellon University). Gaussian is a federally registered
 trademark of Gaussian, Inc.
  
 This software contains proprietary and confidential information,
 including trade secrets, belonging to Gaussian, Inc.
  
 This software is provided under written license and may be
 used, copied, transmitted, or stored only in accord with that
 written license.
  
 The following legend is applicable only to US Government
 contracts under FAR:
  
                    RESTRICTED RIGHTS LEGEND
  
 Use, reproduction and disclosure by the US Government is
 subject to restrictions as set forth in subparagraphs (a)
 and (c) of the Commercial Computer Software - Restricted
 Rights clause in FAR 52.227-19.
  
 Gaussian, Inc.
 340 Quinnipiac St., Bldg. 40, Wallingford CT 06492
  
  
 ---------------------------------------------------------------
 Warning -- This program may not be used in any manner that
 competes with the business of Gaussian, Inc. or will provide
 assistance to any competitor of Gaussian, Inc.  The licensee
 of this program is prohibited from giving any competitor of
 Gaussian, Inc. access to this program.  By using this program,
 the user acknowledges that Gaussian, Inc. is engaged in the
 business of creating and licensing software in the field of
 computational chemistry and represents and warrants to the
 licensee that it is not a competitor of Gaussian, Inc. and that
 it will not use this program in any manner prohibited above.
 ---------------------------------------------------------------
  

 Cite this work as:
 Gaussian 16, Revision C.01,
 M. J. Frisch, G. W. Trucks, H. B. Schlegel, G. E. Scuseria, 
 M. A. Robb, J. R. Cheeseman, G. Scalmani, V. Barone, 
 G. A. Petersson, H. Nakatsuji, X. Li, M. Caricato, A. V. Marenich, 
 J. Bloino, B. G. Janesko, R. Gomperts, B. Mennucci, H. P. Hratchian, 
 J. V. Ortiz, A. F. Izmaylov, J. L. Sonnenberg, D. Williams-Young, 
 F. Ding, F. Lipparini, F. Egidi, J. Goings, B. Peng, A. Petrone, 
 T. Henderson, D. Ranasinghe, V. G. Zakrzewski, J. Gao, N. Rega, 
 G. Zheng, W. Liang, M. Hada, M. Ehara, K. Toyota, R. Fukuda, 
 J. Hasegawa, M. Ishida, T. Nakajima, Y. Honda, O. Kitao, H. Nakai, 
 T. Vreven, K. Throssell, J. A. Montgomery, Jr., J. E. Peralta, 
 F. Ogliaro, M. J. Bearpark, J. J. Heyd, E. N. Brothers, K. N. Kudin, 
 V. N. Staroverov, T. A. Keith, R. Kobayashi, J. Normand, 
 K. Raghavachari, A. P. Rendell, J. C. Burant, S. S. Iyengar, 
 J. Tomasi, M. Cossi, J. M. Millam, M. Klene, C. Adamo, R. Cammi, 
 J. W. Ochterski, R. L. Martin, K. Morokuma, O. Farkas, 
 J. B. Foresman, and D. J. Fox, Gaussian, Inc., Wallingford CT, 2019.
 
 ******************************************
 Gaussian 16:  ES64L-G16RevC.01  3-Jul-2019
                 9-Apr-2025 
 ******************************************
 %nprocs=16
 Will use up to   16 processors via shared memory.
 %mem=30GB
 %chk=Grambow2020_wb97xd3_006159_reverse_mol2.chk
 ----------------------------------------------------------------------
 #t hf aug-cc-pvdz iop(5/13=1,5/36=2,99/5=2) pseudo=read geom=check gue
 ss=(read,tcheck) scf=(maxcycle=1)
 ----------------------------------------------------------------------
 -----
 title
 -----
 Structure from the checkpoint file:  "Grambow2020_wb97xd3_006159_reverse_mol2.chk"
 Charge =  0 Multiplicity = 1
 Z-Matrix found in chk file.
 O,0,2.44156903,0.32411607,0.07955544
 C,0,1.36733465,-0.54625913,0.34639332
 C,0,0.07152402,-0.18870858,-0.38349487
 C,0,-0.99409191,-1.24031819,-0.08233781
 C,0,-1.60326655,1.44462784,-0.74117987
 C,0,-0.36683374,1.25906703,0.02277967
 H,0,2.34194069,1.12000659,0.60356809
 H,0,1.68643668,-1.53396881,0.00431424
 H,0,1.1742052,-0.61926558,1.4253602
 H,0,0.27898264,-0.17704836,-1.45562698
 H,0,-1.31161177,-1.19336396,0.96308591
 H,0,-0.60498201,-2.2437365,-0.26817354
 H,0,-1.87847175,-1.1122282,-0.70929629
 H,0,-2.45071776,1.21201849,-0.06687461
 H,0,-0.43701231,1.30225901,1.11925839
 H,0,0.42340989,1.92254128,-0.33935728
 Recover connectivity data from disk.
                    Distance matrix (angstroms):
                    1          2          3          4          5
     1  O    0.000000
     2  C    1.408096   0.000000
     3  C    2.468708   1.529609   0.000000
     4  C    3.778549   2.498372   1.527127   0.000000
     5  C    4.276663   3.737769   2.366569   2.830919   0.000000
     6  C    2.960487   2.524137   1.566292   2.579036   1.465208
     7  H    0.958101   1.947418   2.800325   4.143756   4.180716
     8  H    2.007079   1.092893   2.137303   2.697957   4.499994
     9  H    2.075421   1.098544   2.161768   2.713001   4.082634
    10  H    2.699024   2.137312   1.092082   2.153412   2.585175
    11  H    4.143638   2.824147   2.176161   1.093588   3.154138
    12  H    3.999532   2.673790   2.166587   1.092149   3.850239
    13  H    4.620403   3.459778   2.182090   1.091610   2.571822
    14  H    4.974363   4.223725   2.902411   2.852359   1.107686
    15  H    3.213095   2.696295   2.177122   2.866857   2.200375
    16  H    2.608336   2.730609   2.140829   3.475493   2.120679
                    6          7          8          9         10
     6  C    0.000000
     7  H    2.773826   0.000000
     8  H    3.466599   2.798638   0.000000
     9  H    2.805382   2.250337   1.765909   0.000000
    10  H    2.159906   3.190365   2.439998   3.049109   0.000000
    11  H    2.791272   4.339284   3.165999   2.592792   3.068071
    12  H    3.522925   4.556211   2.414253   2.944906   2.542172
    13  H    2.905861   4.951602   3.660011   3.757473   2.467018
    14  H    2.086342   4.840200   4.966041   4.326712   3.362946
    15  H    1.099571   2.832266   3.714340   2.526257   3.054674
    16  H    1.093538   2.283403   3.696053   3.184133   2.382267
                   11         12         13         14         15
    11  H    0.000000
    12  H    1.765958   0.000000
    13  H    1.767703   1.759738   0.000000
    14  H    2.853813   3.922946   2.478365   0.000000
    15  H    2.649047   3.811465   3.354276   2.338817   0.000000
    16  H    3.796778   4.291914   3.826923   2.973163   1.803507
                   16
    16  H    0.000000
 Framework group  C1[X(C5H10O)]
 Deg. of freedom    42
                         Standard orientation:                         
 ---------------------------------------------------------------------
 Center     Atomic      Atomic             Coordinates (Angstroms)
 Number     Number       Type             X           Y           Z
 ---------------------------------------------------------------------
      1          8           0       -2.179891   -0.549524   -0.184453
      2          6           0       -1.303554    0.494219    0.169622
      3          6           0        0.132968    0.303045   -0.319827
      4          6           0        0.968692    1.526104    0.051398
      5          6           0        2.064796   -1.063281   -0.276844
      6          6           0        0.705781   -1.030184    0.269798
      7          1           0       -2.052384   -1.286783    0.414001
      8          1           0       -1.703203    1.396722   -0.299616
      9          1           0       -1.303549    0.661384    1.255372
     10          1           0        0.108872    0.194485   -1.406232
     11          1           0        1.113129    1.592703    1.133357
     12          1           0        0.472726    2.442379   -0.276090
     13          1           0        1.953331    1.502174   -0.419266
     14          1           0        2.746279   -0.659566    0.497470
     15          1           0        0.600002   -0.995941    1.363733
     16          1           0        0.091826   -1.830798   -0.151987
 ---------------------------------------------------------------------
 Rotational constants (GHZ):           5.3684427           2.5443197           1.8721187
 ======================================================================================================
                                       Pseudopotential Parameters
 ======================================================================================================
  Center     Atomic      Valence      Angular      Power
  Number     Number     Electrons     Momentum     of R      Exponent        Coefficient   SO-Coeffient
 ======================================================================================================
    1          8            8
                                      G and up 
                                                     0        0.0000010        0.00001165    0.00000000
                                                     2        0.1200000       -0.01744018    0.00000000
                                                     2        0.1400000        0.05401326    0.00000000
                                                     2        0.1800000       -0.08231208    0.00000000
                                                     2        0.2600000        0.11570222    0.00000000
                                                     2        0.4000000       -0.20630360    0.00000000
                                                     2        0.7000000        0.38074319    0.00000000
                                                     2        1.2000000       -0.17045091    0.00000000
                                                     2        2.0000000       -1.45433187    0.00000000
                                      S - G
                                                     0        0.0000010       -0.00117944    0.00000000
                                                     2        0.1400000        0.04368312    0.00000000
                                                     2        0.3000000       -0.33477926    0.00000000
                                                     2        0.6000000        1.52630657    0.00000000
                                                     2        1.5000000       -2.50804716    0.00000000
                                                     2        3.0000000        2.89751681    0.00000000
                                      P - G
                                                     0        0.0000010        0.06576007    0.00000000
                                                     2        0.1200000       -0.10329304    0.00000000
                                                     2        0.2000000        0.24891756    0.00000000
                                                     2        0.4000000       -0.50800022    0.00000000
                                                     2        0.9000000        0.81480796    0.00000000
                                      D - G
                                                     0        0.0000010       -0.14101855    0.00000000
                                                     2        0.1200000        0.22105937    0.00000000
                                                     2        0.1800000       -0.45814988    0.00000000
                                                     2        0.3000000        0.46029282    0.00000000
                                      F - G
                                                     0        0.0000010        0.07483044    0.00000000
                                                     2        0.1200000       -0.09134252    0.00000000
                                                     2        0.1400000        0.04125459    0.00000000
                                                     2        0.3000000        0.37914837    0.00000000
                                                     2        0.5000000       -0.86881279    0.00000000
    2          6            6
                                      G and up 
                                                     0        0.0000010       -0.00011185    0.00000000
                                                     2        0.1200000       -0.02301220    0.00000000
                                                     2        0.1400000        0.13317600    0.00000000
                                                     2        0.1600000       -0.19690668    0.00000000
                                                     2        0.2200000        0.23163694    0.00000000
                                                     2        0.3000000       -0.36920489    0.00000000
                                                     2        0.4000000        0.36389709    0.00000000
                                                     2        0.7000000       -0.38862160    0.00000000
                                                     2        1.3000000        0.80803421    0.00000000
                                      S - G
                                                     0        0.0000010        0.00312304    0.00000000
                                                     2        0.1200000       -0.00632892    0.00000000
                                                     2        0.2200000       -0.03780897    0.00000000
                                                     2        0.4000000        0.26269560    0.00000000
                                                     2        0.9000000       -0.28209514    0.00000000
                                                     2        1.5000000       -0.72686737    0.00000000
                                      P - G
                                                     0        0.0000010       -0.01465594    0.00000000
                                                     2        0.1200000        0.07908409    0.00000000
                                                     2        0.1800000       -0.30615861    0.00000000
                                                     2        0.2600000        0.41506950    0.00000000
                                                     2        0.5000000       -0.36252345    0.00000000
                                                     2        0.9000000        0.15124193    0.00000000
                                                     2        3.0000000       -0.80425677    0.00000000
                                      D - G
                                                     0        0.0000010        0.01149631    0.00000000
                                                     2        0.1200000       -0.04713561    0.00000000
                                                     2        0.1600000        0.10865096    0.00000000
                                                     2        0.2800000       -0.15816701    0.00000000
                                                     2        0.7000000        0.65478804    0.00000000
                                                     2        1.3000000       -1.73816624    0.00000000
                                      F - G
                                                     0        0.0000010        0.00481868    0.00000000
                                                     2        0.1200000       -0.04746842    0.00000000
                                                     2        0.1600000        0.09327889    0.00000000
                                                     2        0.4000000       -0.19693326    0.00000000
                                                     2        0.9000000        0.34938253    0.00000000
    3          6            6
                                      G and up 
                                                     0        0.0000010       -0.00011185    0.00000000
                                                     2        0.1200000       -0.02301220    0.00000000
                                                     2        0.1400000        0.13317600    0.00000000
                                                     2        0.1600000       -0.19690668    0.00000000
                                                     2        0.2200000        0.23163694    0.00000000
                                                     2        0.3000000       -0.36920489    0.00000000
                                                     2        0.4000000        0.36389709    0.00000000
                                                     2        0.7000000       -0.38862160    0.00000000
                                                     2        1.3000000        0.80803421    0.00000000
                                      S - G
                                                     0        0.0000010        0.00312304    0.00000000
                                                     2        0.1200000       -0.00632892    0.00000000
                                                     2        0.2200000       -0.03780897    0.00000000
                                                     2        0.4000000        0.26269560    0.00000000
                                                     2        0.9000000       -0.28209514    0.00000000
                                                     2        1.5000000       -0.72686737    0.00000000
                                      P - G
                                                     0        0.0000010       -0.01465594    0.00000000
                                                     2        0.1200000        0.07908409    0.00000000
                                                     2        0.1800000       -0.30615861    0.00000000
                                                     2        0.2600000        0.41506950    0.00000000
                                                     2        0.5000000       -0.36252345    0.00000000
                                                     2        0.9000000        0.15124193    0.00000000
                                                     2        3.0000000       -0.80425677    0.00000000
                                      D - G
                                                     0        0.0000010        0.01149631    0.00000000
                                                     2        0.1200000       -0.04713561    0.00000000
                                                     2        0.1600000        0.10865096    0.00000000
                                                     2        0.2800000       -0.15816701    0.00000000
                                                     2        0.7000000        0.65478804    0.00000000
                                                     2        1.3000000       -1.73816624    0.00000000
                                      F - G
                                                     0        0.0000010        0.00481868    0.00000000
                                                     2        0.1200000       -0.04746842    0.00000000
                                                     2        0.1600000        0.09327889    0.00000000
                                                     2        0.4000000       -0.19693326    0.00000000
                                                     2        0.9000000        0.34938253    0.00000000
    4          6            6
                                      G and up 
                                                     0        0.0000010       -0.00011185    0.00000000
                                                     2        0.1200000       -0.02301220    0.00000000
                                                     2        0.1400000        0.13317600    0.00000000
                                                     2        0.1600000       -0.19690668    0.00000000
                                                     2        0.2200000        0.23163694    0.00000000
                                                     2        0.3000000       -0.36920489    0.00000000
                                                     2        0.4000000        0.36389709    0.00000000
                                                     2        0.7000000       -0.38862160    0.00000000
                                                     2        1.3000000        0.80803421    0.00000000
                                      S - G
                                                     0        0.0000010        0.00312304    0.00000000
                                                     2        0.1200000       -0.00632892    0.00000000
                                                     2        0.2200000       -0.03780897    0.00000000
                                                     2        0.4000000        0.26269560    0.00000000
                                                     2        0.9000000       -0.28209514    0.00000000
                                                     2        1.5000000       -0.72686737    0.00000000
                                      P - G
                                                     0        0.0000010       -0.01465594    0.00000000
                                                     2        0.1200000        0.07908409    0.00000000
                                                     2        0.1800000       -0.30615861    0.00000000
                                                     2        0.2600000        0.41506950    0.00000000
                                                     2        0.5000000       -0.36252345    0.00000000
                                                     2        0.9000000        0.15124193    0.00000000
                                                     2        3.0000000       -0.80425677    0.00000000
                                      D - G
                                                     0        0.0000010        0.01149631    0.00000000
                                                     2        0.1200000       -0.04713561    0.00000000
                                                     2        0.1600000        0.10865096    0.00000000
                                                     2        0.2800000       -0.15816701    0.00000000
                                                     2        0.7000000        0.65478804    0.00000000
                                                     2        1.3000000       -1.73816624    0.00000000
                                      F - G
                                                     0        0.0000010        0.00481868    0.00000000
                                                     2        0.1200000       -0.04746842    0.00000000
                                                     2        0.1600000        0.09327889    0.00000000
                                                     2        0.4000000       -0.19693326    0.00000000
                                                     2        0.9000000        0.34938253    0.00000000
    5          6            6
                                      G and up 
                                                     0        0.0000010       -0.00011185    0.00000000
                                                     2        0.1200000       -0.02301220    0.00000000
                                                     2        0.1400000        0.13317600    0.00000000
                                                     2        0.1600000       -0.19690668    0.00000000
                                                     2        0.2200000        0.23163694    0.00000000
                                                     2        0.3000000       -0.36920489    0.00000000
                                                     2        0.4000000        0.36389709    0.00000000
                                                     2        0.7000000       -0.38862160    0.00000000
                                                     2        1.3000000        0.80803421    0.00000000
                                      S - G
                                                     0        0.0000010        0.00312304    0.00000000
                                                     2        0.1200000       -0.00632892    0.00000000
                                                     2        0.2200000       -0.03780897    0.00000000
                                                     2        0.4000000        0.26269560    0.00000000
                                                     2        0.9000000       -0.28209514    0.00000000
                                                     2        1.5000000       -0.72686737    0.00000000
                                      P - G
                                                     0        0.0000010       -0.01465594    0.00000000
                                                     2        0.1200000        0.07908409    0.00000000
                                                     2        0.1800000       -0.30615861    0.00000000
                                                     2        0.2600000        0.41506950    0.00000000
                                                     2        0.5000000       -0.36252345    0.00000000
                                                     2        0.9000000        0.15124193    0.00000000
                                                     2        3.0000000       -0.80425677    0.00000000
                                      D - G
                                                     0        0.0000010        0.01149631    0.00000000
                                                     2        0.1200000       -0.04713561    0.00000000
                                                     2        0.1600000        0.10865096    0.00000000
                                                     2        0.2800000       -0.15816701    0.00000000
                                                     2        0.7000000        0.65478804    0.00000000
                                                     2        1.3000000       -1.73816624    0.00000000
                                      F - G
                                                     0        0.0000010        0.00481868    0.00000000
                                                     2        0.1200000       -0.04746842    0.00000000
                                                     2        0.1600000        0.09327889    0.00000000
                                                     2        0.4000000       -0.19693326    0.00000000
                                                     2        0.9000000        0.34938253    0.00000000
    6          6            6
                                      G and up 
                                                     0        0.0000010       -0.00011185    0.00000000
                                                     2        0.1200000       -0.02301220    0.00000000
                                                     2        0.1400000        0.13317600    0.00000000
                                                     2        0.1600000       -0.19690668    0.00000000
                                                     2        0.2200000        0.23163694    0.00000000
                                                     2        0.3000000       -0.36920489    0.00000000
                                                     2        0.4000000        0.36389709    0.00000000
                                                     2        0.7000000       -0.38862160    0.00000000
                                                     2        1.3000000        0.80803421    0.00000000
                                      S - G
                                                     0        0.0000010        0.00312304    0.00000000
                                                     2        0.1200000       -0.00632892    0.00000000
                                                     2        0.2200000       -0.03780897    0.00000000
                                                     2        0.4000000        0.26269560    0.00000000
                                                     2        0.9000000       -0.28209514    0.00000000
                                                     2        1.5000000       -0.72686737    0.00000000
                                      P - G
                                                     0        0.0000010       -0.01465594    0.00000000
                                                     2        0.1200000        0.07908409    0.00000000
                                                     2        0.1800000       -0.30615861    0.00000000
                                                     2        0.2600000        0.41506950    0.00000000
                                                     2        0.5000000       -0.36252345    0.00000000
                                                     2        0.9000000        0.15124193    0.00000000
                                                     2        3.0000000       -0.80425677    0.00000000
                                      D - G
                                                     0        0.0000010        0.01149631    0.00000000
                                                     2        0.1200000       -0.04713561    0.00000000
                                                     2        0.1600000        0.10865096    0.00000000
                                                     2        0.2800000       -0.15816701    0.00000000
                                                     2        0.7000000        0.65478804    0.00000000
                                                     2        1.3000000       -1.73816624    0.00000000
                                      F - G
                                                     0        0.0000010        0.00481868    0.00000000
                                                     2        0.1200000       -0.04746842    0.00000000
                                                     2        0.1600000        0.09327889    0.00000000
                                                     2        0.4000000       -0.19693326    0.00000000
                                                     2        0.9000000        0.34938253    0.00000000
    7          1            1
                                      F and up 
                                                     0        0.0000010       -0.00000699    0.00000000
                                                     2        0.1200000        0.00123686    0.00000000
                                                     2        0.1800000       -0.00752022    0.00000000
                                                     2        0.2600000        0.02503380    0.00000000
                                                     2        0.4000000       -0.08702670    0.00000000
                                                     2        0.6000000        0.30134159    0.00000000
                                                     2        0.8000000       -0.50204959    0.00000000
                                                     2        1.2000000        0.52208372    0.00000000
                                      S - F
                                                     0        0.0000010       -0.01618346    0.00000000
                                                     2        0.1200000       -0.07880581    0.00000000
                                                     2        0.1600000        0.32040539    0.00000000
                                                     2        0.2400000       -0.47500956    0.00000000
                                                     2        0.5000000        0.54013668    0.00000000
                                                     2        1.5000000       -1.40434292    0.00000000
                                                     2        3.0000000        1.46283806    0.00000000
                                      P - F
                                                     0        0.0000010        0.00612970    0.00000000
                                                     2        0.1200000        0.02254406    0.00000000
                                                     2        0.1800000       -0.13874529    0.00000000
                                                     2        0.3000000        0.38299049    0.00000000
                                                     2        0.5000000       -0.57923512    0.00000000
                                                     2        1.0000000        0.63021625    0.00000000
                                                     2        2.0000000       -0.79201034    0.00000000
                                      D - F
                                                     0        0.0000010       -0.00296226    0.00000000
                                                     2        0.1200000       -0.00547344    0.00000000
                                                     2        0.1400000        0.01837884    0.00000000
                                                     2        0.2400000       -0.05565704    0.00000000
                                                     2        0.4000000        0.15376597    0.00000000
                                                     2        0.8000000       -0.32464795    0.00000000
    8          1            1
                                      F and up 
                                                     0        0.0000010       -0.00000699    0.00000000
                                                     2        0.1200000        0.00123686    0.00000000
                                                     2        0.1800000       -0.00752022    0.00000000
                                                     2        0.2600000        0.02503380    0.00000000
                                                     2        0.4000000       -0.08702670    0.00000000
                                                     2        0.6000000        0.30134159    0.00000000
                                                     2        0.8000000       -0.50204959    0.00000000
                                                     2        1.2000000        0.52208372    0.00000000
                                      S - F
                                                     0        0.0000010       -0.01618346    0.00000000
                                                     2        0.1200000       -0.07880581    0.00000000
                                                     2        0.1600000        0.32040539    0.00000000
                                                     2        0.2400000       -0.47500956    0.00000000
                                                     2        0.5000000        0.54013668    0.00000000
                                                     2        1.5000000       -1.40434292    0.00000000
                                                     2        3.0000000        1.46283806    0.00000000
                                      P - F
                                                     0        0.0000010        0.00612970    0.00000000
                                                     2        0.1200000        0.02254406    0.00000000
                                                     2        0.1800000       -0.13874529    0.00000000
                                                     2        0.3000000        0.38299049    0.00000000
                                                     2        0.5000000       -0.57923512    0.00000000
                                                     2        1.0000000        0.63021625    0.00000000
                                                     2        2.0000000       -0.79201034    0.00000000
                                      D - F
                                                     0        0.0000010       -0.00296226    0.00000000
                                                     2        0.1200000       -0.00547344    0.00000000
                                                     2        0.1400000        0.01837884    0.00000000
                                                     2        0.2400000       -0.05565704    0.00000000
                                                     2        0.4000000        0.15376597    0.00000000
                                                     2        0.8000000       -0.32464795    0.00000000
    9          1            1
                                      F and up 
                                                     0        0.0000010       -0.00000699    0.00000000
                                                     2        0.1200000        0.00123686    0.00000000
                                                     2        0.1800000       -0.00752022    0.00000000
                                                     2        0.2600000        0.02503380    0.00000000
                                                     2        0.4000000       -0.08702670    0.00000000
                                                     2        0.6000000        0.30134159    0.00000000
                                                     2        0.8000000       -0.50204959    0.00000000
                                                     2        1.2000000        0.52208372    0.00000000
                                      S - F
                                                     0        0.0000010       -0.01618346    0.00000000
                                                     2        0.1200000       -0.07880581    0.00000000
                                                     2        0.1600000        0.32040539    0.00000000
                                                     2        0.2400000       -0.47500956    0.00000000
                                                     2        0.5000000        0.54013668    0.00000000
                                                     2        1.5000000       -1.40434292    0.00000000
                                                     2        3.0000000        1.46283806    0.00000000
                                      P - F
                                                     0        0.0000010        0.00612970    0.00000000
                                                     2        0.1200000        0.02254406    0.00000000
                                                     2        0.1800000       -0.13874529    0.00000000
                                                     2        0.3000000        0.38299049    0.00000000
                                                     2        0.5000000       -0.57923512    0.00000000
                                                     2        1.0000000        0.63021625    0.00000000
                                                     2        2.0000000       -0.79201034    0.00000000
                                      D - F
                                                     0        0.0000010       -0.00296226    0.00000000
                                                     2        0.1200000       -0.00547344    0.00000000
                                                     2        0.1400000        0.01837884    0.00000000
                                                     2        0.2400000       -0.05565704    0.00000000
                                                     2        0.4000000        0.15376597    0.00000000
                                                     2        0.8000000       -0.32464795    0.00000000
   10          1            1
                                      F and up 
                                                     0        0.0000010       -0.00000699    0.00000000
                                                     2        0.1200000        0.00123686    0.00000000
                                                     2        0.1800000       -0.00752022    0.00000000
                                                     2        0.2600000        0.02503380    0.00000000
                                                     2        0.4000000       -0.08702670    0.00000000
                                                     2        0.6000000        0.30134159    0.00000000
                                                     2        0.8000000       -0.50204959    0.00000000
                                                     2        1.2000000        0.52208372    0.00000000
                                      S - F
                                                     0        0.0000010       -0.01618346    0.00000000
                                                     2        0.1200000       -0.07880581    0.00000000
                                                     2        0.1600000        0.32040539    0.00000000
                                                     2        0.2400000       -0.47500956    0.00000000
                                                     2        0.5000000        0.54013668    0.00000000
                                                     2        1.5000000       -1.40434292    0.00000000
                                                     2        3.0000000        1.46283806    0.00000000
                                      P - F
                                                     0        0.0000010        0.00612970    0.00000000
                                                     2        0.1200000        0.02254406    0.00000000
                                                     2        0.1800000       -0.13874529    0.00000000
                                                     2        0.3000000        0.38299049    0.00000000
                                                     2        0.5000000       -0.57923512    0.00000000
                                                     2        1.0000000        0.63021625    0.00000000
                                                     2        2.0000000       -0.79201034    0.00000000
                                      D - F
                                                     0        0.0000010       -0.00296226    0.00000000
                                                     2        0.1200000       -0.00547344    0.00000000
                                                     2        0.1400000        0.01837884    0.00000000
                                                     2        0.2400000       -0.05565704    0.00000000
                                                     2        0.4000000        0.15376597    0.00000000
                                                     2        0.8000000       -0.32464795    0.00000000
   11          1            1
                                      F and up 
                                                     0        0.0000010       -0.00000699    0.00000000
                                                     2        0.1200000        0.00123686    0.00000000
                                                     2        0.1800000       -0.00752022    0.00000000
                                                     2        0.2600000        0.02503380    0.00000000
                                                     2        0.4000000       -0.08702670    0.00000000
                                                     2        0.6000000        0.30134159    0.00000000
                                                     2        0.8000000       -0.50204959    0.00000000
                                                     2        1.2000000        0.52208372    0.00000000
                                      S - F
                                                     0        0.0000010       -0.01618346    0.00000000
                                                     2        0.1200000       -0.07880581    0.00000000
                                                     2        0.1600000        0.32040539    0.00000000
                                                     2        0.2400000       -0.47500956    0.00000000
                                                     2        0.5000000        0.54013668    0.00000000
                                                     2        1.5000000       -1.40434292    0.00000000
                                                     2        3.0000000        1.46283806    0.00000000
                                      P - F
                                                     0        0.0000010        0.00612970    0.00000000
                                                     2        0.1200000        0.02254406    0.00000000
                                                     2        0.1800000       -0.13874529    0.00000000
                                                     2        0.3000000        0.38299049    0.00000000
                                                     2        0.5000000       -0.57923512    0.00000000
                                                     2        1.0000000        0.63021625    0.00000000
                                                     2        2.0000000       -0.79201034    0.00000000
                                      D - F
                                                     0        0.0000010       -0.00296226    0.00000000
                                                     2        0.1200000       -0.00547344    0.00000000
                                                     2        0.1400000        0.01837884    0.00000000
                                                     2        0.2400000       -0.05565704    0.00000000
                                                     2        0.4000000        0.15376597    0.00000000
                                                     2        0.8000000       -0.32464795    0.00000000
   12          1            1
                                      F and up 
                                                     0        0.0000010       -0.00000699    0.00000000
                                                     2        0.1200000        0.00123686    0.00000000
                                                     2        0.1800000       -0.00752022    0.00000000
                                                     2        0.2600000        0.02503380    0.00000000
                                                     2        0.4000000       -0.08702670    0.00000000
                                                     2        0.6000000        0.30134159    0.00000000
                                                     2        0.8000000       -0.50204959    0.00000000
                                                     2        1.2000000        0.52208372    0.00000000
                                      S - F
                                                     0        0.0000010       -0.01618346    0.00000000
                                                     2        0.1200000       -0.07880581    0.00000000
                                                     2        0.1600000        0.32040539    0.00000000
                                                     2        0.2400000       -0.47500956    0.00000000
                                                     2        0.5000000        0.54013668    0.00000000
                                                     2        1.5000000       -1.40434292    0.00000000
                                                     2        3.0000000        1.46283806    0.00000000
                                      P - F
                                                     0        0.0000010        0.00612970    0.00000000
                                                     2        0.1200000        0.02254406    0.00000000
                                                     2        0.1800000       -0.13874529    0.00000000
                                                     2        0.3000000        0.38299049    0.00000000
                                                     2        0.5000000       -0.57923512    0.00000000
                                                     2        1.0000000        0.63021625    0.00000000
                                                     2        2.0000000       -0.79201034    0.00000000
                                      D - F
                                                     0        0.0000010       -0.00296226    0.00000000
                                                     2        0.1200000       -0.00547344    0.00000000
                                                     2        0.1400000        0.01837884    0.00000000
                                                     2        0.2400000       -0.05565704    0.00000000
                                                     2        0.4000000        0.15376597    0.00000000
                                                     2        0.8000000       -0.32464795    0.00000000
   13          1            1
                                      F and up 
                                                     0        0.0000010       -0.00000699    0.00000000
                                                     2        0.1200000        0.00123686    0.00000000
                                                     2        0.1800000       -0.00752022    0.00000000
                                                     2        0.2600000        0.02503380    0.00000000
                                                     2        0.4000000       -0.08702670    0.00000000
                                                     2        0.6000000        0.30134159    0.00000000
                                                     2        0.8000000       -0.50204959    0.00000000
                                                     2        1.2000000        0.52208372    0.00000000
                                      S - F
                                                     0        0.0000010       -0.01618346    0.00000000
                                                     2        0.1200000       -0.07880581    0.00000000
                                                     2        0.1600000        0.32040539    0.00000000
                                                     2        0.2400000       -0.47500956    0.00000000
                                                     2        0.5000000        0.54013668    0.00000000
                                                     2        1.5000000       -1.40434292    0.00000000
                                                     2        3.0000000        1.46283806    0.00000000
                                      P - F
                                                     0        0.0000010        0.00612970    0.00000000
                                                     2        0.1200000        0.02254406    0.00000000
                                                     2        0.1800000       -0.13874529    0.00000000
                                                     2        0.3000000        0.38299049    0.00000000
                                                     2        0.5000000       -0.57923512    0.00000000
                                                     2        1.0000000        0.63021625    0.00000000
                                                     2        2.0000000       -0.79201034    0.00000000
                                      D - F
                                                     0        0.0000010       -0.00296226    0.00000000
                                                     2        0.1200000       -0.00547344    0.00000000
                                                     2        0.1400000        0.01837884    0.00000000
                                                     2        0.2400000       -0.05565704    0.00000000
                                                     2        0.4000000        0.15376597    0.00000000
                                                     2        0.8000000       -0.32464795    0.00000000
   14          1            1
                                      F and up 
                                                     0        0.0000010       -0.00000699    0.00000000
                                                     2        0.1200000        0.00123686    0.00000000
                                                     2        0.1800000       -0.00752022    0.00000000
                                                     2        0.2600000        0.02503380    0.00000000
                                                     2        0.4000000       -0.08702670    0.00000000
                                                     2        0.6000000        0.30134159    0.00000000
                                                     2        0.8000000       -0.50204959    0.00000000
                                                     2        1.2000000        0.52208372    0.00000000
                                      S - F
                                                     0        0.0000010       -0.01618346    0.00000000
                                                     2        0.1200000       -0.07880581    0.00000000
                                                     2        0.1600000        0.32040539    0.00000000
                                                     2        0.2400000       -0.47500956    0.00000000
                                                     2        0.5000000        0.54013668    0.00000000
                                                     2        1.5000000       -1.40434292    0.00000000
                                                     2        3.0000000        1.46283806    0.00000000
                                      P - F
                                                     0        0.0000010        0.00612970    0.00000000
                                                     2        0.1200000        0.02254406    0.00000000
                                                     2        0.1800000       -0.13874529    0.00000000
                                                     2        0.3000000        0.38299049    0.00000000
                                                     2        0.5000000       -0.57923512    0.00000000
                                                     2        1.0000000        0.63021625    0.00000000
                                                     2        2.0000000       -0.79201034    0.00000000
                                      D - F
                                                     0        0.0000010       -0.00296226    0.00000000
                                                     2        0.1200000       -0.00547344    0.00000000
                                                     2        0.1400000        0.01837884    0.00000000
                                                     2        0.2400000       -0.05565704    0.00000000
                                                     2        0.4000000        0.15376597    0.00000000
                                                     2        0.8000000       -0.32464795    0.00000000
   15          1            1
                                      F and up 
                                                     0        0.0000010       -0.00000699    0.00000000
                                                     2        0.1200000        0.00123686    0.00000000
                                                     2        0.1800000       -0.00752022    0.00000000
                                                     2        0.2600000        0.02503380    0.00000000
                                                     2        0.4000000       -0.08702670    0.00000000
                                                     2        0.6000000        0.30134159    0.00000000
                                                     2        0.8000000       -0.50204959    0.00000000
                                                     2        1.2000000        0.52208372    0.00000000
                                      S - F
                                                     0        0.0000010       -0.01618346    0.00000000
                                                     2        0.1200000       -0.07880581    0.00000000
                                                     2        0.1600000        0.32040539    0.00000000
                                                     2        0.2400000       -0.47500956    0.00000000
                                                     2        0.5000000        0.54013668    0.00000000
                                                     2        1.5000000       -1.40434292    0.00000000
                                                     2        3.0000000        1.46283806    0.00000000
                                      P - F
                                                     0        0.0000010        0.00612970    0.00000000
                                                     2        0.1200000        0.02254406    0.00000000
                                                     2        0.1800000       -0.13874529    0.00000000
                                                     2        0.3000000        0.38299049    0.00000000
                                                     2        0.5000000       -0.57923512    0.00000000
                                                     2        1.0000000        0.63021625    0.00000000
                                                     2        2.0000000       -0.79201034    0.00000000
                                      D - F
                                                     0        0.0000010       -0.00296226    0.00000000
                                                     2        0.1200000       -0.00547344    0.00000000
                                                     2        0.1400000        0.01837884    0.00000000
                                                     2        0.2400000       -0.05565704    0.00000000
                                                     2        0.4000000        0.15376597    0.00000000
                                                     2        0.8000000       -0.32464795    0.00000000
   16          1            1
                                      F and up 
                                                     0        0.0000010       -0.00000699    0.00000000
                                                     2        0.1200000        0.00123686    0.00000000
                                                     2        0.1800000       -0.00752022    0.00000000
                                                     2        0.2600000        0.02503380    0.00000000
                                                     2        0.4000000       -0.08702670    0.00000000
                                                     2        0.6000000        0.30134159    0.00000000
                                                     2        0.8000000       -0.50204959    0.00000000
                                                     2        1.2000000        0.52208372    0.00000000
                                      S - F
                                                     0        0.0000010       -0.01618346    0.00000000
                                                     2        0.1200000       -0.07880581    0.00000000
                                                     2        0.1600000        0.32040539    0.00000000
                                                     2        0.2400000       -0.47500956    0.00000000
                                                     2        0.5000000        0.54013668    0.00000000
                                                     2        1.5000000       -1.40434292    0.00000000
                                                     2        3.0000000        1.46283806    0.00000000
                                      P - F
                                                     0        0.0000010        0.00612970    0.00000000
                                                     2        0.1200000        0.02254406    0.00000000
                                                     2        0.1800000       -0.13874529    0.00000000
                                                     2        0.3000000        0.38299049    0.00000000
                                                     2        0.5000000       -0.57923512    0.00000000
                                                     2        1.0000000        0.63021625    0.00000000
                                                     2        2.0000000       -0.79201034    0.00000000
                                      D - F
                                                     0        0.0000010       -0.00296226    0.00000000
                                                     2        0.1200000       -0.00547344    0.00000000
                                                     2        0.1400000        0.01837884    0.00000000
                                                     2        0.2400000       -0.05565704    0.00000000
                                                     2        0.4000000        0.15376597    0.00000000
                                                     2        0.8000000       -0.32464795    0.00000000
 ======================================================================================================
   228 basis functions,   368 primitive gaussians,   240 cartesian basis functions
    24 alpha electrons       24 beta electrons
       nuclear repulsion energy       241.8314818604 Hartrees.
 NAtoms=   16 NActive=   16 NUniq=   16 SFac= 1.00D+00 NAtFMM=   60 NAOKFM=F Big=F
   1 Symmetry operations used in ECPInt.
 ECPInt:  NShTT=    5460 NPrTT=   22036 LenC2=    5457 LenP2D=   18152.
 LDataN:  DoStor=T MaxTD1= 6 Len=  172
 Initial guess from the checkpoint file:  "Grambow2020_wb97xd3_006159_reverse_mol2.chk"
 B after Tr=     0.316025    0.286013    0.159985
         Rot=    0.076700   -0.080095    0.036357    0.993167 Ang=-171.20 deg.
 >>>>>>>>>> Convergence criterion not met.
 SCF Done:  E(RHF) =  -269.999018241     A.U. after    2 cycles
            NFock=  1  Conv=0.46D-02     -V/T= 1.9994

 **********************************************************************

            Population analysis using the SCF Density.

 **********************************************************************

 Orbital symmetries:
       Occupied  (A) (A) (A) (A) (A) (A) (A) (A) (A) (A) (A) (A)
                 (A) (A) (A) (A) (A) (A) (A) (A) (A) (A) (A) (A)
       Virtual   (A) (A) (A) (A) (A) (A) (A) (A) (A) (A) (A) (A)
                 (A) (A) (A) (A) (A) (A) (A) (A) (A) (A) (A) (A)
                 (A) (A) (A) (A) (A) (A) (A) (A) (A) (A) (A) (A)
                 (A) (A) (A) (A) (A) (A) (A) (A) (A) (A) (A) (A)
                 (A) (A) (A) (A) (A) (A) (A) (A) (A) (A) (A) (A)
                 (A) (A) (A) (A) (A) (A) (A) (A) (A) (A) (A) (A)
                 (A) (A) (A) (A) (A) (A) (A) (A) (A) (A) (A) (A)
                 (A) (A) (A) (A) (A) (A) (A) (A) (A) (A) (A) (A)
                 (A) (A) (A) (A) (A) (A) (A) (A) (A) (A) (A) (A)
                 (A) (A) (A) (A) (A) (A) (A) (A) (A) (A) (A) (A)
                 (A) (A) (A) (A) (A) (A) (A) (A) (A) (A) (A) (A)
                 (A) (A) (A) (A) (A) (A) (A) (A) (A) (A) (A) (A)
                 (A) (A) (A) (A) (A) (A) (A) (A) (A) (A) (A) (A)
                 (A) (A) (A) (A) (A) (A) (A) (A) (A) (A) (A) (A)
                 (A) (A) (A) (A) (A) (A) (A) (A) (A) (A) (A) (A)
                 (A) (A) (A) (A) (A) (A) (A) (A) (A) (A) (A) (A)
                 (A) (A) (A) (A) (A) (A) (A) (A) (A) (A) (A) (A)
 The electronic state is 1-A.
 Alpha  occ. eigenvalues --  -20.57959 -11.29422 -11.27595 -11.25976 -11.24430
 Alpha  occ. eigenvalues --  -11.24017  -1.33454  -1.10363  -0.99279  -0.93121
 Alpha  occ. eigenvalues --   -0.82892  -0.76524  -0.72082  -0.64520  -0.63430
 Alpha  occ. eigenvalues --   -0.62818  -0.58325  -0.55913  -0.52754  -0.52177
 Alpha  occ. eigenvalues --   -0.50047  -0.47450  -0.44894  -0.35953
 Alpha virt. eigenvalues --    0.03188   0.04064   0.04515   0.05002   0.05584
 Alpha virt. eigenvalues --    0.06721   0.06822   0.07183   0.07568   0.08358
 Alpha virt. eigenvalues --    0.09435   0.12114   0.13491   0.14020   0.14098
 Alpha virt. eigenvalues --    0.14907   0.15651   0.15791   0.16346   0.16802
 Alpha virt. eigenvalues --    0.17886   0.18042   0.18902   0.19347   0.19823
 Alpha virt. eigenvalues --    0.20163   0.20465   0.22290   0.23322   0.24047
 Alpha virt. eigenvalues --    0.26283   0.27174   0.28392   0.30081   0.30589
 Alpha virt. eigenvalues --    0.32232   0.33531   0.33799   0.34389   0.36488
 Alpha virt. eigenvalues --    0.36783   0.37397   0.38309   0.39824   0.40925
 Alpha virt. eigenvalues --    0.42307   0.42997   0.43788   0.44157   0.44469
 Alpha virt. eigenvalues --    0.45783   0.46169   0.47374   0.47959   0.48772
 Alpha virt. eigenvalues --    0.49360   0.50690   0.51034   0.52381   0.54096
 Alpha virt. eigenvalues --    0.54229   0.55377   0.57206   0.57845   0.59134
 Alpha virt. eigenvalues --    0.59938   0.60058   0.60782   0.61431   0.62037
 Alpha virt. eigenvalues --    0.63132   0.64142   0.64595   0.66242   0.68071
 Alpha virt. eigenvalues --    0.68630   0.69201   0.69982   0.70945   0.71778
 Alpha virt. eigenvalues --    0.72886   0.73777   0.76390   0.76730   0.77156
 Alpha virt. eigenvalues --    0.78174   0.78870   0.80112   0.81381   0.81995
 Alpha virt. eigenvalues --    0.83622   0.84208   0.85951   0.87044   0.87657
 Alpha virt. eigenvalues --    0.88305   0.89809   0.90758   0.92950   0.93399
 Alpha virt. eigenvalues --    0.95018   0.95127   0.96866   1.00481   1.01674
 Alpha virt. eigenvalues --    1.03721   1.07052   1.08994   1.12256   1.14674
 Alpha virt. eigenvalues --    1.16087   1.17539   1.18786   1.22895   1.24060
 Alpha virt. eigenvalues --    1.28544   1.29811   1.30775   1.32315   1.33597
 Alpha virt. eigenvalues --    1.35587   1.38434   1.41789   1.42942   1.48992
 Alpha virt. eigenvalues --    1.50424   1.53291   1.57535   1.60885   1.64069
 Alpha virt. eigenvalues --    1.65529   1.66433   1.68576   1.70743   1.74779
 Alpha virt. eigenvalues --    1.76216   1.78277   1.78919   1.80943   1.83650
 Alpha virt. eigenvalues --    1.85120   1.89038   1.90500   1.92822   1.93908
 Alpha virt. eigenvalues --    1.95201   1.98088   2.00401   2.04317   2.06962
 Alpha virt. eigenvalues --    2.08416   2.10931   2.12938   2.13583   2.15306
 Alpha virt. eigenvalues --    2.17588   2.18794   2.20322   2.23295   2.24520
 Alpha virt. eigenvalues --    2.27913   2.28407   2.29559   2.31012   2.32802
 Alpha virt. eigenvalues --    2.34185   2.37306   2.39935   2.41832   2.44819
 Alpha virt. eigenvalues --    2.46839   2.49381   2.50428   2.52101   2.53109
 Alpha virt. eigenvalues --    2.56219   2.59439   2.62704   2.64930   2.68967
 Alpha virt. eigenvalues --    2.74596   2.77347   2.78120   2.79367   2.84157
 Alpha virt. eigenvalues --    2.88401   2.88604   2.91221   2.93703   2.97138
 Alpha virt. eigenvalues --    3.02565   3.08161   3.12094   3.13573   3.18270
 Alpha virt. eigenvalues --    3.28794   3.30802   3.46076   3.64027   3.66509
 Alpha virt. eigenvalues --    3.69206   3.77727   3.89179   4.21058
          Condensed to atoms (all electrons):
 Mulliken charges:
               1
     1  O   -0.532807
     2  C    1.089284
     3  C   -1.293553
     4  C    0.680245
     5  C    0.017954
     6  C    0.750991
     7  H    0.168708
     8  H   -0.145525
     9  H   -0.087927
    10  H   -0.224730
    11  H   -0.003463
    12  H   -0.071163
    13  H   -0.063286
    14  H   -0.084195
    15  H   -0.132545
    16  H   -0.067987
 Sum of Mulliken charges =  -0.00000
 Mulliken charges with hydrogens summed into heavy atoms:
               1
     1  O   -0.364099
     2  C    0.855832
     3  C   -1.518283
     4  C    0.542333
     5  C   -0.066242
     6  C    0.550459
 Electronic spatial extent (au):  <R**2>=            682.3978
 Charge=             -0.0000 electrons
 Dipole moment (field-independent basis, Debye):
    X=             -0.0393    Y=              0.9549    Z=              2.8319  Tot=              2.9888

 Test job not archived.
 1\1\GINC-SE461\SP\RHF\Aug-CC-pVDZ\C5H10O1\OHZDE\09-Apr-2025\0\\#t hf a
 ug-cc-pvdz iop(5/13=1,5/36=2,99/5=2) pseudo=read geom=check guess=(rea
 d,tcheck) scf=(maxcycle=1)\\title\\0,1\O,0,2.44156903,0.32411607,0.079
 55544\C,0,1.36733465,-0.54625913,0.34639332\C,0,0.07152402,-0.18870858
 ,-0.38349487\C,0,-0.99409191,-1.24031819,-0.08233781\C,0,-1.60326655,1
 .44462784,-0.74117987\C,0,-0.36683374,1.25906703,0.02277967\H,0,2.3419
 4069,1.12000659,0.60356809\H,0,1.68643668,-1.53396881,0.00431424\H,0,1
 .1742052,-0.61926558,1.4253602\H,0,0.27898264,-0.17704836,-1.45562698\
 H,0,-1.31161177,-1.19336396,0.96308591\H,0,-0.60498201,-2.2437365,-0.2
 6817354\H,0,-1.87847175,-1.1122282,-0.70929629\H,0,-2.45071776,1.21201
 849,-0.06687461\H,0,-0.43701231,1.30225901,1.11925839\H,0,0.42340989,1
 .92254128,-0.33935728\\Version=ES64L-G16RevC.01\State=1-A\HF=-269.9990
 182\RMSD=4.583e-03\Dipole=-0.2153845,-0.2784078,1.1219814\Quadrupole=-
 3.1908774,3.1817089,0.0091685,2.4950219,-1.6331283,3.621637\PG=C01 [X(
 C5H10O1)]\\@


 WE HAVE LEFT UNDONE THOSE THINGS WHICH WE OUGHT TO HAVE DONE,
 AND WE HAVE DONE THOSE THINGS WHICH WE OUGHT NOT TO HAVE DONE.
                   BOOK OF COMMON PRAYER                      
 Job cpu time:       0 days  0 hours  0 minutes 56.5 seconds.
 Elapsed time:       0 days  0 hours  0 minutes  4.6 seconds.
 File lengths (MBytes):  RWF=     10 Int=      0 D2E=      0 Chk=      7 Scr=      1
 Normal termination of Gaussian 16 at Wed Apr  9 03:21:18 2025.
