 Entering Gaussian System, Link 0=g16
 Input=Grambow2020_wb97xd3_006153_reverse_mol1.gjf
 Output=Grambow2020_wb97xd3_006153_reverse_mol1.log
 Initial command:
 /arc/software/Gaussian/g16.c01/l1.exe "/tmp/slurm/4862971/Gau-1963415.inp" -scrdir="/tmp/slurm/4862971/"
 Entering Link 1 = /arc/software/Gaussian/g16.c01/l1.exe PID=   1963429.
  
 Copyright (c) 1988-2019, Gaussian, Inc.  All Rights Reserved.
  
 This is part of the Gaussian(R) 16 program.  It is based on
 the Gaussian(R) 09 system (copyright 2009, Gaussian, Inc.),
 the Gaussian(R) 03 system (copyright 2003, Gaussian, Inc.),
 the Gaussian(R) 98 system (copyright 1998, Gaussian, Inc.),
 the Gaussian(R) 94 system (copyright 1995, Gaussian, Inc.),
 the Gaussian 92(TM) system (copyright 1992, Gaussian, Inc.),
 the Gaussian 90(TM) system (copyright 1990, Gaussian, Inc.),
 the Gaussian 88(TM) system (copyright 1988, Gaussian, Inc.),
 the Gaussian 86(TM) system (copyright 1986, Carnegie Mellon
 University), and the Gaussian 82(TM) system (copyright 1983,
 Carnegie Mellon University). Gaussian is a federally registered
 trademark of Gaussian, Inc.
  
 This software contains proprietary and confidential information,
 including trade secrets, belonging to Gaussian, Inc.
  
 This software is provided under written license and may be
 used, copied, transmitted, or stored only in accord with that
 written license.
  
 The following legend is applicable only to US Government
 contracts under FAR:
  
                    RESTRICTED RIGHTS LEGEND
  
 Use, reproduction and disclosure by the US Government is
 subject to restrictions as set forth in subparagraphs (a)
 and (c) of the Commercial Computer Software - Restricted
 Rights clause in FAR 52.227-19.
  
 Gaussian, Inc.
 340 Quinnipiac St., Bldg. 40, Wallingford CT 06492
  
  
 ---------------------------------------------------------------
 Warning -- This program may not be used in any manner that
 competes with the business of Gaussian, Inc. or will provide
 assistance to any competitor of Gaussian, Inc.  The licensee
 of this program is prohibited from giving any competitor of
 Gaussian, Inc. access to this program.  By using this program,
 the user acknowledges that Gaussian, Inc. is engaged in the
 business of creating and licensing software in the field of
 computational chemistry and represents and warrants to the
 licensee that it is not a competitor of Gaussian, Inc. and that
 it will not use this program in any manner prohibited above.
 ---------------------------------------------------------------
  

 Cite this work as:
 Gaussian 16, Revision C.01,
 M. J. Frisch, G. W. Trucks, H. B. Schlegel, G. E. Scuseria, 
 M. A. Robb, J. R. Cheeseman, G. Scalmani, V. Barone, 
 G. A. Petersson, H. Nakatsuji, X. Li, M. Caricato, A. V. Marenich, 
 J. Bloino, B. G. Janesko, R. Gomperts, B. Mennucci, H. P. Hratchian, 
 J. V. Ortiz, A. F. Izmaylov, J. L. Sonnenberg, D. Williams-Young, 
 F. Ding, F. Lipparini, F. Egidi, J. Goings, B. Peng, A. Petrone, 
 T. Henderson, D. Ranasinghe, V. G. Zakrzewski, J. Gao, N. Rega, 
 G. Zheng, W. Liang, M. Hada, M. Ehara, K. Toyota, R. Fukuda, 
 J. Hasegawa, M. Ishida, T. Nakajima, Y. Honda, O. Kitao, H. Nakai, 
 T. Vreven, K. Throssell, J. A. Montgomery, Jr., J. E. Peralta, 
 F. Ogliaro, M. J. Bearpark, J. J. Heyd, E. N. Brothers, K. N. Kudin, 
 V. N. Staroverov, T. A. Keith, R. Kobayashi, J. Normand, 
 K. Raghavachari, A. P. Rendell, J. C. Burant, S. S. Iyengar, 
 J. Tomasi, M. Cossi, J. M. Millam, M. Klene, C. Adamo, R. Cammi, 
 J. W. Ochterski, R. L. Martin, K. Morokuma, O. Farkas, 
 J. B. Foresman, and D. J. Fox, Gaussian, Inc., Wallingford CT, 2019.
 
 ******************************************
 Gaussian 16:  ES64L-G16RevC.01  3-Jul-2019
                 9-Apr-2025 
 ******************************************
 %nprocs=16
 Will use up to   16 processors via shared memory.
 %mem=30GB
 %chk=Grambow2020_wb97xd3_006153_reverse_mol1.chk
 ----------------------------------------------------------------------
 #t hf aug-cc-pvdz symm=none int=(grid=ultrafine) guess=(read,tcheck) s
 table=(opt,rrhf)
 ----------------------------------------------------------------------
 -----
 title
 -----
 Symbolic Z-matrix:
 Charge =  0 Multiplicity = 1
 O                     2.70755   0.29868   0.12694 
 C                     1.51917  -0.25731   0.48006 
 C                     0.348    -0.03129  -0.35852 
 C                    -0.49439  -1.20319   0.08455 
 C                    -1.85087   0.47833  -0.35569 
 C                    -0.60929   1.23519  -0.21827 
 H                     3.29286   0.35072   0.88495 
 H                     0.68031  -1.72952   0.3724 
 H                     1.33619  -0.29875   1.55472 
 H                     0.59375  -0.14867  -1.41438 
 H                    -0.9289   -1.16433   1.07718 
 H                    -0.91546  -1.89522  -0.63282 
 H                    -2.21317   0.25142  -1.35126 
 H                    -2.59807   0.47859   0.426 
 H                    -0.49358   1.69586   0.76326 
 H                    -0.39278   1.97662  -0.98588 
 
                    Distance matrix (angstroms):
                    1          2          3          4          5
     1  O    0.000000
     2  C    1.358701   0.000000
     3  C    2.431460   1.458054   0.000000
     4  C    3.536927   2.259547   1.509731   0.000000
     5  C    4.587413   3.549195   2.257157   2.204847   0.000000
     6  C    3.463761   2.691758   1.593756   2.459797   1.460557
     7  H    0.959105   1.918234   3.219367   4.171161   5.292769
     8  H    2.878119   1.697847   1.878472   1.319018   3.436799
     9  H    2.067873   1.090911   2.169911   2.516040   3.796163
    10  H    2.654044   2.111189   1.090425   2.131397   2.736808
    11  H    4.033248   2.678107   2.230576   1.084265   2.366741
    12  H    4.303095   3.138258   2.268438   1.082042   2.566229
    13  H    5.138166   4.188421   2.761352   2.670510   1.083471
    14  H    5.317079   4.182832   3.091077   2.714851   1.081357
    15  H    3.550244   2.818908   2.224794   2.977446   2.139315
    16  H    3.696741   3.285574   2.230262   3.356689   2.183584
                    6          7          8          9         10
     6  C    0.000000
     7  H    4.150442   0.000000
     8  H    3.286560   3.378690   0.000000
     9  H    3.046532   2.167707   1.968542   0.000000
    10  H    2.189308   3.580718   2.387297   3.064198   0.000000
    11  H    2.745543   4.489494   1.845456   2.471414   3.091585
    12  H    3.172546   5.005781   1.893253   3.521927   2.437002
    13  H    2.196334   5.943639   3.907347   4.620102   2.835990
    14  H    2.223225   5.910159   3.953021   4.166131   3.737396
    15  H    1.090417   4.020116   3.641986   2.820099   3.053969
    16  H    1.088959   4.441567   4.090473   3.823783   2.381960
                   11         12         13         14         15
    11  H    0.000000
    12  H    1.859702   0.000000
    13  H    3.090471   2.609266   0.000000
    14  H    2.430913   3.096324   1.832589   0.000000
    15  H    2.910109   3.875940   3.084573   2.454458   0.000000
    16  H    3.795946   3.922883   2.534487   3.016748   1.774395
                   16
    16  H    0.000000
 Symmetry turned off by external request.
 Rotational constants (GHZ):           7.4071729           2.2041612           1.8477214
   228 basis functions,   368 primitive gaussians,   240 cartesian basis functions
    24 alpha electrons       24 beta electrons
       nuclear repulsion energy       243.8976669643 Hartrees.
 NAtoms=   16 NActive=   16 NUniq=   16 SFac= 1.00D+00 NAtFMM=   60 NAOKFM=F Big=F
 ExpMin= 2.97D-02 ExpMax= 1.17D+04 ExpMxC= 4.01D+02 IAcc=3 IRadAn=         5 AccDes= 0.00D+00
 Harris functional with IExCor=  205 and IRadAn=       5 diagonalized for initial guess.
 HarFok:  IExCor=  205 AccDes= 0.00D+00 IRadAn=         5 IDoV= 1 UseB2=F ITyADJ=14
 ICtDFT=  3500011 ScaDFX=  1.000000  1.000000  1.000000  1.000000
 FoFCou: FMM=F IPFlag=           0 FMFlag=      100000 FMFlg1=           0
         NFxFlg=           0 DoJE=T BraDBF=F KetDBF=T FulRan=T
         wScrn=  0.000000 ICntrl=       500 IOpCl=  0 I1Cent=   200000004 NGrid=           0
         NMat0=    1 NMatS0=      1 NMatT0=    0 NMatD0=    1 NMtDS0=    0 NMtDT0=    0
 Symmetry not used in FoFCou.
 SCF Done:  E(RHF) =  -269.792916129     A.U. after   17 cycles
            NFock= 17  Conv=0.42D-08     -V/T= 2.0008

 **********************************************************************

            Population analysis using the SCF Density.

 **********************************************************************

 Alpha  occ. eigenvalues --  -20.60872 -11.31622 -11.24270 -11.23562 -11.22981
 Alpha  occ. eigenvalues --  -11.22734  -1.41558  -1.12016  -0.99265  -0.89848
 Alpha  occ. eigenvalues --   -0.82757  -0.76824  -0.73764  -0.65787  -0.62582
 Alpha  occ. eigenvalues --   -0.59308  -0.58866  -0.55598  -0.52535  -0.51950
 Alpha  occ. eigenvalues --   -0.48694  -0.46701  -0.38966  -0.22171
 Alpha virt. eigenvalues --    0.03069   0.04295   0.04667   0.05257   0.05551
 Alpha virt. eigenvalues --    0.06792   0.06887   0.07049   0.07443   0.08435
 Alpha virt. eigenvalues --    0.09514   0.12947   0.13051   0.13998   0.14742
 Alpha virt. eigenvalues --    0.14776   0.15310   0.16166   0.16551   0.16816
 Alpha virt. eigenvalues --    0.18176   0.18795   0.19442   0.19649   0.20102
 Alpha virt. eigenvalues --    0.20412   0.20958   0.21760   0.23859   0.24319
 Alpha virt. eigenvalues --    0.26385   0.26979   0.28372   0.30616   0.31514
 Alpha virt. eigenvalues --    0.32164   0.33239   0.34393   0.36294   0.36815
 Alpha virt. eigenvalues --    0.38147   0.38336   0.39039   0.40150   0.42353
 Alpha virt. eigenvalues --    0.43047   0.43854   0.44454   0.45359   0.46553
 Alpha virt. eigenvalues --    0.47153   0.47182   0.47811   0.48447   0.48555
 Alpha virt. eigenvalues --    0.49799   0.49873   0.51892   0.53001   0.53511
 Alpha virt. eigenvalues --    0.54850   0.55601   0.56077   0.57992   0.58761
 Alpha virt. eigenvalues --    0.60225   0.61422   0.62517   0.63581   0.64068
 Alpha virt. eigenvalues --    0.65280   0.66189   0.66581   0.68025   0.68486
 Alpha virt. eigenvalues --    0.68708   0.69737   0.70446   0.72234   0.72780
 Alpha virt. eigenvalues --    0.73586   0.74751   0.75889   0.77070   0.77224
 Alpha virt. eigenvalues --    0.78052   0.79163   0.80349   0.81370   0.82087
 Alpha virt. eigenvalues --    0.84419   0.84782   0.86476   0.87754   0.88714
 Alpha virt. eigenvalues --    0.89975   0.91514   0.92253   0.93657   0.94281
 Alpha virt. eigenvalues --    0.97175   0.98206   0.99418   1.00651   1.04838
 Alpha virt. eigenvalues --    1.07542   1.10197   1.12934   1.14553   1.17972
 Alpha virt. eigenvalues --    1.19013   1.20873   1.21990   1.23730   1.25006
 Alpha virt. eigenvalues --    1.26592   1.29467   1.31670   1.32687   1.37374
 Alpha virt. eigenvalues --    1.40029   1.43231   1.45022   1.48921   1.50151
 Alpha virt. eigenvalues --    1.52275   1.55085   1.59320   1.61655   1.63993
 Alpha virt. eigenvalues --    1.65621   1.69003   1.71135   1.74240   1.76156
 Alpha virt. eigenvalues --    1.79387   1.80229   1.82209   1.83985   1.85639
 Alpha virt. eigenvalues --    1.88283   1.91324   1.93221   1.95829   1.99254
 Alpha virt. eigenvalues --    1.99962   2.00219   2.03590   2.05396   2.07525
 Alpha virt. eigenvalues --    2.10513   2.10865   2.12203   2.14547   2.15321
 Alpha virt. eigenvalues --    2.17554   2.18280   2.21253   2.23774   2.25002
 Alpha virt. eigenvalues --    2.26381   2.30283   2.33620   2.34486   2.35821
 Alpha virt. eigenvalues --    2.40162   2.42615   2.43288   2.47219   2.48773
 Alpha virt. eigenvalues --    2.51425   2.53363   2.54824   2.57190   2.60805
 Alpha virt. eigenvalues --    2.64311   2.64953   2.68084   2.69921   2.74407
 Alpha virt. eigenvalues --    2.76641   2.78289   2.81696   2.85387   2.87664
 Alpha virt. eigenvalues --    2.91598   2.93351   2.97453   3.03737   3.09721
 Alpha virt. eigenvalues --    3.11446   3.14240   3.19058   3.22228   3.30974
 Alpha virt. eigenvalues --    3.32465   3.39446   3.58703   3.73538   3.79578
 Alpha virt. eigenvalues --    3.80927   3.98616   4.23520   4.36725
          Condensed to atoms (all electrons):
 Mulliken charges:
               1
     1  O   -0.710081
     2  C    0.723731
     3  C    0.001055
     4  C    0.298892
     5  C    0.731514
     6  C    0.456098
     7  H    0.154955
     8  H    0.271092
     9  H   -0.275357
    10  H   -0.218082
    11  H   -0.123552
    12  H   -0.260782
    13  H   -0.358444
    14  H   -0.332080
    15  H   -0.203137
    16  H   -0.155823
 Sum of Mulliken charges =  -0.00000
 Mulliken charges with hydrogens summed into heavy atoms:
               1
     1  O   -0.555126
     2  C    0.448374
     3  C   -0.217027
     4  C    0.185650
     5  C    0.040990
     6  C    0.097138
 Electronic spatial extent (au):  <R**2>=            709.0890
 Charge=             -0.0000 electrons
 Dipole moment (field-independent basis, Debye):
    X=              0.8407    Y=              0.3837    Z=              1.5645  Tot=              1.8171
 NROrb=    228 NOA=    24 NOB=    24 NVA=   204 NVB=   204

 **** Warning!!: The largest alpha MO coefficient is  0.58921184D+02

    12 initial guesses have been made.
 Iteration     1 Dimension    12 NMult     0 NNew     12
 New state      1 was old state      2
 Iteration     2 Dimension    24 NMult    12 NNew     12
 Iteration     3 Dimension    27 NMult    24 NNew      3
 Iteration     4 Dimension    30 NMult    27 NNew      3
 Iteration     5 Dimension    33 NMult    30 NNew      3
 Iteration     6 Dimension    36 NMult    33 NNew      3
 Iteration     7 Dimension    39 NMult    36 NNew      3
 ***********************************************************************
 Stability analysis using <AA,BB:AA,BB> singles matrix:
 ***********************************************************************
 Ground to excited state transition densities written to RWF  633

 Eigenvectors of the stability matrix:
 
 Excited state symmetry could not be determined.
 Eigenvector   1:      Singlet-?Sym  Eigenvalue= 0.1246312  <S**2>=0.000
      24 -> 25         0.18114
      24 -> 26        -0.12877
      24 -> 29         0.49655
      24 -> 31        -0.11015
      24 -> 32         0.11597
      24 -> 33        -0.16187
      24 -> 34        -0.23536
 The wavefunction is stable under the perturbations considered.
 The wavefunction is already stable.

 **********************************************************************

            Population analysis using the SCF Density.

 **********************************************************************

 Alpha  occ. eigenvalues --  -20.60872 -11.31622 -11.24270 -11.23562 -11.22981
 Alpha  occ. eigenvalues --  -11.22734  -1.41558  -1.12016  -0.99265  -0.89848
 Alpha  occ. eigenvalues --   -0.82757  -0.76824  -0.73764  -0.65787  -0.62582
 Alpha  occ. eigenvalues --   -0.59308  -0.58866  -0.55598  -0.52535  -0.51950
 Alpha  occ. eigenvalues --   -0.48694  -0.46701  -0.38966  -0.22171
 Alpha virt. eigenvalues --    0.03069   0.04295   0.04667   0.05257   0.05551
 Alpha virt. eigenvalues --    0.06792   0.06887   0.07049   0.07443   0.08435
 Alpha virt. eigenvalues --    0.09514   0.12947   0.13051   0.13998   0.14742
 Alpha virt. eigenvalues --    0.14776   0.15310   0.16166   0.16551   0.16816
 Alpha virt. eigenvalues --    0.18176   0.18795   0.19442   0.19649   0.20102
 Alpha virt. eigenvalues --    0.20412   0.20958   0.21760   0.23859   0.24319
 Alpha virt. eigenvalues --    0.26385   0.26979   0.28372   0.30616   0.31514
 Alpha virt. eigenvalues --    0.32164   0.33239   0.34393   0.36294   0.36815
 Alpha virt. eigenvalues --    0.38147   0.38336   0.39039   0.40150   0.42353
 Alpha virt. eigenvalues --    0.43047   0.43854   0.44454   0.45359   0.46553
 Alpha virt. eigenvalues --    0.47153   0.47182   0.47811   0.48447   0.48555
 Alpha virt. eigenvalues --    0.49799   0.49873   0.51892   0.53001   0.53511
 Alpha virt. eigenvalues --    0.54850   0.55601   0.56077   0.57992   0.58761
 Alpha virt. eigenvalues --    0.60225   0.61422   0.62517   0.63581   0.64068
 Alpha virt. eigenvalues --    0.65280   0.66189   0.66581   0.68025   0.68486
 Alpha virt. eigenvalues --    0.68708   0.69737   0.70446   0.72234   0.72780
 Alpha virt. eigenvalues --    0.73586   0.74751   0.75889   0.77070   0.77224
 Alpha virt. eigenvalues --    0.78052   0.79163   0.80349   0.81370   0.82087
 Alpha virt. eigenvalues --    0.84419   0.84782   0.86476   0.87754   0.88714
 Alpha virt. eigenvalues --    0.89975   0.91514   0.92253   0.93657   0.94281
 Alpha virt. eigenvalues --    0.97175   0.98206   0.99418   1.00651   1.04838
 Alpha virt. eigenvalues --    1.07542   1.10197   1.12934   1.14553   1.17972
 Alpha virt. eigenvalues --    1.19013   1.20873   1.21990   1.23730   1.25006
 Alpha virt. eigenvalues --    1.26592   1.29467   1.31670   1.32687   1.37374
 Alpha virt. eigenvalues --    1.40029   1.43231   1.45022   1.48921   1.50151
 Alpha virt. eigenvalues --    1.52275   1.55085   1.59320   1.61655   1.63993
 Alpha virt. eigenvalues --    1.65621   1.69003   1.71135   1.74240   1.76156
 Alpha virt. eigenvalues --    1.79387   1.80229   1.82209   1.83985   1.85639
 Alpha virt. eigenvalues --    1.88283   1.91324   1.93221   1.95829   1.99254
 Alpha virt. eigenvalues --    1.99962   2.00219   2.03590   2.05396   2.07525
 Alpha virt. eigenvalues --    2.10513   2.10865   2.12203   2.14547   2.15321
 Alpha virt. eigenvalues --    2.17554   2.18280   2.21253   2.23774   2.25002
 Alpha virt. eigenvalues --    2.26381   2.30283   2.33620   2.34486   2.35821
 Alpha virt. eigenvalues --    2.40162   2.42615   2.43288   2.47219   2.48773
 Alpha virt. eigenvalues --    2.51425   2.53363   2.54824   2.57190   2.60805
 Alpha virt. eigenvalues --    2.64311   2.64953   2.68084   2.69921   2.74407
 Alpha virt. eigenvalues --    2.76641   2.78289   2.81696   2.85387   2.87664
 Alpha virt. eigenvalues --    2.91598   2.93351   2.97453   3.03737   3.09721
 Alpha virt. eigenvalues --    3.11446   3.14240   3.19058   3.22228   3.30974
 Alpha virt. eigenvalues --    3.32465   3.39446   3.58703   3.73538   3.79578
 Alpha virt. eigenvalues --    3.80927   3.98616   4.23520   4.36725
          Condensed to atoms (all electrons):
 Mulliken charges:
               1
     1  O   -0.710081
     2  C    0.723731
     3  C    0.001055
     4  C    0.298892
     5  C    0.731514
     6  C    0.456098
     7  H    0.154955
     8  H    0.271092
     9  H   -0.275357
    10  H   -0.218082
    11  H   -0.123552
    12  H   -0.260782
    13  H   -0.358444
    14  H   -0.332080
    15  H   -0.203137
    16  H   -0.155823
 Sum of Mulliken charges =  -0.00000
 Mulliken charges with hydrogens summed into heavy atoms:
               1
     1  O   -0.555126
     2  C    0.448374
     3  C   -0.217027
     4  C    0.185650
     5  C    0.040990
     6  C    0.097138
 Electronic spatial extent (au):  <R**2>=            709.0890
 Charge=             -0.0000 electrons
 Dipole moment (field-independent basis, Debye):
    X=              0.8407    Y=              0.3837    Z=              1.5645  Tot=              1.8171
 Unable to Open any file for archive entry.
 1\1\GINC-SE072\Stability\RHF\Aug-CC-pVDZ\C5H10O1\OHZDE\09-Apr-2025\0\\
 #t hf aug-cc-pvdz symm=none int=(grid=ultrafine) guess=(read,tcheck) s
 table=(opt,rrhf)\\title\\0,1\O,0,2.70754663,0.29868455,0.12693668\C,0,
 1.51916789,-0.25730923,0.48005883\C,0,0.34800197,-0.03129143,-0.358516
 13\C,0,-0.49439304,-1.20319266,0.08454642\C,0,-1.85086967,0.47832942,-
 0.35568695\C,0,-0.60929485,1.235188,-0.21826826\H,0,3.29285874,0.35072
 486,0.88494985\H,0,0.68030927,-1.72952243,0.3724018\H,0,1.33619162,-0.
 29875043,1.55471652\H,0,0.59374648,-0.14867211,-1.4143841\H,0,-0.92889
 709,-1.16432583,1.07718226\H,0,-0.91546038,-1.8952207,-0.63281919\H,0,
 -2.21317033,0.25141974,-1.35125742\H,0,-2.59806599,0.47858892,0.425996
 88\H,0,-0.49358027,1.69586428,0.76325942\H,0,-0.39278497,1.97662206,-0
 .9858816\\Version=ES64L-G16RevC.01\HF=-269.7929161\RMSD=4.181e-09\Dipo
 le=0.330775,0.150958,0.6155193\Quadrupole=0.2158418,-2.8982033,2.68236
 15,1.8809978,3.658668,1.053345\PG=Unknown\\@
 The archive entry for this job was punched.


 WE HAVE LEFT UNDONE THOSE THINGS WHICH WE OUGHT TO HAVE DONE,
 AND WE HAVE DONE THOSE THINGS WHICH WE OUGHT NOT TO HAVE DONE.
                   BOOK OF COMMON PRAYER                      
 Job cpu time:       0 days  0 hours  8 minutes  9.1 seconds.
 Elapsed time:       0 days  0 hours  0 minutes 35.4 seconds.
 File lengths (MBytes):  RWF=    222 Int=      0 D2E=      0 Chk=      7 Scr=      1
 Normal termination of Gaussian 16 at Wed Apr  9 03:21:18 2025.
 Initial command:
 /arc/software/Gaussian/g16.c01/l1.exe "/tmp/slurm/4862971/Gau-1963415.inp" -scrdir="/tmp/slurm/4862971/"
 Entering Link 1 = /arc/software/Gaussian/g16.c01/l1.exe PID=   1964021.
  
 Copyright (c) 1988-2019, Gaussian, Inc.  All Rights Reserved.
  
 This is part of the Gaussian(R) 16 program.  It is based on
 the Gaussian(R) 09 system (copyright 2009, Gaussian, Inc.),
 the Gaussian(R) 03 system (copyright 2003, Gaussian, Inc.),
 the Gaussian(R) 98 system (copyright 1998, Gaussian, Inc.),
 the Gaussian(R) 94 system (copyright 1995, Gaussian, Inc.),
 the Gaussian 92(TM) system (copyright 1992, Gaussian, Inc.),
 the Gaussian 90(TM) system (copyright 1990, Gaussian, Inc.),
 the Gaussian 88(TM) system (copyright 1988, Gaussian, Inc.),
 the Gaussian 86(TM) system (copyright 1986, Carnegie Mellon
 University), and the Gaussian 82(TM) system (copyright 1983,
 Carnegie Mellon University). Gaussian is a federally registered
 trademark of Gaussian, Inc.
  
 This software contains proprietary and confidential information,
 including trade secrets, belonging to Gaussian, Inc.
  
 This software is provided under written license and may be
 used, copied, transmitted, or stored only in accord with that
 written license.
  
 The following legend is applicable only to US Government
 contracts under FAR:
  
                    RESTRICTED RIGHTS LEGEND
  
 Use, reproduction and disclosure by the US Government is
 subject to restrictions as set forth in subparagraphs (a)
 and (c) of the Commercial Computer Software - Restricted
 Rights clause in FAR 52.227-19.
  
 Gaussian, Inc.
 340 Quinnipiac St., Bldg. 40, Wallingford CT 06492
  
  
 ---------------------------------------------------------------
 Warning -- This program may not be used in any manner that
 competes with the business of Gaussian, Inc. or will provide
 assistance to any competitor of Gaussian, Inc.  The licensee
 of this program is prohibited from giving any competitor of
 Gaussian, Inc. access to this program.  By using this program,
 the user acknowledges that Gaussian, Inc. is engaged in the
 business of creating and licensing software in the field of
 computational chemistry and represents and warrants to the
 licensee that it is not a competitor of Gaussian, Inc. and that
 it will not use this program in any manner prohibited above.
 ---------------------------------------------------------------
  

 Cite this work as:
 Gaussian 16, Revision C.01,
 M. J. Frisch, G. W. Trucks, H. B. Schlegel, G. E. Scuseria, 
 M. A. Robb, J. R. Cheeseman, G. Scalmani, V. Barone, 
 G. A. Petersson, H. Nakatsuji, X. Li, M. Caricato, A. V. Marenich, 
 J. Bloino, B. G. Janesko, R. Gomperts, B. Mennucci, H. P. Hratchian, 
 J. V. Ortiz, A. F. Izmaylov, J. L. Sonnenberg, D. Williams-Young, 
 F. Ding, F. Lipparini, F. Egidi, J. Goings, B. Peng, A. Petrone, 
 T. Henderson, D. Ranasinghe, V. G. Zakrzewski, J. Gao, N. Rega, 
 G. Zheng, W. Liang, M. Hada, M. Ehara, K. Toyota, R. Fukuda, 
 J. Hasegawa, M. Ishida, T. Nakajima, Y. Honda, O. Kitao, H. Nakai, 
 T. Vreven, K. Throssell, J. A. Montgomery, Jr., J. E. Peralta, 
 F. Ogliaro, M. J. Bearpark, J. J. Heyd, E. N. Brothers, K. N. Kudin, 
 V. N. Staroverov, T. A. Keith, R. Kobayashi, J. Normand, 
 K. Raghavachari, A. P. Rendell, J. C. Burant, S. S. Iyengar, 
 J. Tomasi, M. Cossi, J. M. Millam, M. Klene, C. Adamo, R. Cammi, 
 J. W. Ochterski, R. L. Martin, K. Morokuma, O. Farkas, 
 J. B. Foresman, and D. J. Fox, Gaussian, Inc., Wallingford CT, 2019.
 
 ******************************************
 Gaussian 16:  ES64L-G16RevC.01  3-Jul-2019
                 9-Apr-2025 
 ******************************************
 %nprocs=16
 Will use up to   16 processors via shared memory.
 %mem=30GB
 %chk=Grambow2020_wb97xd3_006153_reverse_mol1.chk
 ----------------------------------------------------------------------
 #t hf aug-cc-pvdz iop(5/13=1,5/36=2,99/5=2) pseudo=read geom=check gue
 ss=(read,tcheck) scf=(maxcycle=1)
 ----------------------------------------------------------------------
 -----
 title
 -----
 Structure from the checkpoint file:  "Grambow2020_wb97xd3_006153_reverse_mol1.chk"
 Charge =  0 Multiplicity = 1
 Z-Matrix found in chk file.
 O,0,2.70754663,0.29868455,0.12693668
 C,0,1.51916789,-0.25730923,0.48005883
 C,0,0.34800197,-0.03129143,-0.35851613
 C,0,-0.49439304,-1.20319266,0.08454642
 C,0,-1.85086967,0.47832942,-0.35568695
 C,0,-0.60929485,1.235188,-0.21826826
 H,0,3.29285874,0.35072486,0.88494985
 H,0,0.68030927,-1.72952243,0.3724018
 H,0,1.33619162,-0.29875043,1.55471652
 H,0,0.59374648,-0.14867211,-1.4143841
 H,0,-0.92889709,-1.16432583,1.07718226
 H,0,-0.91546038,-1.8952207,-0.63281919
 H,0,-2.21317033,0.25141974,-1.35125742
 H,0,-2.59806599,0.47858892,0.42599688
 H,0,-0.49358027,1.69586428,0.76325942
 H,0,-0.39278497,1.97662206,-0.9858816
 Recover connectivity data from disk.
                    Distance matrix (angstroms):
                    1          2          3          4          5
     1  O    0.000000
     2  C    1.358701   0.000000
     3  C    2.431460   1.458054   0.000000
     4  C    3.536927   2.259547   1.509731   0.000000
     5  C    4.587413   3.549195   2.257157   2.204847   0.000000
     6  C    3.463761   2.691758   1.593756   2.459797   1.460557
     7  H    0.959105   1.918234   3.219367   4.171161   5.292769
     8  H    2.878119   1.697847   1.878472   1.319018   3.436799
     9  H    2.067873   1.090911   2.169911   2.516040   3.796163
    10  H    2.654044   2.111189   1.090425   2.131397   2.736808
    11  H    4.033248   2.678107   2.230576   1.084265   2.366741
    12  H    4.303095   3.138258   2.268438   1.082042   2.566229
    13  H    5.138166   4.188421   2.761352   2.670510   1.083471
    14  H    5.317079   4.182832   3.091077   2.714851   1.081357
    15  H    3.550244   2.818908   2.224794   2.977446   2.139315
    16  H    3.696741   3.285574   2.230262   3.356689   2.183584
                    6          7          8          9         10
     6  C    0.000000
     7  H    4.150442   0.000000
     8  H    3.286560   3.378690   0.000000
     9  H    3.046532   2.167707   1.968542   0.000000
    10  H    2.189308   3.580718   2.387297   3.064198   0.000000
    11  H    2.745543   4.489494   1.845456   2.471414   3.091585
    12  H    3.172546   5.005781   1.893253   3.521927   2.437002
    13  H    2.196334   5.943639   3.907347   4.620102   2.835990
    14  H    2.223225   5.910159   3.953021   4.166131   3.737396
    15  H    1.090417   4.020116   3.641986   2.820099   3.053969
    16  H    1.088959   4.441567   4.090473   3.823783   2.381960
                   11         12         13         14         15
    11  H    0.000000
    12  H    1.859702   0.000000
    13  H    3.090471   2.609266   0.000000
    14  H    2.430913   3.096324   1.832589   0.000000
    15  H    2.910109   3.875940   3.084573   2.454458   0.000000
    16  H    3.795946   3.922883   2.534487   3.016748   1.774395
                   16
    16  H    0.000000
 Framework group  C1[X(C5H10O)]
 Deg. of freedom    42
                         Standard orientation:                         
 ---------------------------------------------------------------------
 Center     Atomic      Atomic             Coordinates (Angstroms)
 Number     Number       Type             X           Y           Z
 ---------------------------------------------------------------------
      1          8           0       -2.401787   -0.401617   -0.172196
      2          6           0       -1.314947    0.298626    0.245543
      3          6           0       -0.017748    0.035244   -0.365870
      4          6           0        0.679554    1.327768   -0.015960
      5          6           0        2.179376   -0.287457    0.038190
      6          6           0        0.975653   -1.110035    0.125603
      7          1           0       -3.093124   -0.377317    0.492143
      8          1           0       -0.552999    1.796938    0.006417
      9          1           0       -1.302417    0.528389    1.311910
     10          1           0       -0.103957   -0.040361   -1.450249
     11          1           0        0.957334    1.485621    1.020163
     12          1           0        1.166888    1.926154   -0.774415
     13          1           0        2.677579   -0.196344   -0.919621
     14          1           0        2.795982   -0.100513    0.906626
     15          1           0        0.735910   -1.413358    1.145176
     16          1           0        0.921775   -1.981151   -0.525616
 ---------------------------------------------------------------------
 Rotational constants (GHZ):           7.4071729           2.2041612           1.8477214
 ======================================================================================================
                                       Pseudopotential Parameters
 ======================================================================================================
  Center     Atomic      Valence      Angular      Power
  Number     Number     Electrons     Momentum     of R      Exponent        Coefficient   SO-Coeffient
 ======================================================================================================
    1          8            8
                                      G and up 
                                                     0        0.0000010        0.00001165    0.00000000
                                                     2        0.1200000       -0.01744018    0.00000000
                                                     2        0.1400000        0.05401326    0.00000000
                                                     2        0.1800000       -0.08231208    0.00000000
                                                     2        0.2600000        0.11570222    0.00000000
                                                     2        0.4000000       -0.20630360    0.00000000
                                                     2        0.7000000        0.38074319    0.00000000
                                                     2        1.2000000       -0.17045091    0.00000000
                                                     2        2.0000000       -1.45433187    0.00000000
                                      S - G
                                                     0        0.0000010       -0.00117944    0.00000000
                                                     2        0.1400000        0.04368312    0.00000000
                                                     2        0.3000000       -0.33477926    0.00000000
                                                     2        0.6000000        1.52630657    0.00000000
                                                     2        1.5000000       -2.50804716    0.00000000
                                                     2        3.0000000        2.89751681    0.00000000
                                      P - G
                                                     0        0.0000010        0.06576007    0.00000000
                                                     2        0.1200000       -0.10329304    0.00000000
                                                     2        0.2000000        0.24891756    0.00000000
                                                     2        0.4000000       -0.50800022    0.00000000
                                                     2        0.9000000        0.81480796    0.00000000
                                      D - G
                                                     0        0.0000010       -0.14101855    0.00000000
                                                     2        0.1200000        0.22105937    0.00000000
                                                     2        0.1800000       -0.45814988    0.00000000
                                                     2        0.3000000        0.46029282    0.00000000
                                      F - G
                                                     0        0.0000010        0.07483044    0.00000000
                                                     2        0.1200000       -0.09134252    0.00000000
                                                     2        0.1400000        0.04125459    0.00000000
                                                     2        0.3000000        0.37914837    0.00000000
                                                     2        0.5000000       -0.86881279    0.00000000
    2          6            6
                                      G and up 
                                                     0        0.0000010       -0.00011185    0.00000000
                                                     2        0.1200000       -0.02301220    0.00000000
                                                     2        0.1400000        0.13317600    0.00000000
                                                     2        0.1600000       -0.19690668    0.00000000
                                                     2        0.2200000        0.23163694    0.00000000
                                                     2        0.3000000       -0.36920489    0.00000000
                                                     2        0.4000000        0.36389709    0.00000000
                                                     2        0.7000000       -0.38862160    0.00000000
                                                     2        1.3000000        0.80803421    0.00000000
                                      S - G
                                                     0        0.0000010        0.00312304    0.00000000
                                                     2        0.1200000       -0.00632892    0.00000000
                                                     2        0.2200000       -0.03780897    0.00000000
                                                     2        0.4000000        0.26269560    0.00000000
                                                     2        0.9000000       -0.28209514    0.00000000
                                                     2        1.5000000       -0.72686737    0.00000000
                                      P - G
                                                     0        0.0000010       -0.01465594    0.00000000
                                                     2        0.1200000        0.07908409    0.00000000
                                                     2        0.1800000       -0.30615861    0.00000000
                                                     2        0.2600000        0.41506950    0.00000000
                                                     2        0.5000000       -0.36252345    0.00000000
                                                     2        0.9000000        0.15124193    0.00000000
                                                     2        3.0000000       -0.80425677    0.00000000
                                      D - G
                                                     0        0.0000010        0.01149631    0.00000000
                                                     2        0.1200000       -0.04713561    0.00000000
                                                     2        0.1600000        0.10865096    0.00000000
                                                     2        0.2800000       -0.15816701    0.00000000
                                                     2        0.7000000        0.65478804    0.00000000
                                                     2        1.3000000       -1.73816624    0.00000000
                                      F - G
                                                     0        0.0000010        0.00481868    0.00000000
                                                     2        0.1200000       -0.04746842    0.00000000
                                                     2        0.1600000        0.09327889    0.00000000
                                                     2        0.4000000       -0.19693326    0.00000000
                                                     2        0.9000000        0.34938253    0.00000000
    3          6            6
                                      G and up 
                                                     0        0.0000010       -0.00011185    0.00000000
                                                     2        0.1200000       -0.02301220    0.00000000
                                                     2        0.1400000        0.13317600    0.00000000
                                                     2        0.1600000       -0.19690668    0.00000000
                                                     2        0.2200000        0.23163694    0.00000000
                                                     2        0.3000000       -0.36920489    0.00000000
                                                     2        0.4000000        0.36389709    0.00000000
                                                     2        0.7000000       -0.38862160    0.00000000
                                                     2        1.3000000        0.80803421    0.00000000
                                      S - G
                                                     0        0.0000010        0.00312304    0.00000000
                                                     2        0.1200000       -0.00632892    0.00000000
                                                     2        0.2200000       -0.03780897    0.00000000
                                                     2        0.4000000        0.26269560    0.00000000
                                                     2        0.9000000       -0.28209514    0.00000000
                                                     2        1.5000000       -0.72686737    0.00000000
                                      P - G
                                                     0        0.0000010       -0.01465594    0.00000000
                                                     2        0.1200000        0.07908409    0.00000000
                                                     2        0.1800000       -0.30615861    0.00000000
                                                     2        0.2600000        0.41506950    0.00000000
                                                     2        0.5000000       -0.36252345    0.00000000
                                                     2        0.9000000        0.15124193    0.00000000
                                                     2        3.0000000       -0.80425677    0.00000000
                                      D - G
                                                     0        0.0000010        0.01149631    0.00000000
                                                     2        0.1200000       -0.04713561    0.00000000
                                                     2        0.1600000        0.10865096    0.00000000
                                                     2        0.2800000       -0.15816701    0.00000000
                                                     2        0.7000000        0.65478804    0.00000000
                                                     2        1.3000000       -1.73816624    0.00000000
                                      F - G
                                                     0        0.0000010        0.00481868    0.00000000
                                                     2        0.1200000       -0.04746842    0.00000000
                                                     2        0.1600000        0.09327889    0.00000000
                                                     2        0.4000000       -0.19693326    0.00000000
                                                     2        0.9000000        0.34938253    0.00000000
    4          6            6
                                      G and up 
                                                     0        0.0000010       -0.00011185    0.00000000
                                                     2        0.1200000       -0.02301220    0.00000000
                                                     2        0.1400000        0.13317600    0.00000000
                                                     2        0.1600000       -0.19690668    0.00000000
                                                     2        0.2200000        0.23163694    0.00000000
                                                     2        0.3000000       -0.36920489    0.00000000
                                                     2        0.4000000        0.36389709    0.00000000
                                                     2        0.7000000       -0.38862160    0.00000000
                                                     2        1.3000000        0.80803421    0.00000000
                                      S - G
                                                     0        0.0000010        0.00312304    0.00000000
                                                     2        0.1200000       -0.00632892    0.00000000
                                                     2        0.2200000       -0.03780897    0.00000000
                                                     2        0.4000000        0.26269560    0.00000000
                                                     2        0.9000000       -0.28209514    0.00000000
                                                     2        1.5000000       -0.72686737    0.00000000
                                      P - G
                                                     0        0.0000010       -0.01465594    0.00000000
                                                     2        0.1200000        0.07908409    0.00000000
                                                     2        0.1800000       -0.30615861    0.00000000
                                                     2        0.2600000        0.41506950    0.00000000
                                                     2        0.5000000       -0.36252345    0.00000000
                                                     2        0.9000000        0.15124193    0.00000000
                                                     2        3.0000000       -0.80425677    0.00000000
                                      D - G
                                                     0        0.0000010        0.01149631    0.00000000
                                                     2        0.1200000       -0.04713561    0.00000000
                                                     2        0.1600000        0.10865096    0.00000000
                                                     2        0.2800000       -0.15816701    0.00000000
                                                     2        0.7000000        0.65478804    0.00000000
                                                     2        1.3000000       -1.73816624    0.00000000
                                      F - G
                                                     0        0.0000010        0.00481868    0.00000000
                                                     2        0.1200000       -0.04746842    0.00000000
                                                     2        0.1600000        0.09327889    0.00000000
                                                     2        0.4000000       -0.19693326    0.00000000
                                                     2        0.9000000        0.34938253    0.00000000
    5          6            6
                                      G and up 
                                                     0        0.0000010       -0.00011185    0.00000000
                                                     2        0.1200000       -0.02301220    0.00000000
                                                     2        0.1400000        0.13317600    0.00000000
                                                     2        0.1600000       -0.19690668    0.00000000
                                                     2        0.2200000        0.23163694    0.00000000
                                                     2        0.3000000       -0.36920489    0.00000000
                                                     2        0.4000000        0.36389709    0.00000000
                                                     2        0.7000000       -0.38862160    0.00000000
                                                     2        1.3000000        0.80803421    0.00000000
                                      S - G
                                                     0        0.0000010        0.00312304    0.00000000
                                                     2        0.1200000       -0.00632892    0.00000000
                                                     2        0.2200000       -0.03780897    0.00000000
                                                     2        0.4000000        0.26269560    0.00000000
                                                     2        0.9000000       -0.28209514    0.00000000
                                                     2        1.5000000       -0.72686737    0.00000000
                                      P - G
                                                     0        0.0000010       -0.01465594    0.00000000
                                                     2        0.1200000        0.07908409    0.00000000
                                                     2        0.1800000       -0.30615861    0.00000000
                                                     2        0.2600000        0.41506950    0.00000000
                                                     2        0.5000000       -0.36252345    0.00000000
                                                     2        0.9000000        0.15124193    0.00000000
                                                     2        3.0000000       -0.80425677    0.00000000
                                      D - G
                                                     0        0.0000010        0.01149631    0.00000000
                                                     2        0.1200000       -0.04713561    0.00000000
                                                     2        0.1600000        0.10865096    0.00000000
                                                     2        0.2800000       -0.15816701    0.00000000
                                                     2        0.7000000        0.65478804    0.00000000
                                                     2        1.3000000       -1.73816624    0.00000000
                                      F - G
                                                     0        0.0000010        0.00481868    0.00000000
                                                     2        0.1200000       -0.04746842    0.00000000
                                                     2        0.1600000        0.09327889    0.00000000
                                                     2        0.4000000       -0.19693326    0.00000000
                                                     2        0.9000000        0.34938253    0.00000000
    6          6            6
                                      G and up 
                                                     0        0.0000010       -0.00011185    0.00000000
                                                     2        0.1200000       -0.02301220    0.00000000
                                                     2        0.1400000        0.13317600    0.00000000
                                                     2        0.1600000       -0.19690668    0.00000000
                                                     2        0.2200000        0.23163694    0.00000000
                                                     2        0.3000000       -0.36920489    0.00000000
                                                     2        0.4000000        0.36389709    0.00000000
                                                     2        0.7000000       -0.38862160    0.00000000
                                                     2        1.3000000        0.80803421    0.00000000
                                      S - G
                                                     0        0.0000010        0.00312304    0.00000000
                                                     2        0.1200000       -0.00632892    0.00000000
                                                     2        0.2200000       -0.03780897    0.00000000
                                                     2        0.4000000        0.26269560    0.00000000
                                                     2        0.9000000       -0.28209514    0.00000000
                                                     2        1.5000000       -0.72686737    0.00000000
                                      P - G
                                                     0        0.0000010       -0.01465594    0.00000000
                                                     2        0.1200000        0.07908409    0.00000000
                                                     2        0.1800000       -0.30615861    0.00000000
                                                     2        0.2600000        0.41506950    0.00000000
                                                     2        0.5000000       -0.36252345    0.00000000
                                                     2        0.9000000        0.15124193    0.00000000
                                                     2        3.0000000       -0.80425677    0.00000000
                                      D - G
                                                     0        0.0000010        0.01149631    0.00000000
                                                     2        0.1200000       -0.04713561    0.00000000
                                                     2        0.1600000        0.10865096    0.00000000
                                                     2        0.2800000       -0.15816701    0.00000000
                                                     2        0.7000000        0.65478804    0.00000000
                                                     2        1.3000000       -1.73816624    0.00000000
                                      F - G
                                                     0        0.0000010        0.00481868    0.00000000
                                                     2        0.1200000       -0.04746842    0.00000000
                                                     2        0.1600000        0.09327889    0.00000000
                                                     2        0.4000000       -0.19693326    0.00000000
                                                     2        0.9000000        0.34938253    0.00000000
    7          1            1
                                      F and up 
                                                     0        0.0000010       -0.00000699    0.00000000
                                                     2        0.1200000        0.00123686    0.00000000
                                                     2        0.1800000       -0.00752022    0.00000000
                                                     2        0.2600000        0.02503380    0.00000000
                                                     2        0.4000000       -0.08702670    0.00000000
                                                     2        0.6000000        0.30134159    0.00000000
                                                     2        0.8000000       -0.50204959    0.00000000
                                                     2        1.2000000        0.52208372    0.00000000
                                      S - F
                                                     0        0.0000010       -0.01618346    0.00000000
                                                     2        0.1200000       -0.07880581    0.00000000
                                                     2        0.1600000        0.32040539    0.00000000
                                                     2        0.2400000       -0.47500956    0.00000000
                                                     2        0.5000000        0.54013668    0.00000000
                                                     2        1.5000000       -1.40434292    0.00000000
                                                     2        3.0000000        1.46283806    0.00000000
                                      P - F
                                                     0        0.0000010        0.00612970    0.00000000
                                                     2        0.1200000        0.02254406    0.00000000
                                                     2        0.1800000       -0.13874529    0.00000000
                                                     2        0.3000000        0.38299049    0.00000000
                                                     2        0.5000000       -0.57923512    0.00000000
                                                     2        1.0000000        0.63021625    0.00000000
                                                     2        2.0000000       -0.79201034    0.00000000
                                      D - F
                                                     0        0.0000010       -0.00296226    0.00000000
                                                     2        0.1200000       -0.00547344    0.00000000
                                                     2        0.1400000        0.01837884    0.00000000
                                                     2        0.2400000       -0.05565704    0.00000000
                                                     2        0.4000000        0.15376597    0.00000000
                                                     2        0.8000000       -0.32464795    0.00000000
    8          1            1
                                      F and up 
                                                     0        0.0000010       -0.00000699    0.00000000
                                                     2        0.1200000        0.00123686    0.00000000
                                                     2        0.1800000       -0.00752022    0.00000000
                                                     2        0.2600000        0.02503380    0.00000000
                                                     2        0.4000000       -0.08702670    0.00000000
                                                     2        0.6000000        0.30134159    0.00000000
                                                     2        0.8000000       -0.50204959    0.00000000
                                                     2        1.2000000        0.52208372    0.00000000
                                      S - F
                                                     0        0.0000010       -0.01618346    0.00000000
                                                     2        0.1200000       -0.07880581    0.00000000
                                                     2        0.1600000        0.32040539    0.00000000
                                                     2        0.2400000       -0.47500956    0.00000000
                                                     2        0.5000000        0.54013668    0.00000000
                                                     2        1.5000000       -1.40434292    0.00000000
                                                     2        3.0000000        1.46283806    0.00000000
                                      P - F
                                                     0        0.0000010        0.00612970    0.00000000
                                                     2        0.1200000        0.02254406    0.00000000
                                                     2        0.1800000       -0.13874529    0.00000000
                                                     2        0.3000000        0.38299049    0.00000000
                                                     2        0.5000000       -0.57923512    0.00000000
                                                     2        1.0000000        0.63021625    0.00000000
                                                     2        2.0000000       -0.79201034    0.00000000
                                      D - F
                                                     0        0.0000010       -0.00296226    0.00000000
                                                     2        0.1200000       -0.00547344    0.00000000
                                                     2        0.1400000        0.01837884    0.00000000
                                                     2        0.2400000       -0.05565704    0.00000000
                                                     2        0.4000000        0.15376597    0.00000000
                                                     2        0.8000000       -0.32464795    0.00000000
    9          1            1
                                      F and up 
                                                     0        0.0000010       -0.00000699    0.00000000
                                                     2        0.1200000        0.00123686    0.00000000
                                                     2        0.1800000       -0.00752022    0.00000000
                                                     2        0.2600000        0.02503380    0.00000000
                                                     2        0.4000000       -0.08702670    0.00000000
                                                     2        0.6000000        0.30134159    0.00000000
                                                     2        0.8000000       -0.50204959    0.00000000
                                                     2        1.2000000        0.52208372    0.00000000
                                      S - F
                                                     0        0.0000010       -0.01618346    0.00000000
                                                     2        0.1200000       -0.07880581    0.00000000
                                                     2        0.1600000        0.32040539    0.00000000
                                                     2        0.2400000       -0.47500956    0.00000000
                                                     2        0.5000000        0.54013668    0.00000000
                                                     2        1.5000000       -1.40434292    0.00000000
                                                     2        3.0000000        1.46283806    0.00000000
                                      P - F
                                                     0        0.0000010        0.00612970    0.00000000
                                                     2        0.1200000        0.02254406    0.00000000
                                                     2        0.1800000       -0.13874529    0.00000000
                                                     2        0.3000000        0.38299049    0.00000000
                                                     2        0.5000000       -0.57923512    0.00000000
                                                     2        1.0000000        0.63021625    0.00000000
                                                     2        2.0000000       -0.79201034    0.00000000
                                      D - F
                                                     0        0.0000010       -0.00296226    0.00000000
                                                     2        0.1200000       -0.00547344    0.00000000
                                                     2        0.1400000        0.01837884    0.00000000
                                                     2        0.2400000       -0.05565704    0.00000000
                                                     2        0.4000000        0.15376597    0.00000000
                                                     2        0.8000000       -0.32464795    0.00000000
   10          1            1
                                      F and up 
                                                     0        0.0000010       -0.00000699    0.00000000
                                                     2        0.1200000        0.00123686    0.00000000
                                                     2        0.1800000       -0.00752022    0.00000000
                                                     2        0.2600000        0.02503380    0.00000000
                                                     2        0.4000000       -0.08702670    0.00000000
                                                     2        0.6000000        0.30134159    0.00000000
                                                     2        0.8000000       -0.50204959    0.00000000
                                                     2        1.2000000        0.52208372    0.00000000
                                      S - F
                                                     0        0.0000010       -0.01618346    0.00000000
                                                     2        0.1200000       -0.07880581    0.00000000
                                                     2        0.1600000        0.32040539    0.00000000
                                                     2        0.2400000       -0.47500956    0.00000000
                                                     2        0.5000000        0.54013668    0.00000000
                                                     2        1.5000000       -1.40434292    0.00000000
                                                     2        3.0000000        1.46283806    0.00000000
                                      P - F
                                                     0        0.0000010        0.00612970    0.00000000
                                                     2        0.1200000        0.02254406    0.00000000
                                                     2        0.1800000       -0.13874529    0.00000000
                                                     2        0.3000000        0.38299049    0.00000000
                                                     2        0.5000000       -0.57923512    0.00000000
                                                     2        1.0000000        0.63021625    0.00000000
                                                     2        2.0000000       -0.79201034    0.00000000
                                      D - F
                                                     0        0.0000010       -0.00296226    0.00000000
                                                     2        0.1200000       -0.00547344    0.00000000
                                                     2        0.1400000        0.01837884    0.00000000
                                                     2        0.2400000       -0.05565704    0.00000000
                                                     2        0.4000000        0.15376597    0.00000000
                                                     2        0.8000000       -0.32464795    0.00000000
   11          1            1
                                      F and up 
                                                     0        0.0000010       -0.00000699    0.00000000
                                                     2        0.1200000        0.00123686    0.00000000
                                                     2        0.1800000       -0.00752022    0.00000000
                                                     2        0.2600000        0.02503380    0.00000000
                                                     2        0.4000000       -0.08702670    0.00000000
                                                     2        0.6000000        0.30134159    0.00000000
                                                     2        0.8000000       -0.50204959    0.00000000
                                                     2        1.2000000        0.52208372    0.00000000
                                      S - F
                                                     0        0.0000010       -0.01618346    0.00000000
                                                     2        0.1200000       -0.07880581    0.00000000
                                                     2        0.1600000        0.32040539    0.00000000
                                                     2        0.2400000       -0.47500956    0.00000000
                                                     2        0.5000000        0.54013668    0.00000000
                                                     2        1.5000000       -1.40434292    0.00000000
                                                     2        3.0000000        1.46283806    0.00000000
                                      P - F
                                                     0        0.0000010        0.00612970    0.00000000
                                                     2        0.1200000        0.02254406    0.00000000
                                                     2        0.1800000       -0.13874529    0.00000000
                                                     2        0.3000000        0.38299049    0.00000000
                                                     2        0.5000000       -0.57923512    0.00000000
                                                     2        1.0000000        0.63021625    0.00000000
                                                     2        2.0000000       -0.79201034    0.00000000
                                      D - F
                                                     0        0.0000010       -0.00296226    0.00000000
                                                     2        0.1200000       -0.00547344    0.00000000
                                                     2        0.1400000        0.01837884    0.00000000
                                                     2        0.2400000       -0.05565704    0.00000000
                                                     2        0.4000000        0.15376597    0.00000000
                                                     2        0.8000000       -0.32464795    0.00000000
   12          1            1
                                      F and up 
                                                     0        0.0000010       -0.00000699    0.00000000
                                                     2        0.1200000        0.00123686    0.00000000
                                                     2        0.1800000       -0.00752022    0.00000000
                                                     2        0.2600000        0.02503380    0.00000000
                                                     2        0.4000000       -0.08702670    0.00000000
                                                     2        0.6000000        0.30134159    0.00000000
                                                     2        0.8000000       -0.50204959    0.00000000
                                                     2        1.2000000        0.52208372    0.00000000
                                      S - F
                                                     0        0.0000010       -0.01618346    0.00000000
                                                     2        0.1200000       -0.07880581    0.00000000
                                                     2        0.1600000        0.32040539    0.00000000
                                                     2        0.2400000       -0.47500956    0.00000000
                                                     2        0.5000000        0.54013668    0.00000000
                                                     2        1.5000000       -1.40434292    0.00000000
                                                     2        3.0000000        1.46283806    0.00000000
                                      P - F
                                                     0        0.0000010        0.00612970    0.00000000
                                                     2        0.1200000        0.02254406    0.00000000
                                                     2        0.1800000       -0.13874529    0.00000000
                                                     2        0.3000000        0.38299049    0.00000000
                                                     2        0.5000000       -0.57923512    0.00000000
                                                     2        1.0000000        0.63021625    0.00000000
                                                     2        2.0000000       -0.79201034    0.00000000
                                      D - F
                                                     0        0.0000010       -0.00296226    0.00000000
                                                     2        0.1200000       -0.00547344    0.00000000
                                                     2        0.1400000        0.01837884    0.00000000
                                                     2        0.2400000       -0.05565704    0.00000000
                                                     2        0.4000000        0.15376597    0.00000000
                                                     2        0.8000000       -0.32464795    0.00000000
   13          1            1
                                      F and up 
                                                     0        0.0000010       -0.00000699    0.00000000
                                                     2        0.1200000        0.00123686    0.00000000
                                                     2        0.1800000       -0.00752022    0.00000000
                                                     2        0.2600000        0.02503380    0.00000000
                                                     2        0.4000000       -0.08702670    0.00000000
                                                     2        0.6000000        0.30134159    0.00000000
                                                     2        0.8000000       -0.50204959    0.00000000
                                                     2        1.2000000        0.52208372    0.00000000
                                      S - F
                                                     0        0.0000010       -0.01618346    0.00000000
                                                     2        0.1200000       -0.07880581    0.00000000
                                                     2        0.1600000        0.32040539    0.00000000
                                                     2        0.2400000       -0.47500956    0.00000000
                                                     2        0.5000000        0.54013668    0.00000000
                                                     2        1.5000000       -1.40434292    0.00000000
                                                     2        3.0000000        1.46283806    0.00000000
                                      P - F
                                                     0        0.0000010        0.00612970    0.00000000
                                                     2        0.1200000        0.02254406    0.00000000
                                                     2        0.1800000       -0.13874529    0.00000000
                                                     2        0.3000000        0.38299049    0.00000000
                                                     2        0.5000000       -0.57923512    0.00000000
                                                     2        1.0000000        0.63021625    0.00000000
                                                     2        2.0000000       -0.79201034    0.00000000
                                      D - F
                                                     0        0.0000010       -0.00296226    0.00000000
                                                     2        0.1200000       -0.00547344    0.00000000
                                                     2        0.1400000        0.01837884    0.00000000
                                                     2        0.2400000       -0.05565704    0.00000000
                                                     2        0.4000000        0.15376597    0.00000000
                                                     2        0.8000000       -0.32464795    0.00000000
   14          1            1
                                      F and up 
                                                     0        0.0000010       -0.00000699    0.00000000
                                                     2        0.1200000        0.00123686    0.00000000
                                                     2        0.1800000       -0.00752022    0.00000000
                                                     2        0.2600000        0.02503380    0.00000000
                                                     2        0.4000000       -0.08702670    0.00000000
                                                     2        0.6000000        0.30134159    0.00000000
                                                     2        0.8000000       -0.50204959    0.00000000
                                                     2        1.2000000        0.52208372    0.00000000
                                      S - F
                                                     0        0.0000010       -0.01618346    0.00000000
                                                     2        0.1200000       -0.07880581    0.00000000
                                                     2        0.1600000        0.32040539    0.00000000
                                                     2        0.2400000       -0.47500956    0.00000000
                                                     2        0.5000000        0.54013668    0.00000000
                                                     2        1.5000000       -1.40434292    0.00000000
                                                     2        3.0000000        1.46283806    0.00000000
                                      P - F
                                                     0        0.0000010        0.00612970    0.00000000
                                                     2        0.1200000        0.02254406    0.00000000
                                                     2        0.1800000       -0.13874529    0.00000000
                                                     2        0.3000000        0.38299049    0.00000000
                                                     2        0.5000000       -0.57923512    0.00000000
                                                     2        1.0000000        0.63021625    0.00000000
                                                     2        2.0000000       -0.79201034    0.00000000
                                      D - F
                                                     0        0.0000010       -0.00296226    0.00000000
                                                     2        0.1200000       -0.00547344    0.00000000
                                                     2        0.1400000        0.01837884    0.00000000
                                                     2        0.2400000       -0.05565704    0.00000000
                                                     2        0.4000000        0.15376597    0.00000000
                                                     2        0.8000000       -0.32464795    0.00000000
   15          1            1
                                      F and up 
                                                     0        0.0000010       -0.00000699    0.00000000
                                                     2        0.1200000        0.00123686    0.00000000
                                                     2        0.1800000       -0.00752022    0.00000000
                                                     2        0.2600000        0.02503380    0.00000000
                                                     2        0.4000000       -0.08702670    0.00000000
                                                     2        0.6000000        0.30134159    0.00000000
                                                     2        0.8000000       -0.50204959    0.00000000
                                                     2        1.2000000        0.52208372    0.00000000
                                      S - F
                                                     0        0.0000010       -0.01618346    0.00000000
                                                     2        0.1200000       -0.07880581    0.00000000
                                                     2        0.1600000        0.32040539    0.00000000
                                                     2        0.2400000       -0.47500956    0.00000000
                                                     2        0.5000000        0.54013668    0.00000000
                                                     2        1.5000000       -1.40434292    0.00000000
                                                     2        3.0000000        1.46283806    0.00000000
                                      P - F
                                                     0        0.0000010        0.00612970    0.00000000
                                                     2        0.1200000        0.02254406    0.00000000
                                                     2        0.1800000       -0.13874529    0.00000000
                                                     2        0.3000000        0.38299049    0.00000000
                                                     2        0.5000000       -0.57923512    0.00000000
                                                     2        1.0000000        0.63021625    0.00000000
                                                     2        2.0000000       -0.79201034    0.00000000
                                      D - F
                                                     0        0.0000010       -0.00296226    0.00000000
                                                     2        0.1200000       -0.00547344    0.00000000
                                                     2        0.1400000        0.01837884    0.00000000
                                                     2        0.2400000       -0.05565704    0.00000000
                                                     2        0.4000000        0.15376597    0.00000000
                                                     2        0.8000000       -0.32464795    0.00000000
   16          1            1
                                      F and up 
                                                     0        0.0000010       -0.00000699    0.00000000
                                                     2        0.1200000        0.00123686    0.00000000
                                                     2        0.1800000       -0.00752022    0.00000000
                                                     2        0.2600000        0.02503380    0.00000000
                                                     2        0.4000000       -0.08702670    0.00000000
                                                     2        0.6000000        0.30134159    0.00000000
                                                     2        0.8000000       -0.50204959    0.00000000
                                                     2        1.2000000        0.52208372    0.00000000
                                      S - F
                                                     0        0.0000010       -0.01618346    0.00000000
                                                     2        0.1200000       -0.07880581    0.00000000
                                                     2        0.1600000        0.32040539    0.00000000
                                                     2        0.2400000       -0.47500956    0.00000000
                                                     2        0.5000000        0.54013668    0.00000000
                                                     2        1.5000000       -1.40434292    0.00000000
                                                     2        3.0000000        1.46283806    0.00000000
                                      P - F
                                                     0        0.0000010        0.00612970    0.00000000
                                                     2        0.1200000        0.02254406    0.00000000
                                                     2        0.1800000       -0.13874529    0.00000000
                                                     2        0.3000000        0.38299049    0.00000000
                                                     2        0.5000000       -0.57923512    0.00000000
                                                     2        1.0000000        0.63021625    0.00000000
                                                     2        2.0000000       -0.79201034    0.00000000
                                      D - F
                                                     0        0.0000010       -0.00296226    0.00000000
                                                     2        0.1200000       -0.00547344    0.00000000
                                                     2        0.1400000        0.01837884    0.00000000
                                                     2        0.2400000       -0.05565704    0.00000000
                                                     2        0.4000000        0.15376597    0.00000000
                                                     2        0.8000000       -0.32464795    0.00000000
 ======================================================================================================
   228 basis functions,   368 primitive gaussians,   240 cartesian basis functions
    24 alpha electrons       24 beta electrons
       nuclear repulsion energy       243.8976669643 Hartrees.
 NAtoms=   16 NActive=   16 NUniq=   16 SFac= 1.00D+00 NAtFMM=   60 NAOKFM=F Big=F
   1 Symmetry operations used in ECPInt.
 ECPInt:  NShTT=    5460 NPrTT=   22036 LenC2=    5452 LenP2D=   18181.
 LDataN:  DoStor=T MaxTD1= 6 Len=  172
 Initial guess from the checkpoint file:  "Grambow2020_wb97xd3_006153_reverse_mol1.chk"
 B after Tr=     0.514056    0.171508    0.072876
         Rot=    0.034431   -0.074695    0.084203    0.993048 Ang=-176.05 deg.
 >>>>>>>>>> Convergence criterion not met.
 SCF Done:  E(RHF) =  -269.877423159     A.U. after    2 cycles
            NFock=  1  Conv=0.54D-02     -V/T= 1.9994

 **********************************************************************

            Population analysis using the SCF Density.

 **********************************************************************

 Orbital symmetries:
       Occupied  (A) (A) (A) (A) (A) (A) (A) (A) (A) (A) (A) (A)
                 (A) (A) (A) (A) (A) (A) (A) (A) (A) (A) (A) (A)
       Virtual   (A) (A) (A) (A) (A) (A) (A) (A) (A) (A) (A) (A)
                 (A) (A) (A) (A) (A) (A) (A) (A) (A) (A) (A) (A)
                 (A) (A) (A) (A) (A) (A) (A) (A) (A) (A) (A) (A)
                 (A) (A) (A) (A) (A) (A) (A) (A) (A) (A) (A) (A)
                 (A) (A) (A) (A) (A) (A) (A) (A) (A) (A) (A) (A)
                 (A) (A) (A) (A) (A) (A) (A) (A) (A) (A) (A) (A)
                 (A) (A) (A) (A) (A) (A) (A) (A) (A) (A) (A) (A)
                 (A) (A) (A) (A) (A) (A) (A) (A) (A) (A) (A) (A)
                 (A) (A) (A) (A) (A) (A) (A) (A) (A) (A) (A) (A)
                 (A) (A) (A) (A) (A) (A) (A) (A) (A) (A) (A) (A)
                 (A) (A) (A) (A) (A) (A) (A) (A) (A) (A) (A) (A)
                 (A) (A) (A) (A) (A) (A) (A) (A) (A) (A) (A) (A)
                 (A) (A) (A) (A) (A) (A) (A) (A) (A) (A) (A) (A)
                 (A) (A) (A) (A) (A) (A) (A) (A) (A) (A) (A) (A)
                 (A) (A) (A) (A) (A) (A) (A) (A) (A) (A) (A) (A)
                 (A) (A) (A) (A) (A) (A) (A) (A) (A) (A) (A) (A)
                 (A) (A) (A) (A) (A) (A) (A) (A) (A) (A) (A) (A)
 The electronic state is 1-A.
 Alpha  occ. eigenvalues --  -20.61295 -11.32056 -11.24636 -11.23887 -11.23312
 Alpha  occ. eigenvalues --  -11.23092  -1.37300  -1.11020  -0.98736  -0.89820
 Alpha  occ. eigenvalues --   -0.82854  -0.77142  -0.74659  -0.66596  -0.63126
 Alpha  occ. eigenvalues --   -0.60551  -0.59466  -0.56173  -0.53500  -0.52481
 Alpha  occ. eigenvalues --   -0.49214  -0.47069  -0.39322  -0.22592
 Alpha virt. eigenvalues --    0.03010   0.04219   0.04653   0.05216   0.05396
 Alpha virt. eigenvalues --    0.06786   0.06857   0.07056   0.07368   0.08362
 Alpha virt. eigenvalues --    0.09503   0.12917   0.13022   0.13977   0.14738
 Alpha virt. eigenvalues --    0.14752   0.15273   0.16148   0.16509   0.16779
 Alpha virt. eigenvalues --    0.18152   0.18769   0.19401   0.19616   0.20072
 Alpha virt. eigenvalues --    0.20396   0.20919   0.21696   0.23776   0.24264
 Alpha virt. eigenvalues --    0.26224   0.26927   0.28328   0.30457   0.31378
 Alpha virt. eigenvalues --    0.32086   0.33161   0.34347   0.36223   0.36731
 Alpha virt. eigenvalues --    0.38066   0.38253   0.38945   0.40059   0.42241
 Alpha virt. eigenvalues --    0.42902   0.43736   0.44335   0.45217   0.46409
 Alpha virt. eigenvalues --    0.47012   0.47082   0.47695   0.48324   0.48433
 Alpha virt. eigenvalues --    0.49674   0.49776   0.51788   0.52860   0.53436
 Alpha virt. eigenvalues --    0.54791   0.55420   0.55925   0.57873   0.58684
 Alpha virt. eigenvalues --    0.60168   0.61336   0.62439   0.63501   0.63986
 Alpha virt. eigenvalues --    0.65186   0.66101   0.66419   0.67838   0.68328
 Alpha virt. eigenvalues --    0.68654   0.69660   0.70368   0.72149   0.72606
 Alpha virt. eigenvalues --    0.73414   0.74700   0.75788   0.77036   0.77128
 Alpha virt. eigenvalues --    0.78001   0.79072   0.80312   0.81220   0.81986
 Alpha virt. eigenvalues --    0.84318   0.84720   0.86358   0.87525   0.88654
 Alpha virt. eigenvalues --    0.89824   0.91451   0.92172   0.93534   0.94190
 Alpha virt. eigenvalues --    0.97036   0.98189   0.99231   1.00473   1.04768
 Alpha virt. eigenvalues --    1.07313   1.09983   1.12639   1.14280   1.17656
 Alpha virt. eigenvalues --    1.19088   1.20264   1.21539   1.23145   1.24634
 Alpha virt. eigenvalues --    1.25982   1.28965   1.30947   1.32197   1.36757
 Alpha virt. eigenvalues --    1.39301   1.42380   1.44151   1.48064   1.49087
 Alpha virt. eigenvalues --    1.51609   1.54466   1.58718   1.60915   1.63319
 Alpha virt. eigenvalues --    1.64993   1.68427   1.70411   1.73511   1.75053
 Alpha virt. eigenvalues --    1.78537   1.79163   1.81397   1.82959   1.84621
 Alpha virt. eigenvalues --    1.87607   1.90005   1.92221   1.94673   1.98128
 Alpha virt. eigenvalues --    1.98898   1.99245   2.02822   2.04102   2.06509
 Alpha virt. eigenvalues --    2.09464   2.10110   2.11094   2.13174   2.14746
 Alpha virt. eigenvalues --    2.16436   2.17209   2.20351   2.22952   2.24000
 Alpha virt. eigenvalues --    2.25461   2.29107   2.32533   2.33597   2.34810
 Alpha virt. eigenvalues --    2.39153   2.41766   2.42184   2.45972   2.47476
 Alpha virt. eigenvalues --    2.50397   2.52039   2.53151   2.55784   2.59389
 Alpha virt. eigenvalues --    2.63156   2.63709   2.66924   2.68394   2.73184
 Alpha virt. eigenvalues --    2.75741   2.77037   2.80310   2.83940   2.86162
 Alpha virt. eigenvalues --    2.90014   2.91925   2.95139   3.02406   3.08152
 Alpha virt. eigenvalues --    3.09856   3.12349   3.16854   3.20363   3.28844
 Alpha virt. eigenvalues --    3.31442   3.38904   3.54670   3.58738   3.64230
 Alpha virt. eigenvalues --    3.66149   3.86493   4.21625   4.24725
          Condensed to atoms (all electrons):
 Mulliken charges:
               1
     1  O   -0.529871
     2  C    0.477509
     3  C    0.010316
     4  C    0.286278
     5  C    0.765852
     6  C    0.352929
     7  H    0.166402
     8  H    0.239171
     9  H   -0.276246
    10  H   -0.175728
    11  H   -0.138835
    12  H   -0.244144
    13  H   -0.347610
    14  H   -0.316838
    15  H   -0.157238
    16  H   -0.111946
 Sum of Mulliken charges =   0.00000
 Mulliken charges with hydrogens summed into heavy atoms:
               1
     1  O   -0.363469
     2  C    0.201263
     3  C   -0.165413
     4  C    0.142469
     5  C    0.101404
     6  C    0.083746
 Electronic spatial extent (au):  <R**2>=            694.1560
 Charge=             -0.0000 electrons
 Dipole moment (field-independent basis, Debye):
    X=             -0.9016    Y=             -0.1462    Z=              1.5355  Tot=              1.7867

 Test job not archived.
 1\1\GINC-SE072\SP\RHF\Aug-CC-pVDZ\C5H10O1\OHZDE\09-Apr-2025\0\\#t hf a
 ug-cc-pvdz iop(5/13=1,5/36=2,99/5=2) pseudo=read geom=check guess=(rea
 d,tcheck) scf=(maxcycle=1)\\title\\0,1\O,0,2.70754663,0.29868455,0.126
 93668\C,0,1.51916789,-0.25730923,0.48005883\C,0,0.34800197,-0.03129143
 ,-0.35851613\C,0,-0.49439304,-1.20319266,0.08454642\C,0,-1.85086967,0.
 47832942,-0.35568695\C,0,-0.60929485,1.235188,-0.21826826\H,0,3.292858
 74,0.35072486,0.88494985\H,0,0.68030927,-1.72952243,0.3724018\H,0,1.33
 619162,-0.29875043,1.55471652\H,0,0.59374648,-0.14867211,-1.4143841\H,
 0,-0.92889709,-1.16432583,1.07718226\H,0,-0.91546038,-1.8952207,-0.632
 81919\H,0,-2.21317033,0.25141974,-1.35125742\H,0,-2.59806599,0.4785889
 2,0.42599688\H,0,-0.49358027,1.69586428,0.76325942\H,0,-0.39278497,1.9
 7662206,-0.9858816\\Version=ES64L-G16RevC.01\State=1-A\HF=-269.8774232
 \RMSD=5.439e-03\Dipole=0.2684745,0.1409157,0.6341639\Quadrupole=-0.070
 4858,-2.7837416,2.8542274,1.709943,3.4525088,0.966477\PG=C01 [X(C5H10O
 1)]\\@


 IF YOU GIVE A BOY AND A PIG EVERYTHING THEY WANT,
 YOU'LL GET A BAD BOY AND A GOOD PIG.
 Job cpu time:       0 days  0 hours  1 minutes  0.6 seconds.
 Elapsed time:       0 days  0 hours  0 minutes  4.7 seconds.
 File lengths (MBytes):  RWF=     10 Int=      0 D2E=      0 Chk=      7 Scr=      1
 Normal termination of Gaussian 16 at Wed Apr  9 03:21:22 2025.
