 Entering Gaussian System, Link 0=g16
 Input=Grambow2020_b97d3_007103_reverse_mol1.gjf
 Output=Grambow2020_b97d3_007103_reverse_mol1.log
 Initial command:
 /arc/software/Gaussian/g16.c01/l1.exe "/tmp/slurm/4874903/Gau-783997.inp" -scrdir="/tmp/slurm/4874903/"
 Entering Link 1 = /arc/software/Gaussian/g16.c01/l1.exe PID=    783998.
  
 Copyright (c) 1988-2019, Gaussian, Inc.  All Rights Reserved.
  
 This is part of the Gaussian(R) 16 program.  It is based on
 the Gaussian(R) 09 system (copyright 2009, Gaussian, Inc.),
 the Gaussian(R) 03 system (copyright 2003, Gaussian, Inc.),
 the Gaussian(R) 98 system (copyright 1998, Gaussian, Inc.),
 the Gaussian(R) 94 system (copyright 1995, Gaussian, Inc.),
 the Gaussian 92(TM) system (copyright 1992, Gaussian, Inc.),
 the Gaussian 90(TM) system (copyright 1990, Gaussian, Inc.),
 the Gaussian 88(TM) system (copyright 1988, Gaussian, Inc.),
 the Gaussian 86(TM) system (copyright 1986, Carnegie Mellon
 University), and the Gaussian 82(TM) system (copyright 1983,
 Carnegie Mellon University). Gaussian is a federally registered
 trademark of Gaussian, Inc.
  
 This software contains proprietary and confidential information,
 including trade secrets, belonging to Gaussian, Inc.
  
 This software is provided under written license and may be
 used, copied, transmitted, or stored only in accord with that
 written license.
  
 The following legend is applicable only to US Government
 contracts under FAR:
  
                    RESTRICTED RIGHTS LEGEND
  
 Use, reproduction and disclosure by the US Government is
 subject to restrictions as set forth in subparagraphs (a)
 and (c) of the Commercial Computer Software - Restricted
 Rights clause in FAR 52.227-19.
  
 Gaussian, Inc.
 340 Quinnipiac St., Bldg. 40, Wallingford CT 06492
  
  
 ---------------------------------------------------------------
 Warning -- This program may not be used in any manner that
 competes with the business of Gaussian, Inc. or will provide
 assistance to any competitor of Gaussian, Inc.  The licensee
 of this program is prohibited from giving any competitor of
 Gaussian, Inc. access to this program.  By using this program,
 the user acknowledges that Gaussian, Inc. is engaged in the
 business of creating and licensing software in the field of
 computational chemistry and represents and warrants to the
 licensee that it is not a competitor of Gaussian, Inc. and that
 it will not use this program in any manner prohibited above.
 ---------------------------------------------------------------
  

 Cite this work as:
 Gaussian 16, Revision C.01,
 M. J. Frisch, G. W. Trucks, H. B. Schlegel, G. E. Scuseria, 
 M. A. Robb, J. R. Cheeseman, G. Scalmani, V. Barone, 
 G. A. Petersson, H. Nakatsuji, X. Li, M. Caricato, A. V. Marenich, 
 J. Bloino, B. G. Janesko, R. Gomperts, B. Mennucci, H. P. Hratchian, 
 J. V. Ortiz, A. F. Izmaylov, J. L. Sonnenberg, D. Williams-Young, 
 F. Ding, F. Lipparini, F. Egidi, J. Goings, B. Peng, A. Petrone, 
 T. Henderson, D. Ranasinghe, V. G. Zakrzewski, J. Gao, N. Rega, 
 G. Zheng, W. Liang, M. Hada, M. Ehara, K. Toyota, R. Fukuda, 
 J. Hasegawa, M. Ishida, T. Nakajima, Y. Honda, O. Kitao, H. Nakai, 
 T. Vreven, K. Throssell, J. A. Montgomery, Jr., J. E. Peralta, 
 F. Ogliaro, M. J. Bearpark, J. J. Heyd, E. N. Brothers, K. N. Kudin, 
 V. N. Staroverov, T. A. Keith, R. Kobayashi, J. Normand, 
 K. Raghavachari, A. P. Rendell, J. C. Burant, S. S. Iyengar, 
 J. Tomasi, M. Cossi, J. M. Millam, M. Klene, C. Adamo, R. Cammi, 
 J. W. Ochterski, R. L. Martin, K. Morokuma, O. Farkas, 
 J. B. Foresman, and D. J. Fox, Gaussian, Inc., Wallingford CT, 2019.
 
 ******************************************
 Gaussian 16:  ES64L-G16RevC.01  3-Jul-2019
                 9-Apr-2025 
 ******************************************
 %nprocs=16
 Will use up to   16 processors via shared memory.
 %mem=30GB
 %chk=Grambow2020_b97d3_007103_reverse_mol1.chk
 ----------------------------------------------------------------------
 #t hf aug-cc-pvdz symm=none int=(grid=ultrafine) guess=(read,tcheck) s
 table=(opt,rrhf)
 ----------------------------------------------------------------------
 -----
 title
 -----
 Symbolic Z-matrix:
 Charge =  0 Multiplicity = 1
 C                    -1.50443  -0.93252   0.48848 
 C                    -0.70244   0.02894  -0.38162 
 C                     0.29817  -0.52391  -1.21561 
 O                     2.21056   0.06084  -0.68945 
 C                     0.14186   1.22465   0.88636 
 O                     1.03128   1.95956   0.31672 
 H                    -2.25998  -1.47333  -0.10172 
 H                    -0.84905  -1.68486   0.95188 
 H                    -2.03324  -0.40483   1.29534 
 H                    -1.2979    0.79713  -0.88302 
 H                     0.51629  -0.08387  -2.18469 
 H                     0.57073  -1.57608  -1.12088 
 H                     2.3567   -0.51279   0.08732 
 H                    -0.78474   1.71478   1.2394 
 H                     0.45684   0.40077   1.56537 
 H                     1.84532   0.99185  -0.25174 
 
                    Distance matrix (angstroms):
                    1          2          3          4          5
     1  C    0.000000
     2  C    1.524688   0.000000
     3  C    2.514012   1.415063   0.000000
     4  O    4.021874   2.929393   2.067852   0.000000
     5  C    2.742622   1.936576   2.738645   2.849065   0.000000
     6  O    3.850127   2.687143   3.008839   2.451172   1.286722
     7  H    1.100755   2.181996   2.947250   4.762860   3.744896
     8  H    1.100133   2.176427   2.713288   3.886210   3.074316
     9  H    1.099603   2.184356   3.428493   4.708093   2.748373
    10  H    2.217055   1.093659   2.098383   3.590114   2.320859
    11  H    3.456783   2.179239   1.086430   2.264345   3.359133
    12  H    2.703796   2.177971   1.091018   2.356835   3.472323
    13  H    3.904537   3.141920   2.436241   0.976614   2.926200
    14  H    2.844301   2.340198   3.494494   3.927823   1.106092
    15  H    2.604608   2.296293   2.934973   2.876683   1.113122
    16  H    3.933438   2.726739   2.370701   1.091684   2.061852
                    6          7          8          9         10
     6  O    0.000000
     7  H    4.774121   0.000000
     8  H    4.149801   1.773571   0.000000
     9  H    3.992414   1.773384   1.777287   0.000000
    10  H    2.866304   2.586699   3.119068   2.594358   0.000000
    11  H    3.270761   3.738586   3.776957   4.325941   2.400374
    12  H    3.844418   3.010342   2.514747   3.740407   3.029931
    13  H    2.814581   4.719327   3.521077   4.554396   4.001689
    14  H    2.051624   3.760189   3.412380   2.460623   2.368561
    15  H    2.078203   3.697647   2.536055   2.631055   3.038228
    16  H    1.386462   4.790936   3.984099   4.403114   3.211893
                   11         12         13         14         15
    11  H    0.000000
    12  H    1.833397   0.000000
    13  H    2.955185   2.404164   0.000000
    14  H    4.080711   4.270593   4.019691   0.000000
    15  H    3.781717   3.337194   2.574618   1.836948   0.000000
    16  H    2.580657   2.995699   1.624929   3.108585   2.362015
                   16
    16  H    0.000000
 Symmetry turned off by external request.
 Rotational constants (GHZ):           4.1408268           2.6327830           1.8528925
   228 basis functions,   368 primitive gaussians,   240 cartesian basis functions
    25 alpha electrons       25 beta electrons
       nuclear repulsion energy       254.7597145177 Hartrees.
 NAtoms=   16 NActive=   16 NUniq=   16 SFac= 1.00D+00 NAtFMM=   60 NAOKFM=F Big=F
 ExpMin= 2.97D-02 ExpMax= 1.17D+04 ExpMxC= 4.01D+02 IAcc=3 IRadAn=         5 AccDes= 0.00D+00
 Harris functional with IExCor=  205 and IRadAn=       5 diagonalized for initial guess.
 HarFok:  IExCor=  205 AccDes= 0.00D+00 IRadAn=         5 IDoV= 1 UseB2=F ITyADJ=14
 ICtDFT=  3500011 ScaDFX=  1.000000  1.000000  1.000000  1.000000
 FoFCou: FMM=F IPFlag=           0 FMFlag=      100000 FMFlg1=           0
         NFxFlg=           0 DoJE=T BraDBF=F KetDBF=T FulRan=T
         wScrn=  0.000000 ICntrl=       500 IOpCl=  0 I1Cent=   200000004 NGrid=           0
         NMat0=    1 NMatS0=      1 NMatT0=    0 NMatD0=    1 NMtDS0=    0 NMtDT0=    0
 Symmetry not used in FoFCou.
 SCF Done:  E(RHF) =  -306.909867219     A.U. after   15 cycles
            NFock= 15  Conv=0.60D-08     -V/T= 2.0020

 **********************************************************************

            Population analysis using the SCF Density.

 **********************************************************************

 Alpha  occ. eigenvalues --  -20.56619 -20.50448 -11.33825 -11.32820 -11.24591
 Alpha  occ. eigenvalues --  -11.23848  -1.34706  -1.30663  -1.09035  -0.95396
 Alpha  occ. eigenvalues --   -0.86804  -0.79273  -0.70575  -0.68415  -0.62715
 Alpha  occ. eigenvalues --   -0.60839  -0.58759  -0.57997  -0.56842  -0.53547
 Alpha  occ. eigenvalues --   -0.52475  -0.50622  -0.47606  -0.39505  -0.33007
 Alpha virt. eigenvalues --    0.02809   0.03468   0.04131   0.04688   0.06262
 Alpha virt. eigenvalues --    0.06418   0.07066   0.07412   0.07666   0.08565
 Alpha virt. eigenvalues --    0.09854   0.12603   0.13885   0.14498   0.14792
 Alpha virt. eigenvalues --    0.15183   0.15354   0.16076   0.16160   0.16270
 Alpha virt. eigenvalues --    0.17827   0.18223   0.18745   0.20043   0.21307
 Alpha virt. eigenvalues --    0.22924   0.24292   0.25565   0.25678   0.28056
 Alpha virt. eigenvalues --    0.28481   0.29569   0.30339   0.30995   0.31699
 Alpha virt. eigenvalues --    0.32879   0.33851   0.35409   0.36482   0.36750
 Alpha virt. eigenvalues --    0.37597   0.38494   0.39699   0.39930   0.41501
 Alpha virt. eigenvalues --    0.42570   0.44046   0.44673   0.45493   0.46093
 Alpha virt. eigenvalues --    0.46459   0.47307   0.47965   0.49402   0.50338
 Alpha virt. eigenvalues --    0.50878   0.52597   0.54146   0.54728   0.56175
 Alpha virt. eigenvalues --    0.56940   0.57629   0.57940   0.60054   0.60644
 Alpha virt. eigenvalues --    0.60766   0.62436   0.63370   0.63792   0.65008
 Alpha virt. eigenvalues --    0.66088   0.67218   0.67996   0.69247   0.69902
 Alpha virt. eigenvalues --    0.71143   0.72607   0.73252   0.73499   0.74382
 Alpha virt. eigenvalues --    0.74624   0.76351   0.77209   0.78455   0.79598
 Alpha virt. eigenvalues --    0.80359   0.80859   0.82099   0.84072   0.84782
 Alpha virt. eigenvalues --    0.84943   0.87397   0.90204   0.90696   0.92152
 Alpha virt. eigenvalues --    0.94278   0.97027   0.97967   1.02229   1.03288
 Alpha virt. eigenvalues --    1.06880   1.09238   1.09763   1.11934   1.14870
 Alpha virt. eigenvalues --    1.16995   1.19110   1.20428   1.24363   1.27195
 Alpha virt. eigenvalues --    1.28531   1.29245   1.32486   1.32770   1.36923
 Alpha virt. eigenvalues --    1.37649   1.39918   1.41624   1.44715   1.46540
 Alpha virt. eigenvalues --    1.48514   1.50933   1.54755   1.56275   1.61273
 Alpha virt. eigenvalues --    1.63423   1.64857   1.66579   1.68515   1.70746
 Alpha virt. eigenvalues --    1.72324   1.75375   1.77453   1.79364   1.81561
 Alpha virt. eigenvalues --    1.83648   1.85087   1.88637   1.90631   1.92452
 Alpha virt. eigenvalues --    1.93948   1.96596   1.96858   2.00224   2.02993
 Alpha virt. eigenvalues --    2.04681   2.06379   2.10093   2.12713   2.13323
 Alpha virt. eigenvalues --    2.14964   2.17169   2.18264   2.22558   2.24118
 Alpha virt. eigenvalues --    2.25399   2.27865   2.30526   2.32145   2.35792
 Alpha virt. eigenvalues --    2.36159   2.36577   2.39914   2.41768   2.45342
 Alpha virt. eigenvalues --    2.46471   2.47728   2.50411   2.56335   2.57270
 Alpha virt. eigenvalues --    2.60395   2.64651   2.66571   2.69325   2.72596
 Alpha virt. eigenvalues --    2.75350   2.78183   2.79277   2.82166   2.87056
 Alpha virt. eigenvalues --    2.89912   2.90575   2.93559   3.00259   3.04694
 Alpha virt. eigenvalues --    3.06774   3.12625   3.16621   3.19337   3.28019
 Alpha virt. eigenvalues --    3.28938   3.45931   3.60388   3.80208   3.82302
 Alpha virt. eigenvalues --    3.86879   3.89728   3.94239   4.00292   4.05786
 Alpha virt. eigenvalues --    4.14013   4.27420   4.54170
          Condensed to atoms (all electrons):
 Mulliken charges:
               1
     1  C    0.562006
     2  C   -0.366485
     3  C    0.706172
     4  O   -0.690223
     5  C    1.012898
     6  O   -1.020731
     7  H   -0.076733
     8  H   -0.051106
     9  H   -0.081321
    10  H   -0.180967
    11  H   -0.207898
    12  H   -0.192257
    13  H    0.191614
    14  H   -0.174637
    15  H   -0.059603
    16  H    0.629272
 Sum of Mulliken charges =  -0.00000
 Mulliken charges with hydrogens summed into heavy atoms:
               1
     1  C    0.352846
     2  C   -0.547452
     3  C    0.306017
     4  O    0.130663
     5  C    0.778657
     6  O   -1.020731
 Electronic spatial extent (au):  <R**2>=            735.9879
 Charge=             -0.0000 electrons
 Dipole moment (field-independent basis, Debye):
    X=             -2.5534    Y=             -4.1099    Z=              0.0590  Tot=              4.8389
 NROrb=    228 NOA=    25 NOB=    25 NVA=   203 NVB=   203

 **** Warning!!: The largest alpha MO coefficient is  0.55980825D+02

    12 initial guesses have been made.
 Iteration     1 Dimension    12 NMult     0 NNew     12
 New state      1 was old state      3
 Iteration     2 Dimension    24 NMult    12 NNew     12
 Iteration     3 Dimension    27 NMult    24 NNew      3
 Iteration     4 Dimension    30 NMult    27 NNew      3
 Iteration     5 Dimension    33 NMult    30 NNew      3
 Iteration     6 Dimension    36 NMult    33 NNew      3
 ***********************************************************************
 Stability analysis using <AA,BB:AA,BB> singles matrix:
 ***********************************************************************
 Ground to excited state transition densities written to RWF  633

 Eigenvectors of the stability matrix:
 
 Excited state symmetry could not be determined.
 Eigenvector   1:      Singlet-?Sym  Eigenvalue= 0.1600925  <S**2>=0.000
      25 -> 27         0.41275
      25 -> 29        -0.21007
      25 -> 30        -0.20473
      25 -> 32         0.11154
      25 -> 33        -0.28044
      25 -> 34         0.18953
      25 -> 35        -0.16828
 The wavefunction is stable under the perturbations considered.
 The wavefunction is already stable.

 **********************************************************************

            Population analysis using the SCF Density.

 **********************************************************************

 Alpha  occ. eigenvalues --  -20.56619 -20.50448 -11.33825 -11.32820 -11.24591
 Alpha  occ. eigenvalues --  -11.23848  -1.34706  -1.30663  -1.09035  -0.95396
 Alpha  occ. eigenvalues --   -0.86804  -0.79273  -0.70575  -0.68415  -0.62715
 Alpha  occ. eigenvalues --   -0.60839  -0.58759  -0.57997  -0.56842  -0.53547
 Alpha  occ. eigenvalues --   -0.52475  -0.50622  -0.47606  -0.39505  -0.33007
 Alpha virt. eigenvalues --    0.02809   0.03468   0.04131   0.04688   0.06262
 Alpha virt. eigenvalues --    0.06418   0.07066   0.07412   0.07666   0.08565
 Alpha virt. eigenvalues --    0.09854   0.12603   0.13885   0.14498   0.14792
 Alpha virt. eigenvalues --    0.15183   0.15354   0.16076   0.16160   0.16270
 Alpha virt. eigenvalues --    0.17827   0.18223   0.18745   0.20043   0.21307
 Alpha virt. eigenvalues --    0.22924   0.24292   0.25565   0.25678   0.28056
 Alpha virt. eigenvalues --    0.28481   0.29569   0.30339   0.30995   0.31699
 Alpha virt. eigenvalues --    0.32879   0.33851   0.35409   0.36482   0.36750
 Alpha virt. eigenvalues --    0.37597   0.38494   0.39699   0.39930   0.41501
 Alpha virt. eigenvalues --    0.42570   0.44046   0.44673   0.45493   0.46093
 Alpha virt. eigenvalues --    0.46459   0.47307   0.47965   0.49402   0.50338
 Alpha virt. eigenvalues --    0.50878   0.52597   0.54146   0.54728   0.56175
 Alpha virt. eigenvalues --    0.56940   0.57629   0.57940   0.60054   0.60644
 Alpha virt. eigenvalues --    0.60766   0.62436   0.63370   0.63792   0.65008
 Alpha virt. eigenvalues --    0.66088   0.67218   0.67996   0.69247   0.69902
 Alpha virt. eigenvalues --    0.71143   0.72607   0.73252   0.73499   0.74382
 Alpha virt. eigenvalues --    0.74624   0.76351   0.77209   0.78455   0.79598
 Alpha virt. eigenvalues --    0.80359   0.80859   0.82099   0.84072   0.84782
 Alpha virt. eigenvalues --    0.84943   0.87397   0.90204   0.90696   0.92152
 Alpha virt. eigenvalues --    0.94278   0.97027   0.97967   1.02229   1.03288
 Alpha virt. eigenvalues --    1.06880   1.09238   1.09763   1.11934   1.14870
 Alpha virt. eigenvalues --    1.16995   1.19110   1.20428   1.24363   1.27195
 Alpha virt. eigenvalues --    1.28531   1.29245   1.32486   1.32770   1.36923
 Alpha virt. eigenvalues --    1.37649   1.39918   1.41624   1.44715   1.46540
 Alpha virt. eigenvalues --    1.48514   1.50933   1.54755   1.56275   1.61273
 Alpha virt. eigenvalues --    1.63423   1.64857   1.66579   1.68515   1.70746
 Alpha virt. eigenvalues --    1.72324   1.75375   1.77453   1.79364   1.81561
 Alpha virt. eigenvalues --    1.83648   1.85087   1.88637   1.90631   1.92452
 Alpha virt. eigenvalues --    1.93948   1.96596   1.96858   2.00224   2.02993
 Alpha virt. eigenvalues --    2.04681   2.06379   2.10093   2.12713   2.13323
 Alpha virt. eigenvalues --    2.14964   2.17169   2.18264   2.22558   2.24118
 Alpha virt. eigenvalues --    2.25399   2.27865   2.30526   2.32145   2.35792
 Alpha virt. eigenvalues --    2.36159   2.36577   2.39914   2.41768   2.45342
 Alpha virt. eigenvalues --    2.46471   2.47728   2.50411   2.56335   2.57270
 Alpha virt. eigenvalues --    2.60395   2.64651   2.66571   2.69325   2.72596
 Alpha virt. eigenvalues --    2.75350   2.78183   2.79277   2.82166   2.87056
 Alpha virt. eigenvalues --    2.89912   2.90575   2.93559   3.00259   3.04694
 Alpha virt. eigenvalues --    3.06774   3.12625   3.16621   3.19337   3.28019
 Alpha virt. eigenvalues --    3.28938   3.45931   3.60388   3.80208   3.82302
 Alpha virt. eigenvalues --    3.86879   3.89728   3.94239   4.00292   4.05786
 Alpha virt. eigenvalues --    4.14013   4.27420   4.54170
          Condensed to atoms (all electrons):
 Mulliken charges:
               1
     1  C    0.562006
     2  C   -0.366485
     3  C    0.706172
     4  O   -0.690223
     5  C    1.012898
     6  O   -1.020731
     7  H   -0.076733
     8  H   -0.051106
     9  H   -0.081321
    10  H   -0.180967
    11  H   -0.207898
    12  H   -0.192257
    13  H    0.191614
    14  H   -0.174637
    15  H   -0.059603
    16  H    0.629272
 Sum of Mulliken charges =  -0.00000
 Mulliken charges with hydrogens summed into heavy atoms:
               1
     1  C    0.352846
     2  C   -0.547452
     3  C    0.306017
     4  O    0.130663
     5  C    0.778657
     6  O   -1.020731
 Electronic spatial extent (au):  <R**2>=            735.9879
 Charge=             -0.0000 electrons
 Dipole moment (field-independent basis, Debye):
    X=             -2.5534    Y=             -4.1099    Z=              0.0590  Tot=              4.8389
 Unable to Open any file for archive entry.
 1\1\GINC-SE037\Stability\RHF\Aug-CC-pVDZ\C4H10O2\OHZDE\09-Apr-2025\0\\
 #t hf aug-cc-pvdz symm=none int=(grid=ultrafine) guess=(read,tcheck) s
 table=(opt,rrhf)\\title\\0,1\C,0,-1.50443312,-0.93251982,0.48847615\C,
 0,-0.70243623,0.02894264,-0.38161837\C,0,0.29817375,-0.52390849,-1.215
 6081\O,0,2.21056375,0.06083958,-0.68944677\C,0,0.14185861,1.22465035,0
 .88636271\O,0,1.03127745,1.95956362,0.31672226\H,0,-2.25997654,-1.4733
 3394,-0.10172287\H,0,-0.84904503,-1.68485793,0.95188308\H,0,-2.0332434
 5,-0.40483478,1.29534316\H,0,-1.29790127,0.79712907,-0.88301633\H,0,0.
 51628942,-0.08386621,-2.18468973\H,0,0.57073398,-1.57607626,-1.1208805
 \H,0,2.35669537,-0.51278564,0.08732493\H,0,-0.78473523,1.71477896,1.23
 940276\H,0,0.45684219,0.40077433,1.5653729\H,0,1.84531736,0.99184852,-
 0.25173527\\Version=ES64L-G16RevC.01\HF=-306.9098672\RMSD=6.005e-09\Di
 pole=-1.0045743,-1.616974,0.0231943\Quadrupole=-1.5758011,-2.5555752,4
 .1313763,-5.0496095,1.7645111,0.13098\PG=Unknown\\@
 The archive entry for this job was punched.


 IF AT FIRST YOU DON'T SUCCEED, TRY, TRY AGAIN.
 THEN GIVE UP;
 THERE'S NO USE BEING A DAMN FOOL ABOUT IT.

                                 -- W. C. FIELDS
 Job cpu time:       0 days  0 hours  7 minutes 13.9 seconds.
 Elapsed time:       0 days  0 hours  0 minutes 31.1 seconds.
 File lengths (MBytes):  RWF=    227 Int=      0 D2E=      0 Chk=      7 Scr=      1
 Normal termination of Gaussian 16 at Wed Apr  9 14:18:25 2025.
 Initial command:
 /arc/software/Gaussian/g16.c01/l1.exe "/tmp/slurm/4874903/Gau-783997.inp" -scrdir="/tmp/slurm/4874903/"
 Entering Link 1 = /arc/software/Gaussian/g16.c01/l1.exe PID=    784214.
  
 Copyright (c) 1988-2019, Gaussian, Inc.  All Rights Reserved.
  
 This is part of the Gaussian(R) 16 program.  It is based on
 the Gaussian(R) 09 system (copyright 2009, Gaussian, Inc.),
 the Gaussian(R) 03 system (copyright 2003, Gaussian, Inc.),
 the Gaussian(R) 98 system (copyright 1998, Gaussian, Inc.),
 the Gaussian(R) 94 system (copyright 1995, Gaussian, Inc.),
 the Gaussian 92(TM) system (copyright 1992, Gaussian, Inc.),
 the Gaussian 90(TM) system (copyright 1990, Gaussian, Inc.),
 the Gaussian 88(TM) system (copyright 1988, Gaussian, Inc.),
 the Gaussian 86(TM) system (copyright 1986, Carnegie Mellon
 University), and the Gaussian 82(TM) system (copyright 1983,
 Carnegie Mellon University). Gaussian is a federally registered
 trademark of Gaussian, Inc.
  
 This software contains proprietary and confidential information,
 including trade secrets, belonging to Gaussian, Inc.
  
 This software is provided under written license and may be
 used, copied, transmitted, or stored only in accord with that
 written license.
  
 The following legend is applicable only to US Government
 contracts under FAR:
  
                    RESTRICTED RIGHTS LEGEND
  
 Use, reproduction and disclosure by the US Government is
 subject to restrictions as set forth in subparagraphs (a)
 and (c) of the Commercial Computer Software - Restricted
 Rights clause in FAR 52.227-19.
  
 Gaussian, Inc.
 340 Quinnipiac St., Bldg. 40, Wallingford CT 06492
  
  
 ---------------------------------------------------------------
 Warning -- This program may not be used in any manner that
 competes with the business of Gaussian, Inc. or will provide
 assistance to any competitor of Gaussian, Inc.  The licensee
 of this program is prohibited from giving any competitor of
 Gaussian, Inc. access to this program.  By using this program,
 the user acknowledges that Gaussian, Inc. is engaged in the
 business of creating and licensing software in the field of
 computational chemistry and represents and warrants to the
 licensee that it is not a competitor of Gaussian, Inc. and that
 it will not use this program in any manner prohibited above.
 ---------------------------------------------------------------
  

 Cite this work as:
 Gaussian 16, Revision C.01,
 M. J. Frisch, G. W. Trucks, H. B. Schlegel, G. E. Scuseria, 
 M. A. Robb, J. R. Cheeseman, G. Scalmani, V. Barone, 
 G. A. Petersson, H. Nakatsuji, X. Li, M. Caricato, A. V. Marenich, 
 J. Bloino, B. G. Janesko, R. Gomperts, B. Mennucci, H. P. Hratchian, 
 J. V. Ortiz, A. F. Izmaylov, J. L. Sonnenberg, D. Williams-Young, 
 F. Ding, F. Lipparini, F. Egidi, J. Goings, B. Peng, A. Petrone, 
 T. Henderson, D. Ranasinghe, V. G. Zakrzewski, J. Gao, N. Rega, 
 G. Zheng, W. Liang, M. Hada, M. Ehara, K. Toyota, R. Fukuda, 
 J. Hasegawa, M. Ishida, T. Nakajima, Y. Honda, O. Kitao, H. Nakai, 
 T. Vreven, K. Throssell, J. A. Montgomery, Jr., J. E. Peralta, 
 F. Ogliaro, M. J. Bearpark, J. J. Heyd, E. N. Brothers, K. N. Kudin, 
 V. N. Staroverov, T. A. Keith, R. Kobayashi, J. Normand, 
 K. Raghavachari, A. P. Rendell, J. C. Burant, S. S. Iyengar, 
 J. Tomasi, M. Cossi, J. M. Millam, M. Klene, C. Adamo, R. Cammi, 
 J. W. Ochterski, R. L. Martin, K. Morokuma, O. Farkas, 
 J. B. Foresman, and D. J. Fox, Gaussian, Inc., Wallingford CT, 2019.
 
 ******************************************
 Gaussian 16:  ES64L-G16RevC.01  3-Jul-2019
                 9-Apr-2025 
 ******************************************
 %nprocs=16
 Will use up to   16 processors via shared memory.
 %mem=30GB
 %chk=Grambow2020_b97d3_007103_reverse_mol1.chk
 ----------------------------------------------------------------------
 #t hf aug-cc-pvdz iop(5/13=1,5/36=2,99/5=2) pseudo=read geom=check gue
 ss=(read,tcheck) scf=(maxcycle=1)
 ----------------------------------------------------------------------
 -----
 title
 -----
 Structure from the checkpoint file:  "Grambow2020_b97d3_007103_reverse_mol1.chk"
 Charge =  0 Multiplicity = 1
 Z-Matrix found in chk file.
 C,0,-1.50443312,-0.93251982,0.48847615
 C,0,-0.70243623,0.02894264,-0.38161837
 C,0,0.29817375,-0.52390849,-1.2156081
 O,0,2.21056375,0.06083958,-0.68944677
 C,0,0.14185861,1.22465035,0.88636271
 O,0,1.03127745,1.95956362,0.31672226
 H,0,-2.25997654,-1.47333394,-0.10172287
 H,0,-0.84904503,-1.68485793,0.95188308
 H,0,-2.03324345,-0.40483478,1.29534316
 H,0,-1.29790127,0.79712907,-0.88301633
 H,0,0.51628942,-0.08386621,-2.18468973
 H,0,0.57073398,-1.57607626,-1.1208805
 H,0,2.35669537,-0.51278564,0.08732493
 H,0,-0.78473523,1.71477896,1.23940276
 H,0,0.45684219,0.40077433,1.5653729
 H,0,1.84531736,0.99184852,-0.25173527
 Recover connectivity data from disk.
                    Distance matrix (angstroms):
                    1          2          3          4          5
     1  C    0.000000
     2  C    1.524688   0.000000
     3  C    2.514012   1.415063   0.000000
     4  O    4.021874   2.929393   2.067852   0.000000
     5  C    2.742622   1.936576   2.738645   2.849065   0.000000
     6  O    3.850127   2.687143   3.008839   2.451172   1.286722
     7  H    1.100755   2.181996   2.947250   4.762860   3.744896
     8  H    1.100133   2.176427   2.713288   3.886210   3.074316
     9  H    1.099603   2.184356   3.428493   4.708093   2.748373
    10  H    2.217055   1.093659   2.098383   3.590114   2.320859
    11  H    3.456783   2.179239   1.086430   2.264345   3.359133
    12  H    2.703796   2.177971   1.091018   2.356835   3.472323
    13  H    3.904537   3.141920   2.436241   0.976614   2.926200
    14  H    2.844301   2.340198   3.494494   3.927823   1.106092
    15  H    2.604608   2.296293   2.934973   2.876683   1.113122
    16  H    3.933438   2.726739   2.370701   1.091684   2.061852
                    6          7          8          9         10
     6  O    0.000000
     7  H    4.774121   0.000000
     8  H    4.149801   1.773571   0.000000
     9  H    3.992414   1.773384   1.777287   0.000000
    10  H    2.866304   2.586699   3.119068   2.594358   0.000000
    11  H    3.270761   3.738586   3.776957   4.325941   2.400374
    12  H    3.844418   3.010342   2.514747   3.740407   3.029931
    13  H    2.814581   4.719327   3.521077   4.554396   4.001689
    14  H    2.051624   3.760189   3.412380   2.460623   2.368561
    15  H    2.078203   3.697647   2.536055   2.631055   3.038228
    16  H    1.386462   4.790936   3.984099   4.403114   3.211893
                   11         12         13         14         15
    11  H    0.000000
    12  H    1.833397   0.000000
    13  H    2.955185   2.404164   0.000000
    14  H    4.080711   4.270593   4.019691   0.000000
    15  H    3.781717   3.337194   2.574618   1.836948   0.000000
    16  H    2.580657   2.995699   1.624929   3.108585   2.362015
                   16
    16  H    0.000000
 Framework group  C1[X(C4H10O2)]
 Deg. of freedom    42
                         Standard orientation:                         
 ---------------------------------------------------------------------
 Center     Atomic      Atomic             Coordinates (Angstroms)
 Number     Number       Type             X           Y           Z
 ---------------------------------------------------------------------
      1          6           0       -2.187534    0.023058    0.363868
      2          6           0       -0.928539   -0.072413   -0.490820
      3          6           0       -0.208840   -1.290414   -0.460645
      4          8           0        1.673516   -1.102839    0.374555
      5          6           0        0.213614    1.336619    0.187740
      6          8           0        1.406069    1.242336   -0.286407
      7          1           0       -3.029072   -0.514570   -0.099199
      8          1           0       -2.023176   -0.417785    1.358321
      9          1           0       -2.502790    1.066743    0.506912
     10          1           0       -1.028359    0.338163   -1.499558
     11          1           0        0.307383   -1.650325   -1.346257
     12          1           0       -0.474378   -2.066115    0.259144
     13          1           0        1.437235   -1.067543    1.321498
     14          1           0       -0.411397    2.184356   -0.150109
     15          1           0        0.020034    1.080851    1.253644
     16          1           0        1.735632   -0.050846    0.089556
 ---------------------------------------------------------------------
 Rotational constants (GHZ):           4.1408268           2.6327830           1.8528925
 ======================================================================================================
                                       Pseudopotential Parameters
 ======================================================================================================
  Center     Atomic      Valence      Angular      Power
  Number     Number     Electrons     Momentum     of R      Exponent        Coefficient   SO-Coeffient
 ======================================================================================================
    1          6            6
                                      G and up 
                                                     0        0.0000010       -0.00011185    0.00000000
                                                     2        0.1200000       -0.02301220    0.00000000
                                                     2        0.1400000        0.13317600    0.00000000
                                                     2        0.1600000       -0.19690668    0.00000000
                                                     2        0.2200000        0.23163694    0.00000000
                                                     2        0.3000000       -0.36920489    0.00000000
                                                     2        0.4000000        0.36389709    0.00000000
                                                     2        0.7000000       -0.38862160    0.00000000
                                                     2        1.3000000        0.80803421    0.00000000
                                      S - G
                                                     0        0.0000010        0.00312304    0.00000000
                                                     2        0.1200000       -0.00632892    0.00000000
                                                     2        0.2200000       -0.03780897    0.00000000
                                                     2        0.4000000        0.26269560    0.00000000
                                                     2        0.9000000       -0.28209514    0.00000000
                                                     2        1.5000000       -0.72686737    0.00000000
                                      P - G
                                                     0        0.0000010       -0.01465594    0.00000000
                                                     2        0.1200000        0.07908409    0.00000000
                                                     2        0.1800000       -0.30615861    0.00000000
                                                     2        0.2600000        0.41506950    0.00000000
                                                     2        0.5000000       -0.36252345    0.00000000
                                                     2        0.9000000        0.15124193    0.00000000
                                                     2        3.0000000       -0.80425677    0.00000000
                                      D - G
                                                     0        0.0000010        0.01149631    0.00000000
                                                     2        0.1200000       -0.04713561    0.00000000
                                                     2        0.1600000        0.10865096    0.00000000
                                                     2        0.2800000       -0.15816701    0.00000000
                                                     2        0.7000000        0.65478804    0.00000000
                                                     2        1.3000000       -1.73816624    0.00000000
                                      F - G
                                                     0        0.0000010        0.00481868    0.00000000
                                                     2        0.1200000       -0.04746842    0.00000000
                                                     2        0.1600000        0.09327889    0.00000000
                                                     2        0.4000000       -0.19693326    0.00000000
                                                     2        0.9000000        0.34938253    0.00000000
    2          6            6
                                      G and up 
                                                     0        0.0000010       -0.00011185    0.00000000
                                                     2        0.1200000       -0.02301220    0.00000000
                                                     2        0.1400000        0.13317600    0.00000000
                                                     2        0.1600000       -0.19690668    0.00000000
                                                     2        0.2200000        0.23163694    0.00000000
                                                     2        0.3000000       -0.36920489    0.00000000
                                                     2        0.4000000        0.36389709    0.00000000
                                                     2        0.7000000       -0.38862160    0.00000000
                                                     2        1.3000000        0.80803421    0.00000000
                                      S - G
                                                     0        0.0000010        0.00312304    0.00000000
                                                     2        0.1200000       -0.00632892    0.00000000
                                                     2        0.2200000       -0.03780897    0.00000000
                                                     2        0.4000000        0.26269560    0.00000000
                                                     2        0.9000000       -0.28209514    0.00000000
                                                     2        1.5000000       -0.72686737    0.00000000
                                      P - G
                                                     0        0.0000010       -0.01465594    0.00000000
                                                     2        0.1200000        0.07908409    0.00000000
                                                     2        0.1800000       -0.30615861    0.00000000
                                                     2        0.2600000        0.41506950    0.00000000
                                                     2        0.5000000       -0.36252345    0.00000000
                                                     2        0.9000000        0.15124193    0.00000000
                                                     2        3.0000000       -0.80425677    0.00000000
                                      D - G
                                                     0        0.0000010        0.01149631    0.00000000
                                                     2        0.1200000       -0.04713561    0.00000000
                                                     2        0.1600000        0.10865096    0.00000000
                                                     2        0.2800000       -0.15816701    0.00000000
                                                     2        0.7000000        0.65478804    0.00000000
                                                     2        1.3000000       -1.73816624    0.00000000
                                      F - G
                                                     0        0.0000010        0.00481868    0.00000000
                                                     2        0.1200000       -0.04746842    0.00000000
                                                     2        0.1600000        0.09327889    0.00000000
                                                     2        0.4000000       -0.19693326    0.00000000
                                                     2        0.9000000        0.34938253    0.00000000
    3          6            6
                                      G and up 
                                                     0        0.0000010       -0.00011185    0.00000000
                                                     2        0.1200000       -0.02301220    0.00000000
                                                     2        0.1400000        0.13317600    0.00000000
                                                     2        0.1600000       -0.19690668    0.00000000
                                                     2        0.2200000        0.23163694    0.00000000
                                                     2        0.3000000       -0.36920489    0.00000000
                                                     2        0.4000000        0.36389709    0.00000000
                                                     2        0.7000000       -0.38862160    0.00000000
                                                     2        1.3000000        0.80803421    0.00000000
                                      S - G
                                                     0        0.0000010        0.00312304    0.00000000
                                                     2        0.1200000       -0.00632892    0.00000000
                                                     2        0.2200000       -0.03780897    0.00000000
                                                     2        0.4000000        0.26269560    0.00000000
                                                     2        0.9000000       -0.28209514    0.00000000
                                                     2        1.5000000       -0.72686737    0.00000000
                                      P - G
                                                     0        0.0000010       -0.01465594    0.00000000
                                                     2        0.1200000        0.07908409    0.00000000
                                                     2        0.1800000       -0.30615861    0.00000000
                                                     2        0.2600000        0.41506950    0.00000000
                                                     2        0.5000000       -0.36252345    0.00000000
                                                     2        0.9000000        0.15124193    0.00000000
                                                     2        3.0000000       -0.80425677    0.00000000
                                      D - G
                                                     0        0.0000010        0.01149631    0.00000000
                                                     2        0.1200000       -0.04713561    0.00000000
                                                     2        0.1600000        0.10865096    0.00000000
                                                     2        0.2800000       -0.15816701    0.00000000
                                                     2        0.7000000        0.65478804    0.00000000
                                                     2        1.3000000       -1.73816624    0.00000000
                                      F - G
                                                     0        0.0000010        0.00481868    0.00000000
                                                     2        0.1200000       -0.04746842    0.00000000
                                                     2        0.1600000        0.09327889    0.00000000
                                                     2        0.4000000       -0.19693326    0.00000000
                                                     2        0.9000000        0.34938253    0.00000000
    4          8            8
                                      G and up 
                                                     0        0.0000010        0.00001165    0.00000000
                                                     2        0.1200000       -0.01744018    0.00000000
                                                     2        0.1400000        0.05401326    0.00000000
                                                     2        0.1800000       -0.08231208    0.00000000
                                                     2        0.2600000        0.11570222    0.00000000
                                                     2        0.4000000       -0.20630360    0.00000000
                                                     2        0.7000000        0.38074319    0.00000000
                                                     2        1.2000000       -0.17045091    0.00000000
                                                     2        2.0000000       -1.45433187    0.00000000
                                      S - G
                                                     0        0.0000010       -0.00117944    0.00000000
                                                     2        0.1400000        0.04368312    0.00000000
                                                     2        0.3000000       -0.33477926    0.00000000
                                                     2        0.6000000        1.52630657    0.00000000
                                                     2        1.5000000       -2.50804716    0.00000000
                                                     2        3.0000000        2.89751681    0.00000000
                                      P - G
                                                     0        0.0000010        0.06576007    0.00000000
                                                     2        0.1200000       -0.10329304    0.00000000
                                                     2        0.2000000        0.24891756    0.00000000
                                                     2        0.4000000       -0.50800022    0.00000000
                                                     2        0.9000000        0.81480796    0.00000000
                                      D - G
                                                     0        0.0000010       -0.14101855    0.00000000
                                                     2        0.1200000        0.22105937    0.00000000
                                                     2        0.1800000       -0.45814988    0.00000000
                                                     2        0.3000000        0.46029282    0.00000000
                                      F - G
                                                     0        0.0000010        0.07483044    0.00000000
                                                     2        0.1200000       -0.09134252    0.00000000
                                                     2        0.1400000        0.04125459    0.00000000
                                                     2        0.3000000        0.37914837    0.00000000
                                                     2        0.5000000       -0.86881279    0.00000000
    5          6            6
                                      G and up 
                                                     0        0.0000010       -0.00011185    0.00000000
                                                     2        0.1200000       -0.02301220    0.00000000
                                                     2        0.1400000        0.13317600    0.00000000
                                                     2        0.1600000       -0.19690668    0.00000000
                                                     2        0.2200000        0.23163694    0.00000000
                                                     2        0.3000000       -0.36920489    0.00000000
                                                     2        0.4000000        0.36389709    0.00000000
                                                     2        0.7000000       -0.38862160    0.00000000
                                                     2        1.3000000        0.80803421    0.00000000
                                      S - G
                                                     0        0.0000010        0.00312304    0.00000000
                                                     2        0.1200000       -0.00632892    0.00000000
                                                     2        0.2200000       -0.03780897    0.00000000
                                                     2        0.4000000        0.26269560    0.00000000
                                                     2        0.9000000       -0.28209514    0.00000000
                                                     2        1.5000000       -0.72686737    0.00000000
                                      P - G
                                                     0        0.0000010       -0.01465594    0.00000000
                                                     2        0.1200000        0.07908409    0.00000000
                                                     2        0.1800000       -0.30615861    0.00000000
                                                     2        0.2600000        0.41506950    0.00000000
                                                     2        0.5000000       -0.36252345    0.00000000
                                                     2        0.9000000        0.15124193    0.00000000
                                                     2        3.0000000       -0.80425677    0.00000000
                                      D - G
                                                     0        0.0000010        0.01149631    0.00000000
                                                     2        0.1200000       -0.04713561    0.00000000
                                                     2        0.1600000        0.10865096    0.00000000
                                                     2        0.2800000       -0.15816701    0.00000000
                                                     2        0.7000000        0.65478804    0.00000000
                                                     2        1.3000000       -1.73816624    0.00000000
                                      F - G
                                                     0        0.0000010        0.00481868    0.00000000
                                                     2        0.1200000       -0.04746842    0.00000000
                                                     2        0.1600000        0.09327889    0.00000000
                                                     2        0.4000000       -0.19693326    0.00000000
                                                     2        0.9000000        0.34938253    0.00000000
    6          8            8
                                      G and up 
                                                     0        0.0000010        0.00001165    0.00000000
                                                     2        0.1200000       -0.01744018    0.00000000
                                                     2        0.1400000        0.05401326    0.00000000
                                                     2        0.1800000       -0.08231208    0.00000000
                                                     2        0.2600000        0.11570222    0.00000000
                                                     2        0.4000000       -0.20630360    0.00000000
                                                     2        0.7000000        0.38074319    0.00000000
                                                     2        1.2000000       -0.17045091    0.00000000
                                                     2        2.0000000       -1.45433187    0.00000000
                                      S - G
                                                     0        0.0000010       -0.00117944    0.00000000
                                                     2        0.1400000        0.04368312    0.00000000
                                                     2        0.3000000       -0.33477926    0.00000000
                                                     2        0.6000000        1.52630657    0.00000000
                                                     2        1.5000000       -2.50804716    0.00000000
                                                     2        3.0000000        2.89751681    0.00000000
                                      P - G
                                                     0        0.0000010        0.06576007    0.00000000
                                                     2        0.1200000       -0.10329304    0.00000000
                                                     2        0.2000000        0.24891756    0.00000000
                                                     2        0.4000000       -0.50800022    0.00000000
                                                     2        0.9000000        0.81480796    0.00000000
                                      D - G
                                                     0        0.0000010       -0.14101855    0.00000000
                                                     2        0.1200000        0.22105937    0.00000000
                                                     2        0.1800000       -0.45814988    0.00000000
                                                     2        0.3000000        0.46029282    0.00000000
                                      F - G
                                                     0        0.0000010        0.07483044    0.00000000
                                                     2        0.1200000       -0.09134252    0.00000000
                                                     2        0.1400000        0.04125459    0.00000000
                                                     2        0.3000000        0.37914837    0.00000000
                                                     2        0.5000000       -0.86881279    0.00000000
    7          1            1
                                      F and up 
                                                     0        0.0000010       -0.00000699    0.00000000
                                                     2        0.1200000        0.00123686    0.00000000
                                                     2        0.1800000       -0.00752022    0.00000000
                                                     2        0.2600000        0.02503380    0.00000000
                                                     2        0.4000000       -0.08702670    0.00000000
                                                     2        0.6000000        0.30134159    0.00000000
                                                     2        0.8000000       -0.50204959    0.00000000
                                                     2        1.2000000        0.52208372    0.00000000
                                      S - F
                                                     0        0.0000010       -0.01618346    0.00000000
                                                     2        0.1200000       -0.07880581    0.00000000
                                                     2        0.1600000        0.32040539    0.00000000
                                                     2        0.2400000       -0.47500956    0.00000000
                                                     2        0.5000000        0.54013668    0.00000000
                                                     2        1.5000000       -1.40434292    0.00000000
                                                     2        3.0000000        1.46283806    0.00000000
                                      P - F
                                                     0        0.0000010        0.00612970    0.00000000
                                                     2        0.1200000        0.02254406    0.00000000
                                                     2        0.1800000       -0.13874529    0.00000000
                                                     2        0.3000000        0.38299049    0.00000000
                                                     2        0.5000000       -0.57923512    0.00000000
                                                     2        1.0000000        0.63021625    0.00000000
                                                     2        2.0000000       -0.79201034    0.00000000
                                      D - F
                                                     0        0.0000010       -0.00296226    0.00000000
                                                     2        0.1200000       -0.00547344    0.00000000
                                                     2        0.1400000        0.01837884    0.00000000
                                                     2        0.2400000       -0.05565704    0.00000000
                                                     2        0.4000000        0.15376597    0.00000000
                                                     2        0.8000000       -0.32464795    0.00000000
    8          1            1
                                      F and up 
                                                     0        0.0000010       -0.00000699    0.00000000
                                                     2        0.1200000        0.00123686    0.00000000
                                                     2        0.1800000       -0.00752022    0.00000000
                                                     2        0.2600000        0.02503380    0.00000000
                                                     2        0.4000000       -0.08702670    0.00000000
                                                     2        0.6000000        0.30134159    0.00000000
                                                     2        0.8000000       -0.50204959    0.00000000
                                                     2        1.2000000        0.52208372    0.00000000
                                      S - F
                                                     0        0.0000010       -0.01618346    0.00000000
                                                     2        0.1200000       -0.07880581    0.00000000
                                                     2        0.1600000        0.32040539    0.00000000
                                                     2        0.2400000       -0.47500956    0.00000000
                                                     2        0.5000000        0.54013668    0.00000000
                                                     2        1.5000000       -1.40434292    0.00000000
                                                     2        3.0000000        1.46283806    0.00000000
                                      P - F
                                                     0        0.0000010        0.00612970    0.00000000
                                                     2        0.1200000        0.02254406    0.00000000
                                                     2        0.1800000       -0.13874529    0.00000000
                                                     2        0.3000000        0.38299049    0.00000000
                                                     2        0.5000000       -0.57923512    0.00000000
                                                     2        1.0000000        0.63021625    0.00000000
                                                     2        2.0000000       -0.79201034    0.00000000
                                      D - F
                                                     0        0.0000010       -0.00296226    0.00000000
                                                     2        0.1200000       -0.00547344    0.00000000
                                                     2        0.1400000        0.01837884    0.00000000
                                                     2        0.2400000       -0.05565704    0.00000000
                                                     2        0.4000000        0.15376597    0.00000000
                                                     2        0.8000000       -0.32464795    0.00000000
    9          1            1
                                      F and up 
                                                     0        0.0000010       -0.00000699    0.00000000
                                                     2        0.1200000        0.00123686    0.00000000
                                                     2        0.1800000       -0.00752022    0.00000000
                                                     2        0.2600000        0.02503380    0.00000000
                                                     2        0.4000000       -0.08702670    0.00000000
                                                     2        0.6000000        0.30134159    0.00000000
                                                     2        0.8000000       -0.50204959    0.00000000
                                                     2        1.2000000        0.52208372    0.00000000
                                      S - F
                                                     0        0.0000010       -0.01618346    0.00000000
                                                     2        0.1200000       -0.07880581    0.00000000
                                                     2        0.1600000        0.32040539    0.00000000
                                                     2        0.2400000       -0.47500956    0.00000000
                                                     2        0.5000000        0.54013668    0.00000000
                                                     2        1.5000000       -1.40434292    0.00000000
                                                     2        3.0000000        1.46283806    0.00000000
                                      P - F
                                                     0        0.0000010        0.00612970    0.00000000
                                                     2        0.1200000        0.02254406    0.00000000
                                                     2        0.1800000       -0.13874529    0.00000000
                                                     2        0.3000000        0.38299049    0.00000000
                                                     2        0.5000000       -0.57923512    0.00000000
                                                     2        1.0000000        0.63021625    0.00000000
                                                     2        2.0000000       -0.79201034    0.00000000
                                      D - F
                                                     0        0.0000010       -0.00296226    0.00000000
                                                     2        0.1200000       -0.00547344    0.00000000
                                                     2        0.1400000        0.01837884    0.00000000
                                                     2        0.2400000       -0.05565704    0.00000000
                                                     2        0.4000000        0.15376597    0.00000000
                                                     2        0.8000000       -0.32464795    0.00000000
   10          1            1
                                      F and up 
                                                     0        0.0000010       -0.00000699    0.00000000
                                                     2        0.1200000        0.00123686    0.00000000
                                                     2        0.1800000       -0.00752022    0.00000000
                                                     2        0.2600000        0.02503380    0.00000000
                                                     2        0.4000000       -0.08702670    0.00000000
                                                     2        0.6000000        0.30134159    0.00000000
                                                     2        0.8000000       -0.50204959    0.00000000
                                                     2        1.2000000        0.52208372    0.00000000
                                      S - F
                                                     0        0.0000010       -0.01618346    0.00000000
                                                     2        0.1200000       -0.07880581    0.00000000
                                                     2        0.1600000        0.32040539    0.00000000
                                                     2        0.2400000       -0.47500956    0.00000000
                                                     2        0.5000000        0.54013668    0.00000000
                                                     2        1.5000000       -1.40434292    0.00000000
                                                     2        3.0000000        1.46283806    0.00000000
                                      P - F
                                                     0        0.0000010        0.00612970    0.00000000
                                                     2        0.1200000        0.02254406    0.00000000
                                                     2        0.1800000       -0.13874529    0.00000000
                                                     2        0.3000000        0.38299049    0.00000000
                                                     2        0.5000000       -0.57923512    0.00000000
                                                     2        1.0000000        0.63021625    0.00000000
                                                     2        2.0000000       -0.79201034    0.00000000
                                      D - F
                                                     0        0.0000010       -0.00296226    0.00000000
                                                     2        0.1200000       -0.00547344    0.00000000
                                                     2        0.1400000        0.01837884    0.00000000
                                                     2        0.2400000       -0.05565704    0.00000000
                                                     2        0.4000000        0.15376597    0.00000000
                                                     2        0.8000000       -0.32464795    0.00000000
   11          1            1
                                      F and up 
                                                     0        0.0000010       -0.00000699    0.00000000
                                                     2        0.1200000        0.00123686    0.00000000
                                                     2        0.1800000       -0.00752022    0.00000000
                                                     2        0.2600000        0.02503380    0.00000000
                                                     2        0.4000000       -0.08702670    0.00000000
                                                     2        0.6000000        0.30134159    0.00000000
                                                     2        0.8000000       -0.50204959    0.00000000
                                                     2        1.2000000        0.52208372    0.00000000
                                      S - F
                                                     0        0.0000010       -0.01618346    0.00000000
                                                     2        0.1200000       -0.07880581    0.00000000
                                                     2        0.1600000        0.32040539    0.00000000
                                                     2        0.2400000       -0.47500956    0.00000000
                                                     2        0.5000000        0.54013668    0.00000000
                                                     2        1.5000000       -1.40434292    0.00000000
                                                     2        3.0000000        1.46283806    0.00000000
                                      P - F
                                                     0        0.0000010        0.00612970    0.00000000
                                                     2        0.1200000        0.02254406    0.00000000
                                                     2        0.1800000       -0.13874529    0.00000000
                                                     2        0.3000000        0.38299049    0.00000000
                                                     2        0.5000000       -0.57923512    0.00000000
                                                     2        1.0000000        0.63021625    0.00000000
                                                     2        2.0000000       -0.79201034    0.00000000
                                      D - F
                                                     0        0.0000010       -0.00296226    0.00000000
                                                     2        0.1200000       -0.00547344    0.00000000
                                                     2        0.1400000        0.01837884    0.00000000
                                                     2        0.2400000       -0.05565704    0.00000000
                                                     2        0.4000000        0.15376597    0.00000000
                                                     2        0.8000000       -0.32464795    0.00000000
   12          1            1
                                      F and up 
                                                     0        0.0000010       -0.00000699    0.00000000
                                                     2        0.1200000        0.00123686    0.00000000
                                                     2        0.1800000       -0.00752022    0.00000000
                                                     2        0.2600000        0.02503380    0.00000000
                                                     2        0.4000000       -0.08702670    0.00000000
                                                     2        0.6000000        0.30134159    0.00000000
                                                     2        0.8000000       -0.50204959    0.00000000
                                                     2        1.2000000        0.52208372    0.00000000
                                      S - F
                                                     0        0.0000010       -0.01618346    0.00000000
                                                     2        0.1200000       -0.07880581    0.00000000
                                                     2        0.1600000        0.32040539    0.00000000
                                                     2        0.2400000       -0.47500956    0.00000000
                                                     2        0.5000000        0.54013668    0.00000000
                                                     2        1.5000000       -1.40434292    0.00000000
                                                     2        3.0000000        1.46283806    0.00000000
                                      P - F
                                                     0        0.0000010        0.00612970    0.00000000
                                                     2        0.1200000        0.02254406    0.00000000
                                                     2        0.1800000       -0.13874529    0.00000000
                                                     2        0.3000000        0.38299049    0.00000000
                                                     2        0.5000000       -0.57923512    0.00000000
                                                     2        1.0000000        0.63021625    0.00000000
                                                     2        2.0000000       -0.79201034    0.00000000
                                      D - F
                                                     0        0.0000010       -0.00296226    0.00000000
                                                     2        0.1200000       -0.00547344    0.00000000
                                                     2        0.1400000        0.01837884    0.00000000
                                                     2        0.2400000       -0.05565704    0.00000000
                                                     2        0.4000000        0.15376597    0.00000000
                                                     2        0.8000000       -0.32464795    0.00000000
   13          1            1
                                      F and up 
                                                     0        0.0000010       -0.00000699    0.00000000
                                                     2        0.1200000        0.00123686    0.00000000
                                                     2        0.1800000       -0.00752022    0.00000000
                                                     2        0.2600000        0.02503380    0.00000000
                                                     2        0.4000000       -0.08702670    0.00000000
                                                     2        0.6000000        0.30134159    0.00000000
                                                     2        0.8000000       -0.50204959    0.00000000
                                                     2        1.2000000        0.52208372    0.00000000
                                      S - F
                                                     0        0.0000010       -0.01618346    0.00000000
                                                     2        0.1200000       -0.07880581    0.00000000
                                                     2        0.1600000        0.32040539    0.00000000
                                                     2        0.2400000       -0.47500956    0.00000000
                                                     2        0.5000000        0.54013668    0.00000000
                                                     2        1.5000000       -1.40434292    0.00000000
                                                     2        3.0000000        1.46283806    0.00000000
                                      P - F
                                                     0        0.0000010        0.00612970    0.00000000
                                                     2        0.1200000        0.02254406    0.00000000
                                                     2        0.1800000       -0.13874529    0.00000000
                                                     2        0.3000000        0.38299049    0.00000000
                                                     2        0.5000000       -0.57923512    0.00000000
                                                     2        1.0000000        0.63021625    0.00000000
                                                     2        2.0000000       -0.79201034    0.00000000
                                      D - F
                                                     0        0.0000010       -0.00296226    0.00000000
                                                     2        0.1200000       -0.00547344    0.00000000
                                                     2        0.1400000        0.01837884    0.00000000
                                                     2        0.2400000       -0.05565704    0.00000000
                                                     2        0.4000000        0.15376597    0.00000000
                                                     2        0.8000000       -0.32464795    0.00000000
   14          1            1
                                      F and up 
                                                     0        0.0000010       -0.00000699    0.00000000
                                                     2        0.1200000        0.00123686    0.00000000
                                                     2        0.1800000       -0.00752022    0.00000000
                                                     2        0.2600000        0.02503380    0.00000000
                                                     2        0.4000000       -0.08702670    0.00000000
                                                     2        0.6000000        0.30134159    0.00000000
                                                     2        0.8000000       -0.50204959    0.00000000
                                                     2        1.2000000        0.52208372    0.00000000
                                      S - F
                                                     0        0.0000010       -0.01618346    0.00000000
                                                     2        0.1200000       -0.07880581    0.00000000
                                                     2        0.1600000        0.32040539    0.00000000
                                                     2        0.2400000       -0.47500956    0.00000000
                                                     2        0.5000000        0.54013668    0.00000000
                                                     2        1.5000000       -1.40434292    0.00000000
                                                     2        3.0000000        1.46283806    0.00000000
                                      P - F
                                                     0        0.0000010        0.00612970    0.00000000
                                                     2        0.1200000        0.02254406    0.00000000
                                                     2        0.1800000       -0.13874529    0.00000000
                                                     2        0.3000000        0.38299049    0.00000000
                                                     2        0.5000000       -0.57923512    0.00000000
                                                     2        1.0000000        0.63021625    0.00000000
                                                     2        2.0000000       -0.79201034    0.00000000
                                      D - F
                                                     0        0.0000010       -0.00296226    0.00000000
                                                     2        0.1200000       -0.00547344    0.00000000
                                                     2        0.1400000        0.01837884    0.00000000
                                                     2        0.2400000       -0.05565704    0.00000000
                                                     2        0.4000000        0.15376597    0.00000000
                                                     2        0.8000000       -0.32464795    0.00000000
   15          1            1
                                      F and up 
                                                     0        0.0000010       -0.00000699    0.00000000
                                                     2        0.1200000        0.00123686    0.00000000
                                                     2        0.1800000       -0.00752022    0.00000000
                                                     2        0.2600000        0.02503380    0.00000000
                                                     2        0.4000000       -0.08702670    0.00000000
                                                     2        0.6000000        0.30134159    0.00000000
                                                     2        0.8000000       -0.50204959    0.00000000
                                                     2        1.2000000        0.52208372    0.00000000
                                      S - F
                                                     0        0.0000010       -0.01618346    0.00000000
                                                     2        0.1200000       -0.07880581    0.00000000
                                                     2        0.1600000        0.32040539    0.00000000
                                                     2        0.2400000       -0.47500956    0.00000000
                                                     2        0.5000000        0.54013668    0.00000000
                                                     2        1.5000000       -1.40434292    0.00000000
                                                     2        3.0000000        1.46283806    0.00000000
                                      P - F
                                                     0        0.0000010        0.00612970    0.00000000
                                                     2        0.1200000        0.02254406    0.00000000
                                                     2        0.1800000       -0.13874529    0.00000000
                                                     2        0.3000000        0.38299049    0.00000000
                                                     2        0.5000000       -0.57923512    0.00000000
                                                     2        1.0000000        0.63021625    0.00000000
                                                     2        2.0000000       -0.79201034    0.00000000
                                      D - F
                                                     0        0.0000010       -0.00296226    0.00000000
                                                     2        0.1200000       -0.00547344    0.00000000
                                                     2        0.1400000        0.01837884    0.00000000
                                                     2        0.2400000       -0.05565704    0.00000000
                                                     2        0.4000000        0.15376597    0.00000000
                                                     2        0.8000000       -0.32464795    0.00000000
   16          1            1
                                      F and up 
                                                     0        0.0000010       -0.00000699    0.00000000
                                                     2        0.1200000        0.00123686    0.00000000
                                                     2        0.1800000       -0.00752022    0.00000000
                                                     2        0.2600000        0.02503380    0.00000000
                                                     2        0.4000000       -0.08702670    0.00000000
                                                     2        0.6000000        0.30134159    0.00000000
                                                     2        0.8000000       -0.50204959    0.00000000
                                                     2        1.2000000        0.52208372    0.00000000
                                      S - F
                                                     0        0.0000010       -0.01618346    0.00000000
                                                     2        0.1200000       -0.07880581    0.00000000
                                                     2        0.1600000        0.32040539    0.00000000
                                                     2        0.2400000       -0.47500956    0.00000000
                                                     2        0.5000000        0.54013668    0.00000000
                                                     2        1.5000000       -1.40434292    0.00000000
                                                     2        3.0000000        1.46283806    0.00000000
                                      P - F
                                                     0        0.0000010        0.00612970    0.00000000
                                                     2        0.1200000        0.02254406    0.00000000
                                                     2        0.1800000       -0.13874529    0.00000000
                                                     2        0.3000000        0.38299049    0.00000000
                                                     2        0.5000000       -0.57923512    0.00000000
                                                     2        1.0000000        0.63021625    0.00000000
                                                     2        2.0000000       -0.79201034    0.00000000
                                      D - F
                                                     0        0.0000010       -0.00296226    0.00000000
                                                     2        0.1200000       -0.00547344    0.00000000
                                                     2        0.1400000        0.01837884    0.00000000
                                                     2        0.2400000       -0.05565704    0.00000000
                                                     2        0.4000000        0.15376597    0.00000000
                                                     2        0.8000000       -0.32464795    0.00000000
 ======================================================================================================
   228 basis functions,   368 primitive gaussians,   240 cartesian basis functions
    25 alpha electrons       25 beta electrons
       nuclear repulsion energy       254.7597145177 Hartrees.
 NAtoms=   16 NActive=   16 NUniq=   16 SFac= 1.00D+00 NAtFMM=   60 NAOKFM=F Big=F
   1 Symmetry operations used in ECPInt.
 ECPInt:  NShTT=    5460 NPrTT=   22036 LenC2=    5458 LenP2D=   17971.
 LDataN:  DoStor=T MaxTD1= 6 Len=  172
 Initial guess from the checkpoint file:  "Grambow2020_b97d3_007103_reverse_mol1.chk"
 B after Tr=    -0.707517   -0.112613    0.162408
         Rot=    0.916349    0.312825    0.138294    0.208135 Ang=  47.20 deg.
 >>>>>>>>>> Convergence criterion not met.
 SCF Done:  E(RHF) =  -307.006234930     A.U. after    2 cycles
            NFock=  1  Conv=0.37D-02     -V/T= 1.9990

 **********************************************************************

            Population analysis using the SCF Density.

 **********************************************************************

 Orbital symmetries:
       Occupied  (A) (A) (A) (A) (A) (A) (A) (A) (A) (A) (A) (A)
                 (A) (A) (A) (A) (A) (A) (A) (A) (A) (A) (A) (A)
                 (A)
       Virtual   (A) (A) (A) (A) (A) (A) (A) (A) (A) (A) (A) (A)
                 (A) (A) (A) (A) (A) (A) (A) (A) (A) (A) (A) (A)
                 (A) (A) (A) (A) (A) (A) (A) (A) (A) (A) (A) (A)
                 (A) (A) (A) (A) (A) (A) (A) (A) (A) (A) (A) (A)
                 (A) (A) (A) (A) (A) (A) (A) (A) (A) (A) (A) (A)
                 (A) (A) (A) (A) (A) (A) (A) (A) (A) (A) (A) (A)
                 (A) (A) (A) (A) (A) (A) (A) (A) (A) (A) (A) (A)
                 (A) (A) (A) (A) (A) (A) (A) (A) (A) (A) (A) (A)
                 (A) (A) (A) (A) (A) (A) (A) (A) (A) (A) (A) (A)
                 (A) (A) (A) (A) (A) (A) (A) (A) (A) (A) (A) (A)
                 (A) (A) (A) (A) (A) (A) (A) (A) (A) (A) (A) (A)
                 (A) (A) (A) (A) (A) (A) (A) (A) (A) (A) (A) (A)
                 (A) (A) (A) (A) (A) (A) (A) (A) (A) (A) (A) (A)
                 (A) (A) (A) (A) (A) (A) (A) (A) (A) (A) (A) (A)
                 (A) (A) (A) (A) (A) (A) (A) (A) (A) (A) (A) (A)
                 (A) (A) (A) (A) (A) (A) (A) (A) (A) (A) (A) (A)
                 (A) (A) (A) (A) (A) (A) (A) (A) (A) (A) (A)
 The electronic state is 1-A.
 Alpha  occ. eigenvalues --  -20.57020 -20.50888 -11.34158 -11.33237 -11.24933
 Alpha  occ. eigenvalues --  -11.24197  -1.30553  -1.26653  -1.08129  -0.95043
 Alpha  occ. eigenvalues --   -0.86625  -0.79440  -0.71905  -0.68958  -0.63502
 Alpha  occ. eigenvalues --   -0.61644  -0.59506  -0.58801  -0.58053  -0.54058
 Alpha  occ. eigenvalues --   -0.53634  -0.51187  -0.49180  -0.41155  -0.33949
 Alpha virt. eigenvalues --    0.02723   0.03357   0.04106   0.04620   0.06159
 Alpha virt. eigenvalues --    0.06363   0.07050   0.07307   0.07653   0.08515
 Alpha virt. eigenvalues --    0.09811   0.12521   0.13832   0.14465   0.14747
 Alpha virt. eigenvalues --    0.15160   0.15292   0.16005   0.16091   0.16223
 Alpha virt. eigenvalues --    0.17801   0.18160   0.18719   0.19995   0.21207
 Alpha virt. eigenvalues --    0.22844   0.24189   0.25415   0.25631   0.27933
 Alpha virt. eigenvalues --    0.28354   0.29494   0.30247   0.30923   0.31557
 Alpha virt. eigenvalues --    0.32639   0.33779   0.35294   0.36401   0.36662
 Alpha virt. eigenvalues --    0.37483   0.38433   0.39641   0.39821   0.41393
 Alpha virt. eigenvalues --    0.42414   0.43963   0.44546   0.45387   0.45923
 Alpha virt. eigenvalues --    0.46356   0.47163   0.47837   0.49331   0.50261
 Alpha virt. eigenvalues --    0.50756   0.52506   0.54013   0.54634   0.55855
 Alpha virt. eigenvalues --    0.56865   0.57544   0.57867   0.59991   0.60493
 Alpha virt. eigenvalues --    0.60616   0.62206   0.63245   0.63741   0.64858
 Alpha virt. eigenvalues --    0.66043   0.67144   0.67981   0.69145   0.69777
 Alpha virt. eigenvalues --    0.70912   0.72522   0.72989   0.73379   0.74136
 Alpha virt. eigenvalues --    0.74441   0.76352   0.77085   0.78363   0.79520
 Alpha virt. eigenvalues --    0.80246   0.80762   0.82013   0.83966   0.84651
 Alpha virt. eigenvalues --    0.84807   0.87296   0.89907   0.90564   0.92092
 Alpha virt. eigenvalues --    0.94180   0.96847   0.97839   1.02151   1.03126
 Alpha virt. eigenvalues --    1.06535   1.08962   1.09721   1.11589   1.14665
 Alpha virt. eigenvalues --    1.16695   1.18698   1.20416   1.24138   1.27143
 Alpha virt. eigenvalues --    1.28270   1.28785   1.32122   1.32813   1.36371
 Alpha virt. eigenvalues --    1.37460   1.39751   1.41541   1.44155   1.46122
 Alpha virt. eigenvalues --    1.47820   1.50046   1.53762   1.55714   1.60644
 Alpha virt. eigenvalues --    1.62943   1.63736   1.65843   1.67683   1.69523
 Alpha virt. eigenvalues --    1.71285   1.74261   1.76404   1.78283   1.80966
 Alpha virt. eigenvalues --    1.82178   1.83993   1.88143   1.89543   1.91197
 Alpha virt. eigenvalues --    1.93551   1.95385   1.95811   1.99521   2.02185
 Alpha virt. eigenvalues --    2.03661   2.05594   2.08979   2.11891   2.12281
 Alpha virt. eigenvalues --    2.13533   2.16264   2.17361   2.21384   2.23192
 Alpha virt. eigenvalues --    2.24290   2.26945   2.29383   2.31159   2.34584
 Alpha virt. eigenvalues --    2.35063   2.35559   2.39039   2.40503   2.44268
 Alpha virt. eigenvalues --    2.45460   2.46465   2.48911   2.55287   2.56137
 Alpha virt. eigenvalues --    2.59089   2.63053   2.65519   2.67730   2.71343
 Alpha virt. eigenvalues --    2.74191   2.77056   2.78320   2.80659   2.86301
 Alpha virt. eigenvalues --    2.87476   2.88781   2.92261   2.98802   3.02521
 Alpha virt. eigenvalues --    3.05615   3.10545   3.14042   3.15957   3.25884
 Alpha virt. eigenvalues --    3.27518   3.44294   3.56570   3.65067   3.67366
 Alpha virt. eigenvalues --    3.71788   3.74425   3.78917   3.87056   3.92077
 Alpha virt. eigenvalues --    4.00283   4.13743   4.39653
          Condensed to atoms (all electrons):
 Mulliken charges:
               1
     1  C    0.531438
     2  C   -0.347078
     3  C    0.697395
     4  O   -0.620445
     5  C    0.830766
     6  O   -0.790006
     7  H   -0.069100
     8  H   -0.060561
     9  H   -0.081417
    10  H   -0.161180
    11  H   -0.198825
    12  H   -0.185095
    13  H    0.189150
    14  H   -0.185513
    15  H   -0.071026
    16  H    0.521496
 Sum of Mulliken charges =   0.00000
 Mulliken charges with hydrogens summed into heavy atoms:
               1
     1  C    0.320360
     2  C   -0.508258
     3  C    0.313475
     4  O    0.090201
     5  C    0.574228
     6  O   -0.790006
 Electronic spatial extent (au):  <R**2>=            705.2918
 Charge=             -0.0000 electrons
 Dipole moment (field-independent basis, Debye):
    X=             -4.4001    Y=             -2.1522    Z=              1.2624  Tot=              5.0584

 Test job not archived.
 1\1\GINC-SE037\SP\RHF\Aug-CC-pVDZ\C4H10O2\OHZDE\09-Apr-2025\0\\#t hf a
 ug-cc-pvdz iop(5/13=1,5/36=2,99/5=2) pseudo=read geom=check guess=(rea
 d,tcheck) scf=(maxcycle=1)\\title\\0,1\C,0,-1.50443312,-0.93251982,0.4
 8847615\C,0,-0.70243623,0.02894264,-0.38161837\C,0,0.29817375,-0.52390
 849,-1.2156081\O,0,2.21056375,0.06083958,-0.68944677\C,0,0.14185861,1.
 22465035,0.88636271\O,0,1.03127745,1.95956362,0.31672226\H,0,-2.259976
 54,-1.47333394,-0.10172287\H,0,-0.84904503,-1.68485793,0.95188308\H,0,
 -2.03324345,-0.40483478,1.29534316\H,0,-1.29790127,0.79712907,-0.88301
 633\H,0,0.51628942,-0.08386621,-2.18468973\H,0,0.57073398,-1.57607626,
 -1.1208805\H,0,2.35669537,-0.51278564,0.08732493\H,0,-0.78473523,1.714
 77896,1.23940276\H,0,0.45684219,0.40077433,1.5653729\H,0,1.84531736,0.
 99184852,-0.25173527\\Version=ES64L-G16RevC.01\State=1-A\HF=-307.00623
 49\RMSD=3.699e-03\Dipole=-1.0746582,-1.6739484,0.0596024\Quadrupole=-1
 .455139,-1.9089507,3.3640897,-3.816533,1.6988848,-0.0819433\PG=C01 [X(
 C4H10O2)]\\@


 "MATHEMATICS IS THE ART OF GIVING THE SAME NAME
 TO DIFFERENT THINGS."
                    - H. POINCARE
 Job cpu time:       0 days  0 hours  1 minutes  2.8 seconds.
 Elapsed time:       0 days  0 hours  0 minutes  4.8 seconds.
 File lengths (MBytes):  RWF=     10 Int=      0 D2E=      0 Chk=      7 Scr=      1
 Normal termination of Gaussian 16 at Wed Apr  9 14:18:29 2025.
