 Entering Gaussian System, Link 0=g16
 Input=Grambow2020_wb97xd3_007741_forward_mol1.gjf
 Output=Grambow2020_wb97xd3_007741_forward_mol1.log
 Initial command:
 /arc/software/Gaussian/g16.c01/l1.exe "/tmp/slurm/4877187/Gau-2375659.inp" -scrdir="/tmp/slurm/4877187/"
 Entering Link 1 = /arc/software/Gaussian/g16.c01/l1.exe PID=   2375660.
  
 Copyright (c) 1988-2019, Gaussian, Inc.  All Rights Reserved.
  
 This is part of the Gaussian(R) 16 program.  It is based on
 the Gaussian(R) 09 system (copyright 2009, Gaussian, Inc.),
 the Gaussian(R) 03 system (copyright 2003, Gaussian, Inc.),
 the Gaussian(R) 98 system (copyright 1998, Gaussian, Inc.),
 the Gaussian(R) 94 system (copyright 1995, Gaussian, Inc.),
 the Gaussian 92(TM) system (copyright 1992, Gaussian, Inc.),
 the Gaussian 90(TM) system (copyright 1990, Gaussian, Inc.),
 the Gaussian 88(TM) system (copyright 1988, Gaussian, Inc.),
 the Gaussian 86(TM) system (copyright 1986, Carnegie Mellon
 University), and the Gaussian 82(TM) system (copyright 1983,
 Carnegie Mellon University). Gaussian is a federally registered
 trademark of Gaussian, Inc.
  
 This software contains proprietary and confidential information,
 including trade secrets, belonging to Gaussian, Inc.
  
 This software is provided under written license and may be
 used, copied, transmitted, or stored only in accord with that
 written license.
  
 The following legend is applicable only to US Government
 contracts under FAR:
  
                    RESTRICTED RIGHTS LEGEND
  
 Use, reproduction and disclosure by the US Government is
 subject to restrictions as set forth in subparagraphs (a)
 and (c) of the Commercial Computer Software - Restricted
 Rights clause in FAR 52.227-19.
  
 Gaussian, Inc.
 340 Quinnipiac St., Bldg. 40, Wallingford CT 06492
  
  
 ---------------------------------------------------------------
 Warning -- This program may not be used in any manner that
 competes with the business of Gaussian, Inc. or will provide
 assistance to any competitor of Gaussian, Inc.  The licensee
 of this program is prohibited from giving any competitor of
 Gaussian, Inc. access to this program.  By using this program,
 the user acknowledges that Gaussian, Inc. is engaged in the
 business of creating and licensing software in the field of
 computational chemistry and represents and warrants to the
 licensee that it is not a competitor of Gaussian, Inc. and that
 it will not use this program in any manner prohibited above.
 ---------------------------------------------------------------
  

 Cite this work as:
 Gaussian 16, Revision C.01,
 M. J. Frisch, G. W. Trucks, H. B. Schlegel, G. E. Scuseria, 
 M. A. Robb, J. R. Cheeseman, G. Scalmani, V. Barone, 
 G. A. Petersson, H. Nakatsuji, X. Li, M. Caricato, A. V. Marenich, 
 J. Bloino, B. G. Janesko, R. Gomperts, B. Mennucci, H. P. Hratchian, 
 J. V. Ortiz, A. F. Izmaylov, J. L. Sonnenberg, D. Williams-Young, 
 F. Ding, F. Lipparini, F. Egidi, J. Goings, B. Peng, A. Petrone, 
 T. Henderson, D. Ranasinghe, V. G. Zakrzewski, J. Gao, N. Rega, 
 G. Zheng, W. Liang, M. Hada, M. Ehara, K. Toyota, R. Fukuda, 
 J. Hasegawa, M. Ishida, T. Nakajima, Y. Honda, O. Kitao, H. Nakai, 
 T. Vreven, K. Throssell, J. A. Montgomery, Jr., J. E. Peralta, 
 F. Ogliaro, M. J. Bearpark, J. J. Heyd, E. N. Brothers, K. N. Kudin, 
 V. N. Staroverov, T. A. Keith, R. Kobayashi, J. Normand, 
 K. Raghavachari, A. P. Rendell, J. C. Burant, S. S. Iyengar, 
 J. Tomasi, M. Cossi, J. M. Millam, M. Klene, C. Adamo, R. Cammi, 
 J. W. Ochterski, R. L. Martin, K. Morokuma, O. Farkas, 
 J. B. Foresman, and D. J. Fox, Gaussian, Inc., Wallingford CT, 2019.
 
 ******************************************
 Gaussian 16:  ES64L-G16RevC.01  3-Jul-2019
                 9-Apr-2025 
 ******************************************
 %nprocs=16
 Will use up to   16 processors via shared memory.
 %mem=30GB
 %chk=Grambow2020_wb97xd3_007741_forward_mol1.chk
 ----------------------------------------------------------------------
 #t hf aug-cc-pvdz symm=none int=(grid=ultrafine) guess=(read,tcheck) s
 table=(opt,rrhf)
 ----------------------------------------------------------------------
 -----
 title
 -----
 Symbolic Z-matrix:
 Charge =  0 Multiplicity = 1
 C                     2.0966    0.20836   0.27465 
 C                     0.649    -0.06779  -0.0254 
 C                     0.05097  -1.38307   0.08668 
 C                    -1.4052   -1.13898   0.3098 
 C                    -1.68391   0.22411  -0.33676 
 C                    -0.40163   0.9412   -0.04051 
 O                    -0.25487   2.20471  -0.52555 
 H                     2.23669   0.28232   1.35358 
 H                     2.44804   1.13613  -0.18142 
 H                     2.7214   -0.60518  -0.09422 
 H                     0.58419  -2.22032   0.51793 
 H                    -1.53043  -0.97102   1.40322 
 H                    -2.08993  -1.93069   0.00788 
 H                    -1.81918   0.13463  -1.43229 
 H                    -2.56693   0.71963   0.0629 
 H                     0.44824  -0.1734   -1.14571 
 H                     0.51748   2.61199  -0.12754 
 
                    Distance matrix (angstroms):
                    1          2          3          4          5
     1  C    0.000000
     2  C    1.503939   0.000000
     3  C    2.598580   1.449203   0.000000
     4  C    3.752222   2.340845   1.493247   0.000000
     5  C    3.829669   2.371632   2.402532   1.534191   0.000000
     6  C    2.622508   1.456746   2.371342   2.336023   1.498740
     7  O    3.186717   2.496276   3.652477   3.633368   2.449611
     8  H    1.090495   2.131878   3.025883   4.046348   4.269867
     9  H    1.091908   2.170322   3.487724   4.501653   4.234259
    10  H    1.090082   2.142047   2.787305   4.180552   4.489247
    11  H    2.871421   2.220992   1.082258   2.273825   3.442387
    12  H    3.977430   2.758023   2.098543   1.113310   2.116466
    13  H    4.708902   3.312592   2.211229   1.089415   2.219642
    14  H    4.272290   2.848203   2.847484   2.197351   1.107469
    15  H    4.696255   3.312109   3.357879   2.205680   1.088574
    16  H    2.209133   1.143050   1.771980   2.546781   2.314843
    17  H    2.903936   2.684947   4.027912   4.237657   3.254513
                    6          7          8          9         10
     6  C    0.000000
     7  O    1.361352   0.000000
     8  H    3.055869   3.665320   0.000000
     9  H    2.859807   2.926778   1.769144   0.000000
    10  H    3.485325   4.115787   1.765988   1.764783   0.000000
    11  H    3.358405   4.623180   3.113244   3.902406   2.747925
    12  H    2.648603   3.928420   3.970455   4.772774   4.522634
    13  H    3.331733   4.555611   5.042618   5.480365   4.991625
    14  H    2.144076   2.748546   4.922701   4.558166   4.791102
    15  H    2.179064   2.810230   4.993187   5.038170   5.454017
    16  H    1.784965   2.556250   3.106877   2.577582   2.541519
    17  H    1.908897   0.959583   3.252194   2.430671   3.899815
                   11         12         13         14         15
    11  H    0.000000
    12  H    2.610766   0.000000
    13  H    2.737690   1.783539   0.000000
    14  H    3.889133   3.057116   2.532380   0.000000
    15  H    4.333583   2.393555   2.693470   1.771140   0.000000
    16  H    2.641220   3.323909   3.295623   2.306129   3.368907
    17  H    4.875686   4.401716   5.239550   3.646869   3.623657
                   16         17
    16  H    0.000000
    17  H    2.966461   0.000000
 Symmetry turned off by external request.
 Rotational constants (GHZ):           3.3755407           2.9664962           1.6674693
   251 basis functions,   411 primitive gaussians,   265 cartesian basis functions
    27 alpha electrons       27 beta electrons
       nuclear repulsion energy       309.9639856110 Hartrees.
 NAtoms=   17 NActive=   17 NUniq=   17 SFac= 1.00D+00 NAtFMM=   60 NAOKFM=F Big=F
 ExpMin= 2.97D-02 ExpMax= 1.17D+04 ExpMxC= 4.01D+02 IAcc=3 IRadAn=         5 AccDes= 0.00D+00
 Harris functional with IExCor=  205 and IRadAn=       5 diagonalized for initial guess.
 HarFok:  IExCor=  205 AccDes= 0.00D+00 IRadAn=         5 IDoV= 1 UseB2=F ITyADJ=14
 ICtDFT=  3500011 ScaDFX=  1.000000  1.000000  1.000000  1.000000
 FoFCou: FMM=F IPFlag=           0 FMFlag=      100000 FMFlg1=           0
         NFxFlg=           0 DoJE=T BraDBF=F KetDBF=T FulRan=T
         wScrn=  0.000000 ICntrl=       500 IOpCl=  0 I1Cent=   200000004 NGrid=           0
         NMat0=    1 NMatS0=      1 NMatT0=    0 NMatD0=    1 NMtDS0=    0 NMtDT0=    0
 Symmetry not used in FoFCou.
 SCF Done:  E(RHF) =  -307.734143178     A.U. after   17 cycles
            NFock= 17  Conv=0.72D-08     -V/T= 2.0007

 **********************************************************************

            Population analysis using the SCF Density.

 **********************************************************************

 Alpha  occ. eigenvalues --  -20.60945 -11.31419 -11.26558 -11.24583 -11.23507
 Alpha  occ. eigenvalues --  -11.22832 -11.21268  -1.41682  -1.16432  -1.03531
 Alpha  occ. eigenvalues --   -0.94627  -0.92267  -0.78368  -0.77335  -0.68440
 Alpha  occ. eigenvalues --   -0.65908  -0.64016  -0.59627  -0.58658  -0.56381
 Alpha  occ. eigenvalues --   -0.55072  -0.53023  -0.49730  -0.49241  -0.47549
 Alpha  occ. eigenvalues --   -0.46154  -0.20594
 Alpha virt. eigenvalues --    0.02929   0.04397   0.04537   0.04884   0.05723
 Alpha virt. eigenvalues --    0.06209   0.06567   0.06773   0.08157   0.08479
 Alpha virt. eigenvalues --    0.09379   0.11348   0.12294   0.13498   0.13878
 Alpha virt. eigenvalues --    0.14565   0.14825   0.15890   0.16348   0.17078
 Alpha virt. eigenvalues --    0.17222   0.17505   0.18188   0.19045   0.19443
 Alpha virt. eigenvalues --    0.19803   0.20008   0.20532   0.20976   0.21615
 Alpha virt. eigenvalues --    0.23088   0.24800   0.26293   0.26885   0.27567
 Alpha virt. eigenvalues --    0.28971   0.30231   0.30584   0.31790   0.32985
 Alpha virt. eigenvalues --    0.33706   0.35177   0.35912   0.37160   0.37566
 Alpha virt. eigenvalues --    0.39024   0.39272   0.39957   0.40892   0.41701
 Alpha virt. eigenvalues --    0.43560   0.44012   0.44570   0.45276   0.46432
 Alpha virt. eigenvalues --    0.46724   0.47385   0.48202   0.48739   0.49135
 Alpha virt. eigenvalues --    0.49907   0.50973   0.51811   0.52817   0.53524
 Alpha virt. eigenvalues --    0.54315   0.55249   0.55714   0.55924   0.57447
 Alpha virt. eigenvalues --    0.58024   0.59574   0.60242   0.61307   0.62283
 Alpha virt. eigenvalues --    0.63175   0.63494   0.64552   0.65242   0.66100
 Alpha virt. eigenvalues --    0.66740   0.68492   0.69522   0.70376   0.71752
 Alpha virt. eigenvalues --    0.72150   0.72661   0.74197   0.74867   0.75407
 Alpha virt. eigenvalues --    0.75896   0.78050   0.79253   0.80753   0.81068
 Alpha virt. eigenvalues --    0.81467   0.82282   0.83541   0.84427   0.85816
 Alpha virt. eigenvalues --    0.86925   0.87520   0.88079   0.89760   0.92326
 Alpha virt. eigenvalues --    0.93166   0.93777   0.94496   0.96132   0.96871
 Alpha virt. eigenvalues --    0.99468   1.00560   1.03134   1.05700   1.06644
 Alpha virt. eigenvalues --    1.10062   1.10176   1.13569   1.13999   1.16398
 Alpha virt. eigenvalues --    1.18008   1.18642   1.20385   1.21694   1.24077
 Alpha virt. eigenvalues --    1.25837   1.28124   1.29790   1.31971   1.35031
 Alpha virt. eigenvalues --    1.37468   1.40005   1.41907   1.44395   1.47159
 Alpha virt. eigenvalues --    1.51000   1.51820   1.54167   1.56006   1.58452
 Alpha virt. eigenvalues --    1.59253   1.59613   1.62344   1.67139   1.68977
 Alpha virt. eigenvalues --    1.69643   1.72785   1.75533   1.77257   1.78468
 Alpha virt. eigenvalues --    1.79788   1.80176   1.84211   1.85797   1.88457
 Alpha virt. eigenvalues --    1.90072   1.91423   1.92532   1.95702   1.99121
 Alpha virt. eigenvalues --    1.99979   2.02280   2.04343   2.05438   2.07421
 Alpha virt. eigenvalues --    2.09745   2.11510   2.13838   2.16283   2.18203
 Alpha virt. eigenvalues --    2.20096   2.21683   2.23129   2.25917   2.26847
 Alpha virt. eigenvalues --    2.28669   2.30650   2.32641   2.32843   2.33524
 Alpha virt. eigenvalues --    2.35255   2.36302   2.38894   2.42712   2.46460
 Alpha virt. eigenvalues --    2.48200   2.49755   2.50336   2.53711   2.55733
 Alpha virt. eigenvalues --    2.57579   2.59887   2.62768   2.66046   2.68203
 Alpha virt. eigenvalues --    2.71604   2.74127   2.74679   2.76655   2.80930
 Alpha virt. eigenvalues --    2.81526   2.84033   2.91185   2.92011   2.94589
 Alpha virt. eigenvalues --    2.96278   2.99372   3.02375   3.06146   3.08279
 Alpha virt. eigenvalues --    3.10643   3.14202   3.15752   3.26107   3.31624
 Alpha virt. eigenvalues --    3.38097   3.43204   3.58468   3.77756   3.80019
 Alpha virt. eigenvalues --    3.84397   4.01433   4.24942   4.45243
          Condensed to atoms (all electrons):
 Mulliken charges:
               1
     1  C    0.790540
     2  C   -0.314236
     3  C   -0.088298
     4  C    0.174445
     5  C    0.444432
     6  C   -0.178676
     7  O   -0.768102
     8  H    0.040640
     9  H   -0.027408
    10  H    0.001882
    11  H   -0.452007
    12  H    0.012595
    13  H   -0.147366
    14  H   -0.038481
    15  H   -0.118241
    16  H    0.513713
    17  H    0.154570
 Sum of Mulliken charges =  -0.00000
 Mulliken charges with hydrogens summed into heavy atoms:
               1
     1  C    0.805654
     2  C    0.199477
     3  C   -0.540305
     4  C    0.039674
     5  C    0.287710
     6  C   -0.178676
     7  O   -0.613533
 Electronic spatial extent (au):  <R**2>=            776.8273
 Charge=             -0.0000 electrons
 Dipole moment (field-independent basis, Debye):
    X=              1.5501    Y=              1.2175    Z=              0.6997  Tot=              2.0916
 NROrb=    251 NOA=    27 NOB=    27 NVA=   224 NVB=   224

 **** Warning!!: The largest alpha MO coefficient is  0.63633171D+02

    12 initial guesses have been made.
 Iteration     1 Dimension    12 NMult     0 NNew     12
 New state      1 was old state      2
 Iteration     2 Dimension    24 NMult    12 NNew     12
 Iteration     3 Dimension    27 NMult    24 NNew      3
 Iteration     4 Dimension    30 NMult    27 NNew      3
 Iteration     5 Dimension    33 NMult    30 NNew      3
 Iteration     6 Dimension    36 NMult    33 NNew      3
 ***********************************************************************
 Stability analysis using <AA,BB:AA,BB> singles matrix:
 ***********************************************************************
 Ground to excited state transition densities written to RWF  633

 Eigenvectors of the stability matrix:
 
 Excited state symmetry could not be determined.
 Eigenvector   1:      Singlet-?Sym  Eigenvalue= 0.0858048  <S**2>=0.000
      27 -> 28         0.36578
      27 -> 32         0.44910
      27 -> 35        -0.16747
      27 -> 36         0.22992
 The wavefunction is stable under the perturbations considered.
 The wavefunction is already stable.

 **********************************************************************

            Population analysis using the SCF Density.

 **********************************************************************

 Alpha  occ. eigenvalues --  -20.60945 -11.31419 -11.26558 -11.24583 -11.23507
 Alpha  occ. eigenvalues --  -11.22832 -11.21268  -1.41682  -1.16432  -1.03531
 Alpha  occ. eigenvalues --   -0.94627  -0.92267  -0.78368  -0.77335  -0.68440
 Alpha  occ. eigenvalues --   -0.65908  -0.64016  -0.59627  -0.58658  -0.56381
 Alpha  occ. eigenvalues --   -0.55072  -0.53023  -0.49730  -0.49241  -0.47549
 Alpha  occ. eigenvalues --   -0.46154  -0.20594
 Alpha virt. eigenvalues --    0.02929   0.04397   0.04537   0.04884   0.05723
 Alpha virt. eigenvalues --    0.06209   0.06567   0.06773   0.08157   0.08479
 Alpha virt. eigenvalues --    0.09379   0.11348   0.12294   0.13498   0.13878
 Alpha virt. eigenvalues --    0.14565   0.14825   0.15890   0.16348   0.17078
 Alpha virt. eigenvalues --    0.17222   0.17505   0.18188   0.19045   0.19443
 Alpha virt. eigenvalues --    0.19803   0.20008   0.20532   0.20976   0.21615
 Alpha virt. eigenvalues --    0.23088   0.24800   0.26293   0.26885   0.27567
 Alpha virt. eigenvalues --    0.28971   0.30231   0.30584   0.31790   0.32985
 Alpha virt. eigenvalues --    0.33706   0.35177   0.35912   0.37160   0.37566
 Alpha virt. eigenvalues --    0.39024   0.39272   0.39957   0.40892   0.41701
 Alpha virt. eigenvalues --    0.43560   0.44012   0.44570   0.45276   0.46432
 Alpha virt. eigenvalues --    0.46724   0.47385   0.48202   0.48739   0.49135
 Alpha virt. eigenvalues --    0.49907   0.50973   0.51811   0.52817   0.53524
 Alpha virt. eigenvalues --    0.54315   0.55249   0.55714   0.55924   0.57447
 Alpha virt. eigenvalues --    0.58024   0.59574   0.60242   0.61307   0.62283
 Alpha virt. eigenvalues --    0.63175   0.63494   0.64552   0.65242   0.66100
 Alpha virt. eigenvalues --    0.66740   0.68492   0.69522   0.70376   0.71752
 Alpha virt. eigenvalues --    0.72150   0.72661   0.74197   0.74867   0.75407
 Alpha virt. eigenvalues --    0.75896   0.78050   0.79253   0.80753   0.81068
 Alpha virt. eigenvalues --    0.81467   0.82282   0.83541   0.84427   0.85816
 Alpha virt. eigenvalues --    0.86925   0.87520   0.88079   0.89760   0.92326
 Alpha virt. eigenvalues --    0.93166   0.93777   0.94496   0.96132   0.96871
 Alpha virt. eigenvalues --    0.99468   1.00560   1.03134   1.05700   1.06644
 Alpha virt. eigenvalues --    1.10062   1.10176   1.13569   1.13999   1.16398
 Alpha virt. eigenvalues --    1.18008   1.18642   1.20385   1.21694   1.24077
 Alpha virt. eigenvalues --    1.25837   1.28124   1.29790   1.31971   1.35031
 Alpha virt. eigenvalues --    1.37468   1.40005   1.41907   1.44395   1.47159
 Alpha virt. eigenvalues --    1.51000   1.51820   1.54167   1.56006   1.58452
 Alpha virt. eigenvalues --    1.59253   1.59613   1.62344   1.67139   1.68977
 Alpha virt. eigenvalues --    1.69643   1.72785   1.75533   1.77257   1.78468
 Alpha virt. eigenvalues --    1.79788   1.80176   1.84211   1.85797   1.88457
 Alpha virt. eigenvalues --    1.90072   1.91423   1.92532   1.95702   1.99121
 Alpha virt. eigenvalues --    1.99979   2.02280   2.04343   2.05438   2.07421
 Alpha virt. eigenvalues --    2.09745   2.11510   2.13838   2.16283   2.18203
 Alpha virt. eigenvalues --    2.20096   2.21683   2.23129   2.25917   2.26847
 Alpha virt. eigenvalues --    2.28669   2.30650   2.32641   2.32843   2.33524
 Alpha virt. eigenvalues --    2.35255   2.36302   2.38894   2.42712   2.46460
 Alpha virt. eigenvalues --    2.48200   2.49755   2.50336   2.53711   2.55733
 Alpha virt. eigenvalues --    2.57579   2.59887   2.62768   2.66046   2.68203
 Alpha virt. eigenvalues --    2.71604   2.74127   2.74679   2.76655   2.80930
 Alpha virt. eigenvalues --    2.81526   2.84033   2.91185   2.92011   2.94589
 Alpha virt. eigenvalues --    2.96278   2.99372   3.02375   3.06146   3.08279
 Alpha virt. eigenvalues --    3.10643   3.14202   3.15752   3.26107   3.31624
 Alpha virt. eigenvalues --    3.38097   3.43204   3.58468   3.77756   3.80019
 Alpha virt. eigenvalues --    3.84397   4.01433   4.24942   4.45243
          Condensed to atoms (all electrons):
 Mulliken charges:
               1
     1  C    0.790540
     2  C   -0.314236
     3  C   -0.088298
     4  C    0.174445
     5  C    0.444432
     6  C   -0.178676
     7  O   -0.768102
     8  H    0.040640
     9  H   -0.027408
    10  H    0.001882
    11  H   -0.452007
    12  H    0.012595
    13  H   -0.147366
    14  H   -0.038481
    15  H   -0.118241
    16  H    0.513713
    17  H    0.154570
 Sum of Mulliken charges =  -0.00000
 Mulliken charges with hydrogens summed into heavy atoms:
               1
     1  C    0.805654
     2  C    0.199477
     3  C   -0.540305
     4  C    0.039674
     5  C    0.287710
     6  C   -0.178676
     7  O   -0.613533
 Electronic spatial extent (au):  <R**2>=            776.8273
 Charge=             -0.0000 electrons
 Dipole moment (field-independent basis, Debye):
    X=              1.5501    Y=              1.2175    Z=              0.6997  Tot=              2.0916
 Unable to Open any file for archive entry.
 1\1\GINC-SE043\Stability\RHF\Aug-CC-pVDZ\C6H10O1\OHZDE\09-Apr-2025\0\\
 #t hf aug-cc-pvdz symm=none int=(grid=ultrafine) guess=(read,tcheck) s
 table=(opt,rrhf)\\title\\0,1\C,0,2.09660425,0.20835889,0.27464946\C,0,
 0.64900331,-0.06778626,-0.02539699\C,0,0.05096897,-1.38307417,0.086679
 8\C,0,-1.40519751,-1.13897893,0.3098032\C,0,-1.68391102,0.22411331,-0.
 33675821\C,0,-0.40162987,0.9411983,-0.04050567\O,0,-0.25486594,2.20471
 499,-0.52554724\H,0,2.23669409,0.28232251,1.35357601\H,0,2.44804438,1.
 13612571,-0.18142342\H,0,2.72140277,-0.60517596,-0.09422172\H,0,0.5841
 9063,-2.22031936,0.5179299\H,0,-1.53042519,-0.97101732,1.40322276\H,0,
 -2.08992746,-1.93069259,0.00787681\H,0,-1.81918374,0.13463377,-1.43228
 674\H,0,-2.56693273,0.71963208,0.06290075\H,0,0.44824167,-0.1734043,-1
 .14571116\H,0,0.51747937,2.61199134,-0.12754153\\Version=ES64L-G16RevC
 .01\HF=-307.7341432\RMSD=7.156e-09\Dipole=0.6098589,0.4789851,0.275297
 4\Quadrupole=2.9209204,-1.3125349,-1.6083855,2.9053724,0.1491138,-0.16
 51226\PG=Unknown\\@
 The archive entry for this job was punched.


 THE VALUE OF PHILOSOPHY IS, IN FACT, TO BE SOUGHT LARGELY IN ITS
 VERY UNCERTAINTY.  THE MAN WHO HAS NO TINCTURE OF PHILOSOPHY GOES
 THROUGH LIFE IMPRISONED IN THE PREJUDICES DERIVED FROM COMMON SENSE,
 FROM THE HABITUAL BELIEFS OF HIS AGE OR HIS NATION, AND FROM
 CONVICTIONS WHICH HAVE GROWN UP IN HIS MIND WITHOUT THE CO-OPERATION
 OR CONSENT OF HIS DELIBERATE REASON.  TO SUCH A MAN THE WORLD TENDS
 TO BE DEFINITE, FINITE, OBVIOUS; COMMON OBJECTS ROUSE NO QUESTIONS,
 AND UNFAMILIAR POSSIBILITIES ARE CONTEMPTUOUSLY REJECTED.

                             -- BERTRAND RUSSELL
 Job cpu time:       0 days  0 hours 11 minutes 51.3 seconds.
 Elapsed time:       0 days  0 hours  0 minutes 58.5 seconds.
 File lengths (MBytes):  RWF=    265 Int=      0 D2E=      0 Chk=      9 Scr=      1
 Normal termination of Gaussian 16 at Wed Apr  9 16:05:28 2025.
 Initial command:
 /arc/software/Gaussian/g16.c01/l1.exe "/tmp/slurm/4877187/Gau-2375659.inp" -scrdir="/tmp/slurm/4877187/"
 Entering Link 1 = /arc/software/Gaussian/g16.c01/l1.exe PID=   2376194.
  
 Copyright (c) 1988-2019, Gaussian, Inc.  All Rights Reserved.
  
 This is part of the Gaussian(R) 16 program.  It is based on
 the Gaussian(R) 09 system (copyright 2009, Gaussian, Inc.),
 the Gaussian(R) 03 system (copyright 2003, Gaussian, Inc.),
 the Gaussian(R) 98 system (copyright 1998, Gaussian, Inc.),
 the Gaussian(R) 94 system (copyright 1995, Gaussian, Inc.),
 the Gaussian 92(TM) system (copyright 1992, Gaussian, Inc.),
 the Gaussian 90(TM) system (copyright 1990, Gaussian, Inc.),
 the Gaussian 88(TM) system (copyright 1988, Gaussian, Inc.),
 the Gaussian 86(TM) system (copyright 1986, Carnegie Mellon
 University), and the Gaussian 82(TM) system (copyright 1983,
 Carnegie Mellon University). Gaussian is a federally registered
 trademark of Gaussian, Inc.
  
 This software contains proprietary and confidential information,
 including trade secrets, belonging to Gaussian, Inc.
  
 This software is provided under written license and may be
 used, copied, transmitted, or stored only in accord with that
 written license.
  
 The following legend is applicable only to US Government
 contracts under FAR:
  
                    RESTRICTED RIGHTS LEGEND
  
 Use, reproduction and disclosure by the US Government is
 subject to restrictions as set forth in subparagraphs (a)
 and (c) of the Commercial Computer Software - Restricted
 Rights clause in FAR 52.227-19.
  
 Gaussian, Inc.
 340 Quinnipiac St., Bldg. 40, Wallingford CT 06492
  
  
 ---------------------------------------------------------------
 Warning -- This program may not be used in any manner that
 competes with the business of Gaussian, Inc. or will provide
 assistance to any competitor of Gaussian, Inc.  The licensee
 of this program is prohibited from giving any competitor of
 Gaussian, Inc. access to this program.  By using this program,
 the user acknowledges that Gaussian, Inc. is engaged in the
 business of creating and licensing software in the field of
 computational chemistry and represents and warrants to the
 licensee that it is not a competitor of Gaussian, Inc. and that
 it will not use this program in any manner prohibited above.
 ---------------------------------------------------------------
  

 Cite this work as:
 Gaussian 16, Revision C.01,
 M. J. Frisch, G. W. Trucks, H. B. Schlegel, G. E. Scuseria, 
 M. A. Robb, J. R. Cheeseman, G. Scalmani, V. Barone, 
 G. A. Petersson, H. Nakatsuji, X. Li, M. Caricato, A. V. Marenich, 
 J. Bloino, B. G. Janesko, R. Gomperts, B. Mennucci, H. P. Hratchian, 
 J. V. Ortiz, A. F. Izmaylov, J. L. Sonnenberg, D. Williams-Young, 
 F. Ding, F. Lipparini, F. Egidi, J. Goings, B. Peng, A. Petrone, 
 T. Henderson, D. Ranasinghe, V. G. Zakrzewski, J. Gao, N. Rega, 
 G. Zheng, W. Liang, M. Hada, M. Ehara, K. Toyota, R. Fukuda, 
 J. Hasegawa, M. Ishida, T. Nakajima, Y. Honda, O. Kitao, H. Nakai, 
 T. Vreven, K. Throssell, J. A. Montgomery, Jr., J. E. Peralta, 
 F. Ogliaro, M. J. Bearpark, J. J. Heyd, E. N. Brothers, K. N. Kudin, 
 V. N. Staroverov, T. A. Keith, R. Kobayashi, J. Normand, 
 K. Raghavachari, A. P. Rendell, J. C. Burant, S. S. Iyengar, 
 J. Tomasi, M. Cossi, J. M. Millam, M. Klene, C. Adamo, R. Cammi, 
 J. W. Ochterski, R. L. Martin, K. Morokuma, O. Farkas, 
 J. B. Foresman, and D. J. Fox, Gaussian, Inc., Wallingford CT, 2019.
 
 ******************************************
 Gaussian 16:  ES64L-G16RevC.01  3-Jul-2019
                 9-Apr-2025 
 ******************************************
 %nprocs=16
 Will use up to   16 processors via shared memory.
 %mem=30GB
 %chk=Grambow2020_wb97xd3_007741_forward_mol1.chk
 ----------------------------------------------------------------------
 #t hf aug-cc-pvdz iop(5/13=1,5/36=2,99/5=2) pseudo=read geom=check gue
 ss=(read,tcheck) scf=(maxcycle=1)
 ----------------------------------------------------------------------
 -----
 title
 -----
 Structure from the checkpoint file:  "Grambow2020_wb97xd3_007741_forward_mol1.chk"
 Charge =  0 Multiplicity = 1
 Z-Matrix found in chk file.
 C,0,2.09660425,0.20835889,0.27464946
 C,0,0.64900331,-0.06778626,-0.02539699
 C,0,0.05096897,-1.38307417,0.0866798
 C,0,-1.40519751,-1.13897893,0.3098032
 C,0,-1.68391102,0.22411331,-0.33675821
 C,0,-0.40162987,0.9411983,-0.04050567
 O,0,-0.25486594,2.20471499,-0.52554724
 H,0,2.23669409,0.28232251,1.35357601
 H,0,2.44804438,1.13612571,-0.18142342
 H,0,2.72140277,-0.60517596,-0.09422172
 H,0,0.58419063,-2.22031936,0.5179299
 H,0,-1.53042519,-0.97101732,1.40322276
 H,0,-2.08992746,-1.93069259,0.00787681
 H,0,-1.81918374,0.13463377,-1.43228674
 H,0,-2.56693273,0.71963208,0.06290075
 H,0,0.44824167,-0.1734043,-1.14571116
 H,0,0.51747937,2.61199134,-0.12754153
 Recover connectivity data from disk.
                    Distance matrix (angstroms):
                    1          2          3          4          5
     1  C    0.000000
     2  C    1.503939   0.000000
     3  C    2.598580   1.449203   0.000000
     4  C    3.752222   2.340845   1.493247   0.000000
     5  C    3.829669   2.371632   2.402532   1.534191   0.000000
     6  C    2.622508   1.456746   2.371342   2.336023   1.498740
     7  O    3.186717   2.496276   3.652477   3.633368   2.449611
     8  H    1.090495   2.131878   3.025883   4.046348   4.269867
     9  H    1.091908   2.170322   3.487724   4.501653   4.234259
    10  H    1.090082   2.142047   2.787305   4.180552   4.489247
    11  H    2.871421   2.220992   1.082258   2.273825   3.442387
    12  H    3.977430   2.758023   2.098543   1.113310   2.116466
    13  H    4.708902   3.312592   2.211229   1.089415   2.219642
    14  H    4.272290   2.848203   2.847484   2.197351   1.107469
    15  H    4.696255   3.312109   3.357879   2.205680   1.088574
    16  H    2.209133   1.143050   1.771980   2.546781   2.314843
    17  H    2.903936   2.684947   4.027912   4.237657   3.254513
                    6          7          8          9         10
     6  C    0.000000
     7  O    1.361352   0.000000
     8  H    3.055869   3.665320   0.000000
     9  H    2.859807   2.926778   1.769144   0.000000
    10  H    3.485325   4.115787   1.765988   1.764783   0.000000
    11  H    3.358405   4.623180   3.113244   3.902406   2.747925
    12  H    2.648603   3.928420   3.970455   4.772774   4.522634
    13  H    3.331733   4.555611   5.042618   5.480365   4.991625
    14  H    2.144076   2.748546   4.922701   4.558166   4.791102
    15  H    2.179064   2.810230   4.993187   5.038170   5.454017
    16  H    1.784965   2.556250   3.106877   2.577582   2.541519
    17  H    1.908897   0.959583   3.252194   2.430671   3.899815
                   11         12         13         14         15
    11  H    0.000000
    12  H    2.610766   0.000000
    13  H    2.737690   1.783539   0.000000
    14  H    3.889133   3.057116   2.532380   0.000000
    15  H    4.333583   2.393555   2.693470   1.771140   0.000000
    16  H    2.641220   3.323909   3.295623   2.306129   3.368907
    17  H    4.875686   4.401716   5.239550   3.646869   3.623657
                   16         17
    16  H    0.000000
    17  H    2.966461   0.000000
 Framework group  C1[X(C6H10O)]
 Deg. of freedom    45
                         Standard orientation:                         
 ---------------------------------------------------------------------
 Center     Atomic      Atomic             Coordinates (Angstroms)
 Number     Number       Type             X           Y           Z
 ---------------------------------------------------------------------
      1          6           0        1.991155   -0.970541    0.087550
      2          6           0        0.566854   -0.530432   -0.111209
      3          6           0       -0.544364   -1.455407   -0.210218
      4          6           0       -1.747562   -0.676108    0.207866
      5          6           0       -1.406564    0.784962   -0.112662
      6          6           0        0.061187    0.802104    0.190052
      7          8           0        0.742294    1.958589   -0.037797
      8          1           0        2.153585   -1.213125    1.138239
      9          1           0        2.710187   -0.201593   -0.202235
     10          1           0        2.197344   -1.863186   -0.503169
     11          1           0       -0.427878   -2.514003   -0.017638
     12          1           0       -1.782866   -0.727293    1.319438
     13          1           0       -2.710108   -1.010412   -0.177584
     14          1           0       -1.571487    1.015727   -1.183192
     15          1           0       -1.983673    1.501238    0.469478
     16          1           0        0.335864   -0.280373   -1.202391
     17          1           0        1.616446    1.896843    0.353159
 ---------------------------------------------------------------------
 Rotational constants (GHZ):           3.3755407           2.9664962           1.6674693
 ======================================================================================================
                                       Pseudopotential Parameters
 ======================================================================================================
  Center     Atomic      Valence      Angular      Power
  Number     Number     Electrons     Momentum     of R      Exponent        Coefficient   SO-Coeffient
 ======================================================================================================
    1          6            6
                                      G and up 
                                                     0        0.0000010       -0.00011185    0.00000000
                                                     2        0.1200000       -0.02301220    0.00000000
                                                     2        0.1400000        0.13317600    0.00000000
                                                     2        0.1600000       -0.19690668    0.00000000
                                                     2        0.2200000        0.23163694    0.00000000
                                                     2        0.3000000       -0.36920489    0.00000000
                                                     2        0.4000000        0.36389709    0.00000000
                                                     2        0.7000000       -0.38862160    0.00000000
                                                     2        1.3000000        0.80803421    0.00000000
                                      S - G
                                                     0        0.0000010        0.00312304    0.00000000
                                                     2        0.1200000       -0.00632892    0.00000000
                                                     2        0.2200000       -0.03780897    0.00000000
                                                     2        0.4000000        0.26269560    0.00000000
                                                     2        0.9000000       -0.28209514    0.00000000
                                                     2        1.5000000       -0.72686737    0.00000000
                                      P - G
                                                     0        0.0000010       -0.01465594    0.00000000
                                                     2        0.1200000        0.07908409    0.00000000
                                                     2        0.1800000       -0.30615861    0.00000000
                                                     2        0.2600000        0.41506950    0.00000000
                                                     2        0.5000000       -0.36252345    0.00000000
                                                     2        0.9000000        0.15124193    0.00000000
                                                     2        3.0000000       -0.80425677    0.00000000
                                      D - G
                                                     0        0.0000010        0.01149631    0.00000000
                                                     2        0.1200000       -0.04713561    0.00000000
                                                     2        0.1600000        0.10865096    0.00000000
                                                     2        0.2800000       -0.15816701    0.00000000
                                                     2        0.7000000        0.65478804    0.00000000
                                                     2        1.3000000       -1.73816624    0.00000000
                                      F - G
                                                     0        0.0000010        0.00481868    0.00000000
                                                     2        0.1200000       -0.04746842    0.00000000
                                                     2        0.1600000        0.09327889    0.00000000
                                                     2        0.4000000       -0.19693326    0.00000000
                                                     2        0.9000000        0.34938253    0.00000000
    2          6            6
                                      G and up 
                                                     0        0.0000010       -0.00011185    0.00000000
                                                     2        0.1200000       -0.02301220    0.00000000
                                                     2        0.1400000        0.13317600    0.00000000
                                                     2        0.1600000       -0.19690668    0.00000000
                                                     2        0.2200000        0.23163694    0.00000000
                                                     2        0.3000000       -0.36920489    0.00000000
                                                     2        0.4000000        0.36389709    0.00000000
                                                     2        0.7000000       -0.38862160    0.00000000
                                                     2        1.3000000        0.80803421    0.00000000
                                      S - G
                                                     0        0.0000010        0.00312304    0.00000000
                                                     2        0.1200000       -0.00632892    0.00000000
                                                     2        0.2200000       -0.03780897    0.00000000
                                                     2        0.4000000        0.26269560    0.00000000
                                                     2        0.9000000       -0.28209514    0.00000000
                                                     2        1.5000000       -0.72686737    0.00000000
                                      P - G
                                                     0        0.0000010       -0.01465594    0.00000000
                                                     2        0.1200000        0.07908409    0.00000000
                                                     2        0.1800000       -0.30615861    0.00000000
                                                     2        0.2600000        0.41506950    0.00000000
                                                     2        0.5000000       -0.36252345    0.00000000
                                                     2        0.9000000        0.15124193    0.00000000
                                                     2        3.0000000       -0.80425677    0.00000000
                                      D - G
                                                     0        0.0000010        0.01149631    0.00000000
                                                     2        0.1200000       -0.04713561    0.00000000
                                                     2        0.1600000        0.10865096    0.00000000
                                                     2        0.2800000       -0.15816701    0.00000000
                                                     2        0.7000000        0.65478804    0.00000000
                                                     2        1.3000000       -1.73816624    0.00000000
                                      F - G
                                                     0        0.0000010        0.00481868    0.00000000
                                                     2        0.1200000       -0.04746842    0.00000000
                                                     2        0.1600000        0.09327889    0.00000000
                                                     2        0.4000000       -0.19693326    0.00000000
                                                     2        0.9000000        0.34938253    0.00000000
    3          6            6
                                      G and up 
                                                     0        0.0000010       -0.00011185    0.00000000
                                                     2        0.1200000       -0.02301220    0.00000000
                                                     2        0.1400000        0.13317600    0.00000000
                                                     2        0.1600000       -0.19690668    0.00000000
                                                     2        0.2200000        0.23163694    0.00000000
                                                     2        0.3000000       -0.36920489    0.00000000
                                                     2        0.4000000        0.36389709    0.00000000
                                                     2        0.7000000       -0.38862160    0.00000000
                                                     2        1.3000000        0.80803421    0.00000000
                                      S - G
                                                     0        0.0000010        0.00312304    0.00000000
                                                     2        0.1200000       -0.00632892    0.00000000
                                                     2        0.2200000       -0.03780897    0.00000000
                                                     2        0.4000000        0.26269560    0.00000000
                                                     2        0.9000000       -0.28209514    0.00000000
                                                     2        1.5000000       -0.72686737    0.00000000
                                      P - G
                                                     0        0.0000010       -0.01465594    0.00000000
                                                     2        0.1200000        0.07908409    0.00000000
                                                     2        0.1800000       -0.30615861    0.00000000
                                                     2        0.2600000        0.41506950    0.00000000
                                                     2        0.5000000       -0.36252345    0.00000000
                                                     2        0.9000000        0.15124193    0.00000000
                                                     2        3.0000000       -0.80425677    0.00000000
                                      D - G
                                                     0        0.0000010        0.01149631    0.00000000
                                                     2        0.1200000       -0.04713561    0.00000000
                                                     2        0.1600000        0.10865096    0.00000000
                                                     2        0.2800000       -0.15816701    0.00000000
                                                     2        0.7000000        0.65478804    0.00000000
                                                     2        1.3000000       -1.73816624    0.00000000
                                      F - G
                                                     0        0.0000010        0.00481868    0.00000000
                                                     2        0.1200000       -0.04746842    0.00000000
                                                     2        0.1600000        0.09327889    0.00000000
                                                     2        0.4000000       -0.19693326    0.00000000
                                                     2        0.9000000        0.34938253    0.00000000
    4          6            6
                                      G and up 
                                                     0        0.0000010       -0.00011185    0.00000000
                                                     2        0.1200000       -0.02301220    0.00000000
                                                     2        0.1400000        0.13317600    0.00000000
                                                     2        0.1600000       -0.19690668    0.00000000
                                                     2        0.2200000        0.23163694    0.00000000
                                                     2        0.3000000       -0.36920489    0.00000000
                                                     2        0.4000000        0.36389709    0.00000000
                                                     2        0.7000000       -0.38862160    0.00000000
                                                     2        1.3000000        0.80803421    0.00000000
                                      S - G
                                                     0        0.0000010        0.00312304    0.00000000
                                                     2        0.1200000       -0.00632892    0.00000000
                                                     2        0.2200000       -0.03780897    0.00000000
                                                     2        0.4000000        0.26269560    0.00000000
                                                     2        0.9000000       -0.28209514    0.00000000
                                                     2        1.5000000       -0.72686737    0.00000000
                                      P - G
                                                     0        0.0000010       -0.01465594    0.00000000
                                                     2        0.1200000        0.07908409    0.00000000
                                                     2        0.1800000       -0.30615861    0.00000000
                                                     2        0.2600000        0.41506950    0.00000000
                                                     2        0.5000000       -0.36252345    0.00000000
                                                     2        0.9000000        0.15124193    0.00000000
                                                     2        3.0000000       -0.80425677    0.00000000
                                      D - G
                                                     0        0.0000010        0.01149631    0.00000000
                                                     2        0.1200000       -0.04713561    0.00000000
                                                     2        0.1600000        0.10865096    0.00000000
                                                     2        0.2800000       -0.15816701    0.00000000
                                                     2        0.7000000        0.65478804    0.00000000
                                                     2        1.3000000       -1.73816624    0.00000000
                                      F - G
                                                     0        0.0000010        0.00481868    0.00000000
                                                     2        0.1200000       -0.04746842    0.00000000
                                                     2        0.1600000        0.09327889    0.00000000
                                                     2        0.4000000       -0.19693326    0.00000000
                                                     2        0.9000000        0.34938253    0.00000000
    5          6            6
                                      G and up 
                                                     0        0.0000010       -0.00011185    0.00000000
                                                     2        0.1200000       -0.02301220    0.00000000
                                                     2        0.1400000        0.13317600    0.00000000
                                                     2        0.1600000       -0.19690668    0.00000000
                                                     2        0.2200000        0.23163694    0.00000000
                                                     2        0.3000000       -0.36920489    0.00000000
                                                     2        0.4000000        0.36389709    0.00000000
                                                     2        0.7000000       -0.38862160    0.00000000
                                                     2        1.3000000        0.80803421    0.00000000
                                      S - G
                                                     0        0.0000010        0.00312304    0.00000000
                                                     2        0.1200000       -0.00632892    0.00000000
                                                     2        0.2200000       -0.03780897    0.00000000
                                                     2        0.4000000        0.26269560    0.00000000
                                                     2        0.9000000       -0.28209514    0.00000000
                                                     2        1.5000000       -0.72686737    0.00000000
                                      P - G
                                                     0        0.0000010       -0.01465594    0.00000000
                                                     2        0.1200000        0.07908409    0.00000000
                                                     2        0.1800000       -0.30615861    0.00000000
                                                     2        0.2600000        0.41506950    0.00000000
                                                     2        0.5000000       -0.36252345    0.00000000
                                                     2        0.9000000        0.15124193    0.00000000
                                                     2        3.0000000       -0.80425677    0.00000000
                                      D - G
                                                     0        0.0000010        0.01149631    0.00000000
                                                     2        0.1200000       -0.04713561    0.00000000
                                                     2        0.1600000        0.10865096    0.00000000
                                                     2        0.2800000       -0.15816701    0.00000000
                                                     2        0.7000000        0.65478804    0.00000000
                                                     2        1.3000000       -1.73816624    0.00000000
                                      F - G
                                                     0        0.0000010        0.00481868    0.00000000
                                                     2        0.1200000       -0.04746842    0.00000000
                                                     2        0.1600000        0.09327889    0.00000000
                                                     2        0.4000000       -0.19693326    0.00000000
                                                     2        0.9000000        0.34938253    0.00000000
    6          6            6
                                      G and up 
                                                     0        0.0000010       -0.00011185    0.00000000
                                                     2        0.1200000       -0.02301220    0.00000000
                                                     2        0.1400000        0.13317600    0.00000000
                                                     2        0.1600000       -0.19690668    0.00000000
                                                     2        0.2200000        0.23163694    0.00000000
                                                     2        0.3000000       -0.36920489    0.00000000
                                                     2        0.4000000        0.36389709    0.00000000
                                                     2        0.7000000       -0.38862160    0.00000000
                                                     2        1.3000000        0.80803421    0.00000000
                                      S - G
                                                     0        0.0000010        0.00312304    0.00000000
                                                     2        0.1200000       -0.00632892    0.00000000
                                                     2        0.2200000       -0.03780897    0.00000000
                                                     2        0.4000000        0.26269560    0.00000000
                                                     2        0.9000000       -0.28209514    0.00000000
                                                     2        1.5000000       -0.72686737    0.00000000
                                      P - G
                                                     0        0.0000010       -0.01465594    0.00000000
                                                     2        0.1200000        0.07908409    0.00000000
                                                     2        0.1800000       -0.30615861    0.00000000
                                                     2        0.2600000        0.41506950    0.00000000
                                                     2        0.5000000       -0.36252345    0.00000000
                                                     2        0.9000000        0.15124193    0.00000000
                                                     2        3.0000000       -0.80425677    0.00000000
                                      D - G
                                                     0        0.0000010        0.01149631    0.00000000
                                                     2        0.1200000       -0.04713561    0.00000000
                                                     2        0.1600000        0.10865096    0.00000000
                                                     2        0.2800000       -0.15816701    0.00000000
                                                     2        0.7000000        0.65478804    0.00000000
                                                     2        1.3000000       -1.73816624    0.00000000
                                      F - G
                                                     0        0.0000010        0.00481868    0.00000000
                                                     2        0.1200000       -0.04746842    0.00000000
                                                     2        0.1600000        0.09327889    0.00000000
                                                     2        0.4000000       -0.19693326    0.00000000
                                                     2        0.9000000        0.34938253    0.00000000
    7          8            8
                                      G and up 
                                                     0        0.0000010        0.00001165    0.00000000
                                                     2        0.1200000       -0.01744018    0.00000000
                                                     2        0.1400000        0.05401326    0.00000000
                                                     2        0.1800000       -0.08231208    0.00000000
                                                     2        0.2600000        0.11570222    0.00000000
                                                     2        0.4000000       -0.20630360    0.00000000
                                                     2        0.7000000        0.38074319    0.00000000
                                                     2        1.2000000       -0.17045091    0.00000000
                                                     2        2.0000000       -1.45433187    0.00000000
                                      S - G
                                                     0        0.0000010       -0.00117944    0.00000000
                                                     2        0.1400000        0.04368312    0.00000000
                                                     2        0.3000000       -0.33477926    0.00000000
                                                     2        0.6000000        1.52630657    0.00000000
                                                     2        1.5000000       -2.50804716    0.00000000
                                                     2        3.0000000        2.89751681    0.00000000
                                      P - G
                                                     0        0.0000010        0.06576007    0.00000000
                                                     2        0.1200000       -0.10329304    0.00000000
                                                     2        0.2000000        0.24891756    0.00000000
                                                     2        0.4000000       -0.50800022    0.00000000
                                                     2        0.9000000        0.81480796    0.00000000
                                      D - G
                                                     0        0.0000010       -0.14101855    0.00000000
                                                     2        0.1200000        0.22105937    0.00000000
                                                     2        0.1800000       -0.45814988    0.00000000
                                                     2        0.3000000        0.46029282    0.00000000
                                      F - G
                                                     0        0.0000010        0.07483044    0.00000000
                                                     2        0.1200000       -0.09134252    0.00000000
                                                     2        0.1400000        0.04125459    0.00000000
                                                     2        0.3000000        0.37914837    0.00000000
                                                     2        0.5000000       -0.86881279    0.00000000
    8          1            1
                                      F and up 
                                                     0        0.0000010       -0.00000699    0.00000000
                                                     2        0.1200000        0.00123686    0.00000000
                                                     2        0.1800000       -0.00752022    0.00000000
                                                     2        0.2600000        0.02503380    0.00000000
                                                     2        0.4000000       -0.08702670    0.00000000
                                                     2        0.6000000        0.30134159    0.00000000
                                                     2        0.8000000       -0.50204959    0.00000000
                                                     2        1.2000000        0.52208372    0.00000000
                                      S - F
                                                     0        0.0000010       -0.01618346    0.00000000
                                                     2        0.1200000       -0.07880581    0.00000000
                                                     2        0.1600000        0.32040539    0.00000000
                                                     2        0.2400000       -0.47500956    0.00000000
                                                     2        0.5000000        0.54013668    0.00000000
                                                     2        1.5000000       -1.40434292    0.00000000
                                                     2        3.0000000        1.46283806    0.00000000
                                      P - F
                                                     0        0.0000010        0.00612970    0.00000000
                                                     2        0.1200000        0.02254406    0.00000000
                                                     2        0.1800000       -0.13874529    0.00000000
                                                     2        0.3000000        0.38299049    0.00000000
                                                     2        0.5000000       -0.57923512    0.00000000
                                                     2        1.0000000        0.63021625    0.00000000
                                                     2        2.0000000       -0.79201034    0.00000000
                                      D - F
                                                     0        0.0000010       -0.00296226    0.00000000
                                                     2        0.1200000       -0.00547344    0.00000000
                                                     2        0.1400000        0.01837884    0.00000000
                                                     2        0.2400000       -0.05565704    0.00000000
                                                     2        0.4000000        0.15376597    0.00000000
                                                     2        0.8000000       -0.32464795    0.00000000
    9          1            1
                                      F and up 
                                                     0        0.0000010       -0.00000699    0.00000000
                                                     2        0.1200000        0.00123686    0.00000000
                                                     2        0.1800000       -0.00752022    0.00000000
                                                     2        0.2600000        0.02503380    0.00000000
                                                     2        0.4000000       -0.08702670    0.00000000
                                                     2        0.6000000        0.30134159    0.00000000
                                                     2        0.8000000       -0.50204959    0.00000000
                                                     2        1.2000000        0.52208372    0.00000000
                                      S - F
                                                     0        0.0000010       -0.01618346    0.00000000
                                                     2        0.1200000       -0.07880581    0.00000000
                                                     2        0.1600000        0.32040539    0.00000000
                                                     2        0.2400000       -0.47500956    0.00000000
                                                     2        0.5000000        0.54013668    0.00000000
                                                     2        1.5000000       -1.40434292    0.00000000
                                                     2        3.0000000        1.46283806    0.00000000
                                      P - F
                                                     0        0.0000010        0.00612970    0.00000000
                                                     2        0.1200000        0.02254406    0.00000000
                                                     2        0.1800000       -0.13874529    0.00000000
                                                     2        0.3000000        0.38299049    0.00000000
                                                     2        0.5000000       -0.57923512    0.00000000
                                                     2        1.0000000        0.63021625    0.00000000
                                                     2        2.0000000       -0.79201034    0.00000000
                                      D - F
                                                     0        0.0000010       -0.00296226    0.00000000
                                                     2        0.1200000       -0.00547344    0.00000000
                                                     2        0.1400000        0.01837884    0.00000000
                                                     2        0.2400000       -0.05565704    0.00000000
                                                     2        0.4000000        0.15376597    0.00000000
                                                     2        0.8000000       -0.32464795    0.00000000
   10          1            1
                                      F and up 
                                                     0        0.0000010       -0.00000699    0.00000000
                                                     2        0.1200000        0.00123686    0.00000000
                                                     2        0.1800000       -0.00752022    0.00000000
                                                     2        0.2600000        0.02503380    0.00000000
                                                     2        0.4000000       -0.08702670    0.00000000
                                                     2        0.6000000        0.30134159    0.00000000
                                                     2        0.8000000       -0.50204959    0.00000000
                                                     2        1.2000000        0.52208372    0.00000000
                                      S - F
                                                     0        0.0000010       -0.01618346    0.00000000
                                                     2        0.1200000       -0.07880581    0.00000000
                                                     2        0.1600000        0.32040539    0.00000000
                                                     2        0.2400000       -0.47500956    0.00000000
                                                     2        0.5000000        0.54013668    0.00000000
                                                     2        1.5000000       -1.40434292    0.00000000
                                                     2        3.0000000        1.46283806    0.00000000
                                      P - F
                                                     0        0.0000010        0.00612970    0.00000000
                                                     2        0.1200000        0.02254406    0.00000000
                                                     2        0.1800000       -0.13874529    0.00000000
                                                     2        0.3000000        0.38299049    0.00000000
                                                     2        0.5000000       -0.57923512    0.00000000
                                                     2        1.0000000        0.63021625    0.00000000
                                                     2        2.0000000       -0.79201034    0.00000000
                                      D - F
                                                     0        0.0000010       -0.00296226    0.00000000
                                                     2        0.1200000       -0.00547344    0.00000000
                                                     2        0.1400000        0.01837884    0.00000000
                                                     2        0.2400000       -0.05565704    0.00000000
                                                     2        0.4000000        0.15376597    0.00000000
                                                     2        0.8000000       -0.32464795    0.00000000
   11          1            1
                                      F and up 
                                                     0        0.0000010       -0.00000699    0.00000000
                                                     2        0.1200000        0.00123686    0.00000000
                                                     2        0.1800000       -0.00752022    0.00000000
                                                     2        0.2600000        0.02503380    0.00000000
                                                     2        0.4000000       -0.08702670    0.00000000
                                                     2        0.6000000        0.30134159    0.00000000
                                                     2        0.8000000       -0.50204959    0.00000000
                                                     2        1.2000000        0.52208372    0.00000000
                                      S - F
                                                     0        0.0000010       -0.01618346    0.00000000
                                                     2        0.1200000       -0.07880581    0.00000000
                                                     2        0.1600000        0.32040539    0.00000000
                                                     2        0.2400000       -0.47500956    0.00000000
                                                     2        0.5000000        0.54013668    0.00000000
                                                     2        1.5000000       -1.40434292    0.00000000
                                                     2        3.0000000        1.46283806    0.00000000
                                      P - F
                                                     0        0.0000010        0.00612970    0.00000000
                                                     2        0.1200000        0.02254406    0.00000000
                                                     2        0.1800000       -0.13874529    0.00000000
                                                     2        0.3000000        0.38299049    0.00000000
                                                     2        0.5000000       -0.57923512    0.00000000
                                                     2        1.0000000        0.63021625    0.00000000
                                                     2        2.0000000       -0.79201034    0.00000000
                                      D - F
                                                     0        0.0000010       -0.00296226    0.00000000
                                                     2        0.1200000       -0.00547344    0.00000000
                                                     2        0.1400000        0.01837884    0.00000000
                                                     2        0.2400000       -0.05565704    0.00000000
                                                     2        0.4000000        0.15376597    0.00000000
                                                     2        0.8000000       -0.32464795    0.00000000
   12          1            1
                                      F and up 
                                                     0        0.0000010       -0.00000699    0.00000000
                                                     2        0.1200000        0.00123686    0.00000000
                                                     2        0.1800000       -0.00752022    0.00000000
                                                     2        0.2600000        0.02503380    0.00000000
                                                     2        0.4000000       -0.08702670    0.00000000
                                                     2        0.6000000        0.30134159    0.00000000
                                                     2        0.8000000       -0.50204959    0.00000000
                                                     2        1.2000000        0.52208372    0.00000000
                                      S - F
                                                     0        0.0000010       -0.01618346    0.00000000
                                                     2        0.1200000       -0.07880581    0.00000000
                                                     2        0.1600000        0.32040539    0.00000000
                                                     2        0.2400000       -0.47500956    0.00000000
                                                     2        0.5000000        0.54013668    0.00000000
                                                     2        1.5000000       -1.40434292    0.00000000
                                                     2        3.0000000        1.46283806    0.00000000
                                      P - F
                                                     0        0.0000010        0.00612970    0.00000000
                                                     2        0.1200000        0.02254406    0.00000000
                                                     2        0.1800000       -0.13874529    0.00000000
                                                     2        0.3000000        0.38299049    0.00000000
                                                     2        0.5000000       -0.57923512    0.00000000
                                                     2        1.0000000        0.63021625    0.00000000
                                                     2        2.0000000       -0.79201034    0.00000000
                                      D - F
                                                     0        0.0000010       -0.00296226    0.00000000
                                                     2        0.1200000       -0.00547344    0.00000000
                                                     2        0.1400000        0.01837884    0.00000000
                                                     2        0.2400000       -0.05565704    0.00000000
                                                     2        0.4000000        0.15376597    0.00000000
                                                     2        0.8000000       -0.32464795    0.00000000
   13          1            1
                                      F and up 
                                                     0        0.0000010       -0.00000699    0.00000000
                                                     2        0.1200000        0.00123686    0.00000000
                                                     2        0.1800000       -0.00752022    0.00000000
                                                     2        0.2600000        0.02503380    0.00000000
                                                     2        0.4000000       -0.08702670    0.00000000
                                                     2        0.6000000        0.30134159    0.00000000
                                                     2        0.8000000       -0.50204959    0.00000000
                                                     2        1.2000000        0.52208372    0.00000000
                                      S - F
                                                     0        0.0000010       -0.01618346    0.00000000
                                                     2        0.1200000       -0.07880581    0.00000000
                                                     2        0.1600000        0.32040539    0.00000000
                                                     2        0.2400000       -0.47500956    0.00000000
                                                     2        0.5000000        0.54013668    0.00000000
                                                     2        1.5000000       -1.40434292    0.00000000
                                                     2        3.0000000        1.46283806    0.00000000
                                      P - F
                                                     0        0.0000010        0.00612970    0.00000000
                                                     2        0.1200000        0.02254406    0.00000000
                                                     2        0.1800000       -0.13874529    0.00000000
                                                     2        0.3000000        0.38299049    0.00000000
                                                     2        0.5000000       -0.57923512    0.00000000
                                                     2        1.0000000        0.63021625    0.00000000
                                                     2        2.0000000       -0.79201034    0.00000000
                                      D - F
                                                     0        0.0000010       -0.00296226    0.00000000
                                                     2        0.1200000       -0.00547344    0.00000000
                                                     2        0.1400000        0.01837884    0.00000000
                                                     2        0.2400000       -0.05565704    0.00000000
                                                     2        0.4000000        0.15376597    0.00000000
                                                     2        0.8000000       -0.32464795    0.00000000
   14          1            1
                                      F and up 
                                                     0        0.0000010       -0.00000699    0.00000000
                                                     2        0.1200000        0.00123686    0.00000000
                                                     2        0.1800000       -0.00752022    0.00000000
                                                     2        0.2600000        0.02503380    0.00000000
                                                     2        0.4000000       -0.08702670    0.00000000
                                                     2        0.6000000        0.30134159    0.00000000
                                                     2        0.8000000       -0.50204959    0.00000000
                                                     2        1.2000000        0.52208372    0.00000000
                                      S - F
                                                     0        0.0000010       -0.01618346    0.00000000
                                                     2        0.1200000       -0.07880581    0.00000000
                                                     2        0.1600000        0.32040539    0.00000000
                                                     2        0.2400000       -0.47500956    0.00000000
                                                     2        0.5000000        0.54013668    0.00000000
                                                     2        1.5000000       -1.40434292    0.00000000
                                                     2        3.0000000        1.46283806    0.00000000
                                      P - F
                                                     0        0.0000010        0.00612970    0.00000000
                                                     2        0.1200000        0.02254406    0.00000000
                                                     2        0.1800000       -0.13874529    0.00000000
                                                     2        0.3000000        0.38299049    0.00000000
                                                     2        0.5000000       -0.57923512    0.00000000
                                                     2        1.0000000        0.63021625    0.00000000
                                                     2        2.0000000       -0.79201034    0.00000000
                                      D - F
                                                     0        0.0000010       -0.00296226    0.00000000
                                                     2        0.1200000       -0.00547344    0.00000000
                                                     2        0.1400000        0.01837884    0.00000000
                                                     2        0.2400000       -0.05565704    0.00000000
                                                     2        0.4000000        0.15376597    0.00000000
                                                     2        0.8000000       -0.32464795    0.00000000
   15          1            1
                                      F and up 
                                                     0        0.0000010       -0.00000699    0.00000000
                                                     2        0.1200000        0.00123686    0.00000000
                                                     2        0.1800000       -0.00752022    0.00000000
                                                     2        0.2600000        0.02503380    0.00000000
                                                     2        0.4000000       -0.08702670    0.00000000
                                                     2        0.6000000        0.30134159    0.00000000
                                                     2        0.8000000       -0.50204959    0.00000000
                                                     2        1.2000000        0.52208372    0.00000000
                                      S - F
                                                     0        0.0000010       -0.01618346    0.00000000
                                                     2        0.1200000       -0.07880581    0.00000000
                                                     2        0.1600000        0.32040539    0.00000000
                                                     2        0.2400000       -0.47500956    0.00000000
                                                     2        0.5000000        0.54013668    0.00000000
                                                     2        1.5000000       -1.40434292    0.00000000
                                                     2        3.0000000        1.46283806    0.00000000
                                      P - F
                                                     0        0.0000010        0.00612970    0.00000000
                                                     2        0.1200000        0.02254406    0.00000000
                                                     2        0.1800000       -0.13874529    0.00000000
                                                     2        0.3000000        0.38299049    0.00000000
                                                     2        0.5000000       -0.57923512    0.00000000
                                                     2        1.0000000        0.63021625    0.00000000
                                                     2        2.0000000       -0.79201034    0.00000000
                                      D - F
                                                     0        0.0000010       -0.00296226    0.00000000
                                                     2        0.1200000       -0.00547344    0.00000000
                                                     2        0.1400000        0.01837884    0.00000000
                                                     2        0.2400000       -0.05565704    0.00000000
                                                     2        0.4000000        0.15376597    0.00000000
                                                     2        0.8000000       -0.32464795    0.00000000
   16          1            1
                                      F and up 
                                                     0        0.0000010       -0.00000699    0.00000000
                                                     2        0.1200000        0.00123686    0.00000000
                                                     2        0.1800000       -0.00752022    0.00000000
                                                     2        0.2600000        0.02503380    0.00000000
                                                     2        0.4000000       -0.08702670    0.00000000
                                                     2        0.6000000        0.30134159    0.00000000
                                                     2        0.8000000       -0.50204959    0.00000000
                                                     2        1.2000000        0.52208372    0.00000000
                                      S - F
                                                     0        0.0000010       -0.01618346    0.00000000
                                                     2        0.1200000       -0.07880581    0.00000000
                                                     2        0.1600000        0.32040539    0.00000000
                                                     2        0.2400000       -0.47500956    0.00000000
                                                     2        0.5000000        0.54013668    0.00000000
                                                     2        1.5000000       -1.40434292    0.00000000
                                                     2        3.0000000        1.46283806    0.00000000
                                      P - F
                                                     0        0.0000010        0.00612970    0.00000000
                                                     2        0.1200000        0.02254406    0.00000000
                                                     2        0.1800000       -0.13874529    0.00000000
                                                     2        0.3000000        0.38299049    0.00000000
                                                     2        0.5000000       -0.57923512    0.00000000
                                                     2        1.0000000        0.63021625    0.00000000
                                                     2        2.0000000       -0.79201034    0.00000000
                                      D - F
                                                     0        0.0000010       -0.00296226    0.00000000
                                                     2        0.1200000       -0.00547344    0.00000000
                                                     2        0.1400000        0.01837884    0.00000000
                                                     2        0.2400000       -0.05565704    0.00000000
                                                     2        0.4000000        0.15376597    0.00000000
                                                     2        0.8000000       -0.32464795    0.00000000
   17          1            1
                                      F and up 
                                                     0        0.0000010       -0.00000699    0.00000000
                                                     2        0.1200000        0.00123686    0.00000000
                                                     2        0.1800000       -0.00752022    0.00000000
                                                     2        0.2600000        0.02503380    0.00000000
                                                     2        0.4000000       -0.08702670    0.00000000
                                                     2        0.6000000        0.30134159    0.00000000
                                                     2        0.8000000       -0.50204959    0.00000000
                                                     2        1.2000000        0.52208372    0.00000000
                                      S - F
                                                     0        0.0000010       -0.01618346    0.00000000
                                                     2        0.1200000       -0.07880581    0.00000000
                                                     2        0.1600000        0.32040539    0.00000000
                                                     2        0.2400000       -0.47500956    0.00000000
                                                     2        0.5000000        0.54013668    0.00000000
                                                     2        1.5000000       -1.40434292    0.00000000
                                                     2        3.0000000        1.46283806    0.00000000
                                      P - F
                                                     0        0.0000010        0.00612970    0.00000000
                                                     2        0.1200000        0.02254406    0.00000000
                                                     2        0.1800000       -0.13874529    0.00000000
                                                     2        0.3000000        0.38299049    0.00000000
                                                     2        0.5000000       -0.57923512    0.00000000
                                                     2        1.0000000        0.63021625    0.00000000
                                                     2        2.0000000       -0.79201034    0.00000000
                                      D - F
                                                     0        0.0000010       -0.00296226    0.00000000
                                                     2        0.1200000       -0.00547344    0.00000000
                                                     2        0.1400000        0.01837884    0.00000000
                                                     2        0.2400000       -0.05565704    0.00000000
                                                     2        0.4000000        0.15376597    0.00000000
                                                     2        0.8000000       -0.32464795    0.00000000
 ======================================================================================================
   251 basis functions,   411 primitive gaussians,   265 cartesian basis functions
    27 alpha electrons       27 beta electrons
       nuclear repulsion energy       309.9639856110 Hartrees.
 NAtoms=   17 NActive=   17 NUniq=   17 SFac= 1.00D+00 NAtFMM=   60 NAOKFM=F Big=F
   1 Symmetry operations used in ECPInt.
 ECPInt:  NShTT=    6441 NPrTT=   27141 LenC2=    6437 LenP2D=   22001.
 LDataN:  DoStor=T MaxTD1= 6 Len=  172
 Initial guess from the checkpoint file:  "Grambow2020_wb97xd3_007741_forward_mol1.chk"
 B after Tr=     0.023503   -0.381741   -0.010117
         Rot=    0.968165   -0.112381   -0.027730    0.221942 Ang= -28.99 deg.
 >>>>>>>>>> Convergence criterion not met.
 SCF Done:  E(RHF) =  -307.827589322     A.U. after    2 cycles
            NFock=  1  Conv=0.63D-02     -V/T= 1.9997

 **********************************************************************

            Population analysis using the SCF Density.

 **********************************************************************

 Orbital symmetries:
       Occupied  (A) (A) (A) (A) (A) (A) (A) (A) (A) (A) (A) (A)
                 (A) (A) (A) (A) (A) (A) (A) (A) (A) (A) (A) (A)
                 (A) (A) (A)
       Virtual   (A) (A) (A) (A) (A) (A) (A) (A) (A) (A) (A) (A)
                 (A) (A) (A) (A) (A) (A) (A) (A) (A) (A) (A) (A)
                 (A) (A) (A) (A) (A) (A) (A) (A) (A) (A) (A) (A)
                 (A) (A) (A) (A) (A) (A) (A) (A) (A) (A) (A) (A)
                 (A) (A) (A) (A) (A) (A) (A) (A) (A) (A) (A) (A)
                 (A) (A) (A) (A) (A) (A) (A) (A) (A) (A) (A) (A)
                 (A) (A) (A) (A) (A) (A) (A) (A) (A) (A) (A) (A)
                 (A) (A) (A) (A) (A) (A) (A) (A) (A) (A) (A) (A)
                 (A) (A) (A) (A) (A) (A) (A) (A) (A) (A) (A) (A)
                 (A) (A) (A) (A) (A) (A) (A) (A) (A) (A) (A) (A)
                 (A) (A) (A) (A) (A) (A) (A) (A) (A) (A) (A) (A)
                 (A) (A) (A) (A) (A) (A) (A) (A) (A) (A) (A) (A)
                 (A) (A) (A) (A) (A) (A) (A) (A) (A) (A) (A) (A)
                 (A) (A) (A) (A) (A) (A) (A) (A) (A) (A) (A) (A)
                 (A) (A) (A) (A) (A) (A) (A) (A) (A) (A) (A) (A)
                 (A) (A) (A) (A) (A) (A) (A) (A) (A) (A) (A) (A)
                 (A) (A) (A) (A) (A) (A) (A) (A) (A) (A) (A) (A)
                 (A) (A) (A) (A) (A) (A) (A) (A) (A) (A) (A) (A)
                 (A) (A) (A) (A) (A) (A) (A) (A)
 The electronic state is 1-A.
 Alpha  occ. eigenvalues --  -20.61364 -11.31861 -11.26931 -11.24934 -11.23862
 Alpha  occ. eigenvalues --  -11.23187 -11.21616  -1.37433  -1.15336  -1.02861
 Alpha  occ. eigenvalues --   -0.94340  -0.92001  -0.79143  -0.77791  -0.68979
 Alpha  occ. eigenvalues --   -0.66542  -0.64779  -0.60370  -0.59290  -0.57586
 Alpha  occ. eigenvalues --   -0.55650  -0.53422  -0.50170  -0.49712  -0.48067
 Alpha  occ. eigenvalues --   -0.46673  -0.20993
 Alpha virt. eigenvalues --    0.02834   0.04355   0.04513   0.04867   0.05591
 Alpha virt. eigenvalues --    0.06196   0.06586   0.06749   0.08059   0.08447
 Alpha virt. eigenvalues --    0.09373   0.11382   0.12307   0.13444   0.13809
 Alpha virt. eigenvalues --    0.14541   0.14814   0.15881   0.16337   0.17036
 Alpha virt. eigenvalues --    0.17188   0.17488   0.18152   0.19033   0.19402
 Alpha virt. eigenvalues --    0.19774   0.19977   0.20507   0.20925   0.21582
 Alpha virt. eigenvalues --    0.23017   0.24717   0.26205   0.26825   0.27514
 Alpha virt. eigenvalues --    0.28876   0.30177   0.30428   0.31743   0.32914
 Alpha virt. eigenvalues --    0.33608   0.35094   0.35818   0.37058   0.37446
 Alpha virt. eigenvalues --    0.38884   0.39160   0.39832   0.40734   0.41599
 Alpha virt. eigenvalues --    0.43433   0.43902   0.44462   0.45196   0.46281
 Alpha virt. eigenvalues --    0.46587   0.47253   0.48052   0.48621   0.49014
 Alpha virt. eigenvalues --    0.49776   0.50906   0.51625   0.52599   0.53431
 Alpha virt. eigenvalues --    0.54159   0.55129   0.55639   0.55879   0.57324
 Alpha virt. eigenvalues --    0.57943   0.59420   0.60139   0.61210   0.62171
 Alpha virt. eigenvalues --    0.62962   0.63372   0.64509   0.65155   0.66058
 Alpha virt. eigenvalues --    0.66600   0.68391   0.69444   0.70326   0.71697
 Alpha virt. eigenvalues --    0.72128   0.72609   0.74149   0.74755   0.75354
 Alpha virt. eigenvalues --    0.75786   0.77863   0.79049   0.80513   0.81008
 Alpha virt. eigenvalues --    0.81317   0.82090   0.83323   0.84342   0.85674
 Alpha virt. eigenvalues --    0.86881   0.87349   0.87898   0.89592   0.92140
 Alpha virt. eigenvalues --    0.92954   0.93619   0.94356   0.95924   0.96495
 Alpha virt. eigenvalues --    0.99463   1.00309   1.02879   1.05502   1.06494
 Alpha virt. eigenvalues --    1.09748   1.10222   1.13202   1.13546   1.16079
 Alpha virt. eigenvalues --    1.17584   1.18267   1.19832   1.21343   1.23598
 Alpha virt. eigenvalues --    1.25416   1.27499   1.29203   1.31562   1.34569
 Alpha virt. eigenvalues --    1.37089   1.39196   1.41008   1.43546   1.46442
 Alpha virt. eigenvalues --    1.50153   1.50884   1.53430   1.55290   1.57732
 Alpha virt. eigenvalues --    1.58340   1.58766   1.61372   1.66446   1.67991
 Alpha virt. eigenvalues --    1.68724   1.71933   1.74615   1.76127   1.77682
 Alpha virt. eigenvalues --    1.78696   1.79254   1.83052   1.84763   1.87710
 Alpha virt. eigenvalues --    1.88877   1.90698   1.91956   1.94480   1.97905
 Alpha virt. eigenvalues --    1.98562   2.01015   2.03050   2.04042   2.06431
 Alpha virt. eigenvalues --    2.08874   2.10655   2.12605   2.14952   2.16793
 Alpha virt. eigenvalues --    2.19278   2.20962   2.21797   2.24776   2.25564
 Alpha virt. eigenvalues --    2.27565   2.29509   2.31234   2.31698   2.32534
 Alpha virt. eigenvalues --    2.34009   2.35095   2.37802   2.41211   2.44907
 Alpha virt. eigenvalues --    2.47216   2.48324   2.49624   2.52294   2.54274
 Alpha virt. eigenvalues --    2.56703   2.58556   2.61361   2.64739   2.66597
 Alpha virt. eigenvalues --    2.70130   2.72845   2.73371   2.75172   2.79345
 Alpha virt. eigenvalues --    2.79977   2.82543   2.89450   2.90526   2.93208
 Alpha virt. eigenvalues --    2.94437   2.97561   3.00761   3.04420   3.06887
 Alpha virt. eigenvalues --    3.08500   3.12130   3.14136   3.24363   3.30009
 Alpha virt. eigenvalues --    3.36882   3.41612   3.56656   3.64263   3.65383
 Alpha virt. eigenvalues --    3.69531   3.88626   4.17520   4.36078
          Condensed to atoms (all electrons):
 Mulliken charges:
               1
     1  C    0.766647
     2  C   -0.321959
     3  C    0.008109
     4  C    0.133674
     5  C    0.420730
     6  C   -0.504410
     7  O   -0.518191
     8  H    0.041367
     9  H   -0.020137
    10  H    0.010138
    11  H   -0.441224
    12  H    0.032614
    13  H   -0.128361
    14  H    0.012227
    15  H   -0.094061
    16  H    0.440821
    17  H    0.162014
 Sum of Mulliken charges =  -0.00000
 Mulliken charges with hydrogens summed into heavy atoms:
               1
     1  C    0.798015
     2  C    0.118862
     3  C   -0.433115
     4  C    0.037927
     5  C    0.338897
     6  C   -0.504410
     7  O   -0.356176
 Electronic spatial extent (au):  <R**2>=            767.9295
 Charge=              0.0000 electrons
 Dipole moment (field-independent basis, Debye):
    X=              1.9140    Y=              0.1109    Z=              0.7683  Tot=              2.0655

 Test job not archived.
 1\1\GINC-SE043\SP\RHF\Aug-CC-pVDZ\C6H10O1\OHZDE\09-Apr-2025\0\\#t hf a
 ug-cc-pvdz iop(5/13=1,5/36=2,99/5=2) pseudo=read geom=check guess=(rea
 d,tcheck) scf=(maxcycle=1)\\title\\0,1\C,0,2.09660425,0.20835889,0.274
 64946\C,0,0.64900331,-0.06778626,-0.02539699\C,0,0.05096897,-1.3830741
 7,0.0866798\C,0,-1.40519751,-1.13897893,0.3098032\C,0,-1.68391102,0.22
 411331,-0.33675821\C,0,-0.40162987,0.9411983,-0.04050567\O,0,-0.254865
 94,2.20471499,-0.52554724\H,0,2.23669409,0.28232251,1.35357601\H,0,2.4
 4804438,1.13612571,-0.18142342\H,0,2.72140277,-0.60517596,-0.09422172\
 H,0,0.58419063,-2.22031936,0.5179299\H,0,-1.53042519,-0.97101732,1.403
 22276\H,0,-2.08992746,-1.93069259,0.00787681\H,0,-1.81918374,0.1346337
 7,-1.43228674\H,0,-2.56693273,0.71963208,0.06290075\H,0,0.44824167,-0.
 1734043,-1.14571116\H,0,0.51747937,2.61199134,-0.12754153\\Version=ES6
 4L-G16RevC.01\State=1-A\HF=-307.8275893\RMSD=6.346e-03\Dipole=0.627899
 4,0.4286028,0.2870189\Quadrupole=3.2138163,-1.6573943,-1.5564219,2.867
 7271,0.2375975,-0.1316473\PG=C01 [X(C6H10O1)]\\@


 TRUTH, IN SCIENCE, CAN BE DEFINED AS THE WORKING HYPOTHESIS 
 BEST FITTED TO OPEN THE WAY TO THE NEXT BETTER ONE.

                              -- KONRAD LORENZ
 Job cpu time:       0 days  0 hours  1 minutes 22.9 seconds.
 Elapsed time:       0 days  0 hours  0 minutes  7.0 seconds.
 File lengths (MBytes):  RWF=     14 Int=      0 D2E=      0 Chk=      9 Scr=      1
 Normal termination of Gaussian 16 at Wed Apr  9 16:05:36 2025.
