 Entering Gaussian System, Link 0=g16
 Input=Grambow2020_wb97xd3_008659_reverse_mol1.gjf
 Output=Grambow2020_wb97xd3_008659_reverse_mol1.log
 Initial command:
 /arc/software/Gaussian/g16.c01/l1.exe "/tmp/slurm/4878068/Gau-2741587.inp" -scrdir="/tmp/slurm/4878068/"
 Entering Link 1 = /arc/software/Gaussian/g16.c01/l1.exe PID=   2741588.
  
 Copyright (c) 1988-2019, Gaussian, Inc.  All Rights Reserved.
  
 This is part of the Gaussian(R) 16 program.  It is based on
 the Gaussian(R) 09 system (copyright 2009, Gaussian, Inc.),
 the Gaussian(R) 03 system (copyright 2003, Gaussian, Inc.),
 the Gaussian(R) 98 system (copyright 1998, Gaussian, Inc.),
 the Gaussian(R) 94 system (copyright 1995, Gaussian, Inc.),
 the Gaussian 92(TM) system (copyright 1992, Gaussian, Inc.),
 the Gaussian 90(TM) system (copyright 1990, Gaussian, Inc.),
 the Gaussian 88(TM) system (copyright 1988, Gaussian, Inc.),
 the Gaussian 86(TM) system (copyright 1986, Carnegie Mellon
 University), and the Gaussian 82(TM) system (copyright 1983,
 Carnegie Mellon University). Gaussian is a federally registered
 trademark of Gaussian, Inc.
  
 This software contains proprietary and confidential information,
 including trade secrets, belonging to Gaussian, Inc.
  
 This software is provided under written license and may be
 used, copied, transmitted, or stored only in accord with that
 written license.
  
 The following legend is applicable only to US Government
 contracts under FAR:
  
                    RESTRICTED RIGHTS LEGEND
  
 Use, reproduction and disclosure by the US Government is
 subject to restrictions as set forth in subparagraphs (a)
 and (c) of the Commercial Computer Software - Restricted
 Rights clause in FAR 52.227-19.
  
 Gaussian, Inc.
 340 Quinnipiac St., Bldg. 40, Wallingford CT 06492
  
  
 ---------------------------------------------------------------
 Warning -- This program may not be used in any manner that
 competes with the business of Gaussian, Inc. or will provide
 assistance to any competitor of Gaussian, Inc.  The licensee
 of this program is prohibited from giving any competitor of
 Gaussian, Inc. access to this program.  By using this program,
 the user acknowledges that Gaussian, Inc. is engaged in the
 business of creating and licensing software in the field of
 computational chemistry and represents and warrants to the
 licensee that it is not a competitor of Gaussian, Inc. and that
 it will not use this program in any manner prohibited above.
 ---------------------------------------------------------------
  

 Cite this work as:
 Gaussian 16, Revision C.01,
 M. J. Frisch, G. W. Trucks, H. B. Schlegel, G. E. Scuseria, 
 M. A. Robb, J. R. Cheeseman, G. Scalmani, V. Barone, 
 G. A. Petersson, H. Nakatsuji, X. Li, M. Caricato, A. V. Marenich, 
 J. Bloino, B. G. Janesko, R. Gomperts, B. Mennucci, H. P. Hratchian, 
 J. V. Ortiz, A. F. Izmaylov, J. L. Sonnenberg, D. Williams-Young, 
 F. Ding, F. Lipparini, F. Egidi, J. Goings, B. Peng, A. Petrone, 
 T. Henderson, D. Ranasinghe, V. G. Zakrzewski, J. Gao, N. Rega, 
 G. Zheng, W. Liang, M. Hada, M. Ehara, K. Toyota, R. Fukuda, 
 J. Hasegawa, M. Ishida, T. Nakajima, Y. Honda, O. Kitao, H. Nakai, 
 T. Vreven, K. Throssell, J. A. Montgomery, Jr., J. E. Peralta, 
 F. Ogliaro, M. J. Bearpark, J. J. Heyd, E. N. Brothers, K. N. Kudin, 
 V. N. Staroverov, T. A. Keith, R. Kobayashi, J. Normand, 
 K. Raghavachari, A. P. Rendell, J. C. Burant, S. S. Iyengar, 
 J. Tomasi, M. Cossi, J. M. Millam, M. Klene, C. Adamo, R. Cammi, 
 J. W. Ochterski, R. L. Martin, K. Morokuma, O. Farkas, 
 J. B. Foresman, and D. J. Fox, Gaussian, Inc., Wallingford CT, 2019.
 
 ******************************************
 Gaussian 16:  ES64L-G16RevC.01  3-Jul-2019
                 9-Apr-2025 
 ******************************************
 %nprocs=16
 Will use up to   16 processors via shared memory.
 %mem=30GB
 %chk=Grambow2020_wb97xd3_008659_reverse_mol1.chk
 ----------------------------------------------------------------------
 #t hf aug-cc-pvdz symm=none int=(grid=ultrafine) guess=(read,tcheck) s
 table=(opt,rrhf)
 ----------------------------------------------------------------------
 -----
 title
 -----
 Symbolic Z-matrix:
 Charge =  0 Multiplicity = 1
 C                     2.42715  -1.40576  -0.73008 
 O                     1.16805  -1.08946  -0.50562 
 C                     0.77951  -0.01659   0.10579 
 C                    -0.69703   0.23487   0.2279 
 C                    -0.89655   1.73678   0.45053 
 C                    -1.42916  -0.20562  -1.04058 
 C                    -1.24915  -0.53659   1.43973 
 H                     2.50231   0.36622  -1.48959 
 H                     2.54055  -2.32471  -1.28441 
 H                     3.16393  -1.10362   0.00481 
 H                     1.95561   0.89967  -1.24496 
 H                     1.46808   0.42398   0.8235 
 H                    -0.35073   2.08327   1.33181 
 H                    -1.9544    1.95947   0.60647 
 H                    -0.54707   2.30866  -0.41089 
 H                    -1.31803  -1.27696  -1.2131 
 H                    -1.04097   0.31777  -1.91627 
 H                    -2.49554   0.01357  -0.95177 
 H                    -1.11244  -1.61207   1.3098 
 H                    -2.31742  -0.34152   1.56617 
 H                    -0.74208  -0.23812   2.36031 
 
                    Distance matrix (angstroms):
                    1          2          3          4          5
     1  C    0.000000
     2  O    1.317486   0.000000
     3  C    2.311532   1.294539   0.000000
     4  C    3.656484   2.402168   1.502766   0.000000
     5  C    4.724015   3.628276   2.449960   1.531371   0.000000
     6  C    4.050662   2.795143   2.495612   1.529400   2.505990
     7  C    4.356454   3.151648   2.482991   1.539001   2.504205
     8  H    1.929351   2.206226   2.379033   3.633558   4.146647
     9  H    1.079180   2.004026   3.218903   4.395502   5.596368
    10  H    1.083600   2.060169   2.622463   4.092474   4.975340
    11  H    2.408825   2.263515   2.011779   3.106080   3.422018
    12  H    2.584833   2.036442   1.087821   2.253491   2.730202
    13  H    4.913386   3.968513   2.681420   2.180629   1.092990
    14  H    5.684111   4.503600   3.410243   2.167614   1.092230
    15  H    4.769145   3.807599   2.726454   2.175117   1.091435
    16  H    3.778402   2.591579   2.779869   2.178932   3.468130
    17  H    4.050365   2.974892   2.741287   2.173162   2.763370
    18  H    5.128011   3.851956   3.441693   2.162225   2.737276
    19  H    4.090526   2.961337   2.752215   2.180433   3.464066
    20  H    5.377388   4.123130   3.439368   2.179188   2.753697
    21  H    4.577976   3.547801   2.728948   2.184701   2.751602
                    6          7          8          9         10
     6  C    0.000000
     7  C    2.508755   0.000000
     8  H    3.998127   4.844519   0.000000
     9  H    4.506502   4.998010   2.699013   0.000000
    10  H    4.795384   4.675017   2.198046   1.881960   0.000000
    11  H    3.566520   4.420502   0.802055   3.277247   2.652385
    12  H    3.502169   2.947166   2.534429   3.626128   2.424815
    13  H    3.468467   2.771729   4.364449   5.885106   4.926469
    14  H    2.770609   2.724339   5.176307   6.491088   5.995152
    15  H    2.737917   3.465999   3.772976   5.636004   5.058458
    16  H    1.090816   2.755064   4.167910   3.998940   4.647728
    17  H    1.091548   3.469297   3.569201   4.495464   4.836538
    18  H    1.092288   2.752348   5.039052   5.562404   5.847456
    19  H    2.757297   1.091893   4.981628   4.536753   4.499877
    20  H    2.757277   1.093273   5.750503   5.971489   5.750117
    21  H    3.469743   1.092549   5.070792   5.330428   4.642668
                   11         12         13         14         15
    11  H    0.000000
    12  H    2.177723   0.000000
    13  H    3.655116   2.513905   0.000000
    14  H    4.454114   3.757421   1.764423   0.000000
    15  H    2.990704   3.022675   1.768152   1.771310   0.000000
    16  H    3.931342   3.847518   4.324744   3.767000   3.754276
    17  H    3.125496   3.716582   3.760784   3.145442   2.544358
    18  H    4.547946   4.362374   3.754813   2.550980   3.058844
    19  H    4.716839   3.322818   3.773097   3.736240   4.318861
    20  H    5.263243   3.932886   3.130880   2.519397   3.750513
    21  H    4.644352   2.772178   2.569011   3.061871   3.768772
                   16         17         18         19         20
    16  H    0.000000
    17  H    1.764761   0.000000
    18  H    1.766426   1.771603   0.000000
    19  H    2.553350   3.759915   3.109720   0.000000
    20  H    3.098084   3.767144   2.549080   1.769745   0.000000
    21  H    3.765650   4.322901   3.756035   1.768748   1.767215
                   21
    21  H    0.000000
 Symmetry turned off by external request.
 Rotational constants (GHZ):           4.1025706           1.5537563           1.5261458
   287 basis functions,   455 primitive gaussians,   301 cartesian basis functions
    29 alpha electrons       29 beta electrons
       nuclear repulsion energy       341.2842227087 Hartrees.
 NAtoms=   21 NActive=   21 NUniq=   21 SFac= 1.00D+00 NAtFMM=   60 NAOKFM=F Big=F
 ExpMin= 2.97D-02 ExpMax= 1.17D+04 ExpMxC= 4.01D+02 IAcc=3 IRadAn=         5 AccDes= 0.00D+00
 Harris functional with IExCor=  205 and IRadAn=       5 diagonalized for initial guess.
 HarFok:  IExCor=  205 AccDes= 0.00D+00 IRadAn=         5 IDoV= 1 UseB2=F ITyADJ=14
 ICtDFT=  3500011 ScaDFX=  1.000000  1.000000  1.000000  1.000000
 FoFCou: FMM=F IPFlag=           0 FMFlag=      100000 FMFlg1=           0
         NFxFlg=           0 DoJE=T BraDBF=F KetDBF=T FulRan=T
         wScrn=  0.000000 ICntrl=       500 IOpCl=  0 I1Cent=   200000004 NGrid=           0
         NMat0=    1 NMatS0=      1 NMatT0=    0 NMatD0=    1 NMtDS0=    0 NMtDT0=    0
 Symmetry not used in FoFCou.
 SCF Done:  E(RHF) =  -310.064532002     A.U. after   15 cycles
            NFock= 15  Conv=0.38D-08     -V/T= 2.0010

 **********************************************************************

            Population analysis using the SCF Density.

 **********************************************************************

 Alpha  occ. eigenvalues --  -20.67470 -11.30795 -11.27115 -11.25542 -11.22806
 Alpha  occ. eigenvalues --  -11.22662 -11.22115  -1.49705  -1.12334  -0.99940
 Alpha  occ. eigenvalues --   -0.94205  -0.94041  -0.84823  -0.78039  -0.70485
 Alpha  occ. eigenvalues --   -0.68158  -0.67476  -0.60973  -0.59958  -0.59412
 Alpha  occ. eigenvalues --   -0.54733  -0.54044  -0.53545  -0.51860  -0.50304
 Alpha  occ. eigenvalues --   -0.47979  -0.47433  -0.46926  -0.25416
 Alpha virt. eigenvalues --    0.03440   0.04189   0.04446   0.04893   0.06060
 Alpha virt. eigenvalues --    0.06247   0.06791   0.06939   0.07419   0.08476
 Alpha virt. eigenvalues --    0.08662   0.09341   0.09475   0.09723   0.11650
 Alpha virt. eigenvalues --    0.12673   0.13496   0.14345   0.15026   0.15882
 Alpha virt. eigenvalues --    0.16063   0.16428   0.17161   0.17338   0.17891
 Alpha virt. eigenvalues --    0.18405   0.19158   0.19351   0.20094   0.20818
 Alpha virt. eigenvalues --    0.21086   0.21655   0.22033   0.22496   0.22962
 Alpha virt. eigenvalues --    0.23341   0.25466   0.26728   0.27336   0.28494
 Alpha virt. eigenvalues --    0.30344   0.31216   0.32332   0.32826   0.34016
 Alpha virt. eigenvalues --    0.34626   0.35151   0.35465   0.36860   0.38527
 Alpha virt. eigenvalues --    0.38929   0.39396   0.41080   0.41569   0.41947
 Alpha virt. eigenvalues --    0.42623   0.43173   0.43572   0.44179   0.45580
 Alpha virt. eigenvalues --    0.46021   0.46466   0.47115   0.47370   0.48360
 Alpha virt. eigenvalues --    0.48903   0.49687   0.49954   0.50380   0.51398
 Alpha virt. eigenvalues --    0.51763   0.52164   0.53892   0.54438   0.54611
 Alpha virt. eigenvalues --    0.55291   0.56720   0.56993   0.57850   0.58815
 Alpha virt. eigenvalues --    0.60091   0.60943   0.61126   0.61493   0.62944
 Alpha virt. eigenvalues --    0.63070   0.63524   0.64275   0.64841   0.65270
 Alpha virt. eigenvalues --    0.66261   0.67328   0.67574   0.68346   0.68991
 Alpha virt. eigenvalues --    0.69801   0.70793   0.71518   0.72079   0.72422
 Alpha virt. eigenvalues --    0.72831   0.73851   0.74203   0.75830   0.76424
 Alpha virt. eigenvalues --    0.77597   0.78228   0.78903   0.79418   0.81577
 Alpha virt. eigenvalues --    0.82318   0.82859   0.83670   0.84548   0.85010
 Alpha virt. eigenvalues --    0.85649   0.87876   0.88383   0.89635   0.90140
 Alpha virt. eigenvalues --    0.90620   0.91184   0.92364   0.93022   0.93728
 Alpha virt. eigenvalues --    0.94566   0.96276   0.98292   1.01140   1.03205
 Alpha virt. eigenvalues --    1.04409   1.04840   1.06958   1.09086   1.10211
 Alpha virt. eigenvalues --    1.10947   1.11274   1.12173   1.14706   1.16923
 Alpha virt. eigenvalues --    1.18389   1.19164   1.21168   1.26522   1.27464
 Alpha virt. eigenvalues --    1.29051   1.30377   1.32614   1.34682   1.36232
 Alpha virt. eigenvalues --    1.38123   1.39853   1.42373   1.42877   1.44223
 Alpha virt. eigenvalues --    1.45777   1.46652   1.54223   1.55512   1.57222
 Alpha virt. eigenvalues --    1.60604   1.61323   1.63583   1.63999   1.68180
 Alpha virt. eigenvalues --    1.69467   1.70929   1.73495   1.73887   1.75883
 Alpha virt. eigenvalues --    1.77267   1.78975   1.81831   1.82248   1.84003
 Alpha virt. eigenvalues --    1.85974   1.87126   1.89022   1.91739   1.93333
 Alpha virt. eigenvalues --    1.94172   1.94971   1.98958   1.99654   2.00257
 Alpha virt. eigenvalues --    2.02023   2.04297   2.04495   2.05934   2.06122
 Alpha virt. eigenvalues --    2.09173   2.10574   2.12703   2.13476   2.14396
 Alpha virt. eigenvalues --    2.17031   2.21136   2.22559   2.23150   2.24214
 Alpha virt. eigenvalues --    2.25780   2.27066   2.29408   2.31187   2.32626
 Alpha virt. eigenvalues --    2.33874   2.34017   2.34604   2.37110   2.38009
 Alpha virt. eigenvalues --    2.39173   2.41583   2.42334   2.46393   2.48286
 Alpha virt. eigenvalues --    2.51111   2.53799   2.55941   2.56606   2.57325
 Alpha virt. eigenvalues --    2.58286   2.61011   2.61810   2.63540   2.64663
 Alpha virt. eigenvalues --    2.66410   2.68653   2.73355   2.75500   2.78400
 Alpha virt. eigenvalues --    2.80004   2.83560   2.85663   2.88056   2.89061
 Alpha virt. eigenvalues --    2.92355   2.93931   2.94223   3.00267   3.03702
 Alpha virt. eigenvalues --    3.04149   3.08740   3.10908   3.16076   3.20520
 Alpha virt. eigenvalues --    3.27186   3.32776   3.42429   3.46504   3.51982
 Alpha virt. eigenvalues --    3.57467   3.60264   3.77379   3.83868   3.91195
 Alpha virt. eigenvalues --    3.97967   4.15368   4.26911
          Condensed to atoms (all electrons):
 Mulliken charges:
               1
     1  C    0.767595
     2  O   -0.514684
     3  C    0.925065
     4  C   -3.559238
     5  C    1.225317
     6  C    1.252668
     7  C    1.141750
     8  H   -0.032891
     9  H   -0.398799
    10  H   -0.239188
    11  H    0.239021
    12  H   -0.515733
    13  H   -0.048695
    14  H   -0.021707
    15  H   -0.001880
    16  H   -0.039930
    17  H   -0.028597
    18  H   -0.017055
    19  H   -0.051641
    20  H   -0.042852
    21  H   -0.038529
 Sum of Mulliken charges =  -0.00000
 Mulliken charges with hydrogens summed into heavy atoms:
               1
     1  C    0.096718
     2  O   -0.514684
     3  C    0.648353
     4  C   -3.559238
     5  C    1.153036
     6  C    1.167086
     7  C    1.008729
 Electronic spatial extent (au):  <R**2>=            988.0642
 Charge=             -0.0000 electrons
 Dipole moment (field-independent basis, Debye):
    X=             -1.0981    Y=              0.1249    Z=              1.6382  Tot=              1.9761
 NROrb=    287 NOA=    29 NOB=    29 NVA=   258 NVB=   258

 **** Warning!!: The largest alpha MO coefficient is  0.10266057D+03

    12 initial guesses have been made.
 Iteration     1 Dimension    12 NMult     0 NNew     12
 New state      1 was old state      2
 Iteration     2 Dimension    24 NMult    12 NNew     12
 Iteration     3 Dimension    27 NMult    24 NNew      3
 Iteration     4 Dimension    30 NMult    27 NNew      3
 Iteration     5 Dimension    33 NMult    30 NNew      3
 Iteration     6 Dimension    36 NMult    33 NNew      3
 Iteration     7 Dimension    39 NMult    36 NNew      3
 ***********************************************************************
 Stability analysis using <AA,BB:AA,BB> singles matrix:
 ***********************************************************************
 Ground to excited state transition densities written to RWF  633

 Eigenvectors of the stability matrix:
 
 Excited state symmetry could not be determined.
 Eigenvector   1:      Singlet-?Sym  Eigenvalue= 0.1463676  <S**2>=0.000
      29 -> 30        -0.33127
      29 -> 31         0.30877
      29 -> 34         0.15748
      29 -> 39        -0.19177
      29 -> 40         0.30725
      29 -> 41        -0.13393
      29 -> 43        -0.20156
 The wavefunction is stable under the perturbations considered.
 The wavefunction is already stable.

 **********************************************************************

            Population analysis using the SCF Density.

 **********************************************************************

 Alpha  occ. eigenvalues --  -20.67470 -11.30795 -11.27115 -11.25542 -11.22806
 Alpha  occ. eigenvalues --  -11.22662 -11.22115  -1.49705  -1.12334  -0.99940
 Alpha  occ. eigenvalues --   -0.94205  -0.94041  -0.84823  -0.78039  -0.70485
 Alpha  occ. eigenvalues --   -0.68158  -0.67476  -0.60973  -0.59958  -0.59412
 Alpha  occ. eigenvalues --   -0.54733  -0.54044  -0.53545  -0.51860  -0.50304
 Alpha  occ. eigenvalues --   -0.47979  -0.47433  -0.46926  -0.25416
 Alpha virt. eigenvalues --    0.03440   0.04189   0.04446   0.04893   0.06060
 Alpha virt. eigenvalues --    0.06247   0.06791   0.06939   0.07419   0.08476
 Alpha virt. eigenvalues --    0.08662   0.09341   0.09475   0.09723   0.11650
 Alpha virt. eigenvalues --    0.12673   0.13496   0.14345   0.15026   0.15882
 Alpha virt. eigenvalues --    0.16063   0.16428   0.17161   0.17338   0.17891
 Alpha virt. eigenvalues --    0.18405   0.19158   0.19351   0.20094   0.20818
 Alpha virt. eigenvalues --    0.21086   0.21655   0.22033   0.22496   0.22962
 Alpha virt. eigenvalues --    0.23341   0.25466   0.26728   0.27336   0.28494
 Alpha virt. eigenvalues --    0.30344   0.31216   0.32332   0.32826   0.34016
 Alpha virt. eigenvalues --    0.34626   0.35151   0.35465   0.36860   0.38527
 Alpha virt. eigenvalues --    0.38929   0.39396   0.41080   0.41569   0.41947
 Alpha virt. eigenvalues --    0.42623   0.43173   0.43572   0.44179   0.45580
 Alpha virt. eigenvalues --    0.46021   0.46466   0.47115   0.47370   0.48360
 Alpha virt. eigenvalues --    0.48903   0.49687   0.49954   0.50380   0.51398
 Alpha virt. eigenvalues --    0.51763   0.52164   0.53892   0.54438   0.54611
 Alpha virt. eigenvalues --    0.55291   0.56720   0.56993   0.57850   0.58815
 Alpha virt. eigenvalues --    0.60091   0.60943   0.61126   0.61493   0.62944
 Alpha virt. eigenvalues --    0.63070   0.63524   0.64275   0.64841   0.65270
 Alpha virt. eigenvalues --    0.66261   0.67328   0.67574   0.68346   0.68991
 Alpha virt. eigenvalues --    0.69801   0.70793   0.71518   0.72079   0.72422
 Alpha virt. eigenvalues --    0.72831   0.73851   0.74203   0.75830   0.76424
 Alpha virt. eigenvalues --    0.77597   0.78228   0.78903   0.79418   0.81577
 Alpha virt. eigenvalues --    0.82318   0.82859   0.83670   0.84548   0.85010
 Alpha virt. eigenvalues --    0.85649   0.87876   0.88383   0.89635   0.90140
 Alpha virt. eigenvalues --    0.90620   0.91184   0.92364   0.93022   0.93728
 Alpha virt. eigenvalues --    0.94566   0.96276   0.98292   1.01140   1.03205
 Alpha virt. eigenvalues --    1.04409   1.04840   1.06958   1.09086   1.10211
 Alpha virt. eigenvalues --    1.10947   1.11274   1.12173   1.14706   1.16923
 Alpha virt. eigenvalues --    1.18389   1.19164   1.21168   1.26522   1.27464
 Alpha virt. eigenvalues --    1.29051   1.30377   1.32614   1.34682   1.36232
 Alpha virt. eigenvalues --    1.38123   1.39853   1.42373   1.42877   1.44223
 Alpha virt. eigenvalues --    1.45777   1.46652   1.54223   1.55512   1.57222
 Alpha virt. eigenvalues --    1.60604   1.61323   1.63583   1.63999   1.68180
 Alpha virt. eigenvalues --    1.69467   1.70929   1.73495   1.73887   1.75883
 Alpha virt. eigenvalues --    1.77267   1.78975   1.81831   1.82248   1.84003
 Alpha virt. eigenvalues --    1.85974   1.87126   1.89022   1.91739   1.93333
 Alpha virt. eigenvalues --    1.94172   1.94971   1.98958   1.99654   2.00257
 Alpha virt. eigenvalues --    2.02023   2.04297   2.04495   2.05934   2.06122
 Alpha virt. eigenvalues --    2.09173   2.10574   2.12703   2.13476   2.14396
 Alpha virt. eigenvalues --    2.17031   2.21136   2.22559   2.23150   2.24214
 Alpha virt. eigenvalues --    2.25780   2.27066   2.29408   2.31187   2.32626
 Alpha virt. eigenvalues --    2.33874   2.34017   2.34604   2.37110   2.38009
 Alpha virt. eigenvalues --    2.39173   2.41583   2.42334   2.46393   2.48286
 Alpha virt. eigenvalues --    2.51111   2.53799   2.55941   2.56606   2.57325
 Alpha virt. eigenvalues --    2.58286   2.61011   2.61810   2.63540   2.64663
 Alpha virt. eigenvalues --    2.66410   2.68653   2.73355   2.75500   2.78400
 Alpha virt. eigenvalues --    2.80004   2.83560   2.85663   2.88056   2.89061
 Alpha virt. eigenvalues --    2.92355   2.93931   2.94223   3.00267   3.03702
 Alpha virt. eigenvalues --    3.04149   3.08740   3.10908   3.16076   3.20520
 Alpha virt. eigenvalues --    3.27186   3.32776   3.42429   3.46504   3.51982
 Alpha virt. eigenvalues --    3.57467   3.60264   3.77379   3.83868   3.91195
 Alpha virt. eigenvalues --    3.97967   4.15368   4.26911
          Condensed to atoms (all electrons):
 Mulliken charges:
               1
     1  C    0.767595
     2  O   -0.514684
     3  C    0.925065
     4  C   -3.559238
     5  C    1.225317
     6  C    1.252668
     7  C    1.141750
     8  H   -0.032891
     9  H   -0.398799
    10  H   -0.239188
    11  H    0.239021
    12  H   -0.515733
    13  H   -0.048695
    14  H   -0.021707
    15  H   -0.001880
    16  H   -0.039930
    17  H   -0.028597
    18  H   -0.017055
    19  H   -0.051641
    20  H   -0.042852
    21  H   -0.038529
 Sum of Mulliken charges =  -0.00000
 Mulliken charges with hydrogens summed into heavy atoms:
               1
     1  C    0.096718
     2  O   -0.514684
     3  C    0.648353
     4  C   -3.559238
     5  C    1.153036
     6  C    1.167086
     7  C    1.008729
 Electronic spatial extent (au):  <R**2>=            988.0642
 Charge=             -0.0000 electrons
 Dipole moment (field-independent basis, Debye):
    X=             -1.0981    Y=              0.1249    Z=              1.6382  Tot=              1.9761
 Unable to Open any file for archive entry.
 1\1\GINC-SE232\Stability\RHF\Aug-CC-pVDZ\C6H14O1\OHZDE\09-Apr-2025\0\\
 #t hf aug-cc-pvdz symm=none int=(grid=ultrafine) guess=(read,tcheck) s
 table=(opt,rrhf)\\title\\0,1\C,0,2.42715231,-1.40575605,-0.73007756\O,
 0,1.16804721,-1.08946058,-0.5056211\C,0,0.77950752,-0.01659151,0.10578
 632\C,0,-0.69702924,0.23487027,0.22789589\C,0,-0.89654524,1.73677681,0
 .45053088\C,0,-1.42915829,-0.20562184,-1.04057513\C,0,-1.24914787,-0.5
 3659063,1.43972857\H,0,2.50230513,0.36621705,-1.48958901\H,0,2.5405457
 2,-2.3247139,-1.28441282\H,0,3.16393163,-1.10362199,0.00481089\H,0,1.9
 5560584,0.89966742,-1.24496011\H,0,1.46808342,0.42398294,0.82349944\H,
 0,-0.35073273,2.08327293,1.33181222\H,0,-1.95439918,1.95947167,0.60647
 315\H,0,-0.54706932,2.30865838,-0.41089152\H,0,-1.3180349,-1.27696039,
 -1.21309774\H,0,-1.04096834,0.31776752,-1.91627415\H,0,-2.49553726,0.0
 1356565,-0.95176941\H,0,-1.11244184,-1.61207233,1.30980273\H,0,-2.3174
 2052,-0.34152112,1.56616545\H,0,-0.74207904,-0.23812029,2.36030503\\Ve
 rsion=ES64L-G16RevC.01\HF=-310.064532\RMSD=3.756e-09\Dipole=-0.4320295
 ,0.0491387,0.6445201\Quadrupole=0.1812602,0.333453,-0.5147132,-0.73784
 21,2.5807357,0.9169113\PG=Unknown\\@
 The archive entry for this job was punched.


 BOOKS ARE LIGHTHOUSES ERECTED IN THE GREAT SEA OF TIME.
     -- E.P.WHIPPLE
 Job cpu time:       0 days  0 hours 17 minutes  9.2 seconds.
 Elapsed time:       0 days  0 hours  1 minutes 12.4 seconds.
 File lengths (MBytes):  RWF=    323 Int=      0 D2E=      0 Chk=     11 Scr=      1
 Normal termination of Gaussian 16 at Wed Apr  9 16:36:45 2025.
 Initial command:
 /arc/software/Gaussian/g16.c01/l1.exe "/tmp/slurm/4878068/Gau-2741587.inp" -scrdir="/tmp/slurm/4878068/"
 Entering Link 1 = /arc/software/Gaussian/g16.c01/l1.exe PID=   2741820.
  
 Copyright (c) 1988-2019, Gaussian, Inc.  All Rights Reserved.
  
 This is part of the Gaussian(R) 16 program.  It is based on
 the Gaussian(R) 09 system (copyright 2009, Gaussian, Inc.),
 the Gaussian(R) 03 system (copyright 2003, Gaussian, Inc.),
 the Gaussian(R) 98 system (copyright 1998, Gaussian, Inc.),
 the Gaussian(R) 94 system (copyright 1995, Gaussian, Inc.),
 the Gaussian 92(TM) system (copyright 1992, Gaussian, Inc.),
 the Gaussian 90(TM) system (copyright 1990, Gaussian, Inc.),
 the Gaussian 88(TM) system (copyright 1988, Gaussian, Inc.),
 the Gaussian 86(TM) system (copyright 1986, Carnegie Mellon
 University), and the Gaussian 82(TM) system (copyright 1983,
 Carnegie Mellon University). Gaussian is a federally registered
 trademark of Gaussian, Inc.
  
 This software contains proprietary and confidential information,
 including trade secrets, belonging to Gaussian, Inc.
  
 This software is provided under written license and may be
 used, copied, transmitted, or stored only in accord with that
 written license.
  
 The following legend is applicable only to US Government
 contracts under FAR:
  
                    RESTRICTED RIGHTS LEGEND
  
 Use, reproduction and disclosure by the US Government is
 subject to restrictions as set forth in subparagraphs (a)
 and (c) of the Commercial Computer Software - Restricted
 Rights clause in FAR 52.227-19.
  
 Gaussian, Inc.
 340 Quinnipiac St., Bldg. 40, Wallingford CT 06492
  
  
 ---------------------------------------------------------------
 Warning -- This program may not be used in any manner that
 competes with the business of Gaussian, Inc. or will provide
 assistance to any competitor of Gaussian, Inc.  The licensee
 of this program is prohibited from giving any competitor of
 Gaussian, Inc. access to this program.  By using this program,
 the user acknowledges that Gaussian, Inc. is engaged in the
 business of creating and licensing software in the field of
 computational chemistry and represents and warrants to the
 licensee that it is not a competitor of Gaussian, Inc. and that
 it will not use this program in any manner prohibited above.
 ---------------------------------------------------------------
  

 Cite this work as:
 Gaussian 16, Revision C.01,
 M. J. Frisch, G. W. Trucks, H. B. Schlegel, G. E. Scuseria, 
 M. A. Robb, J. R. Cheeseman, G. Scalmani, V. Barone, 
 G. A. Petersson, H. Nakatsuji, X. Li, M. Caricato, A. V. Marenich, 
 J. Bloino, B. G. Janesko, R. Gomperts, B. Mennucci, H. P. Hratchian, 
 J. V. Ortiz, A. F. Izmaylov, J. L. Sonnenberg, D. Williams-Young, 
 F. Ding, F. Lipparini, F. Egidi, J. Goings, B. Peng, A. Petrone, 
 T. Henderson, D. Ranasinghe, V. G. Zakrzewski, J. Gao, N. Rega, 
 G. Zheng, W. Liang, M. Hada, M. Ehara, K. Toyota, R. Fukuda, 
 J. Hasegawa, M. Ishida, T. Nakajima, Y. Honda, O. Kitao, H. Nakai, 
 T. Vreven, K. Throssell, J. A. Montgomery, Jr., J. E. Peralta, 
 F. Ogliaro, M. J. Bearpark, J. J. Heyd, E. N. Brothers, K. N. Kudin, 
 V. N. Staroverov, T. A. Keith, R. Kobayashi, J. Normand, 
 K. Raghavachari, A. P. Rendell, J. C. Burant, S. S. Iyengar, 
 J. Tomasi, M. Cossi, J. M. Millam, M. Klene, C. Adamo, R. Cammi, 
 J. W. Ochterski, R. L. Martin, K. Morokuma, O. Farkas, 
 J. B. Foresman, and D. J. Fox, Gaussian, Inc., Wallingford CT, 2019.
 
 ******************************************
 Gaussian 16:  ES64L-G16RevC.01  3-Jul-2019
                 9-Apr-2025 
 ******************************************
 %nprocs=16
 Will use up to   16 processors via shared memory.
 %mem=30GB
 %chk=Grambow2020_wb97xd3_008659_reverse_mol1.chk
 ----------------------------------------------------------------------
 #t hf aug-cc-pvdz iop(5/13=1,5/36=2,99/5=2) pseudo=read geom=check gue
 ss=(read,tcheck) scf=(maxcycle=1)
 ----------------------------------------------------------------------
 -----
 title
 -----
 Structure from the checkpoint file:  "Grambow2020_wb97xd3_008659_reverse_mol1.chk"
 Charge =  0 Multiplicity = 1
 Z-Matrix found in chk file.
 C,0,2.42715231,-1.40575605,-0.73007756
 O,0,1.16804721,-1.08946058,-0.5056211
 C,0,0.77950752,-0.01659151,0.10578632
 C,0,-0.69702924,0.23487027,0.22789589
 C,0,-0.89654524,1.73677681,0.45053088
 C,0,-1.42915829,-0.20562184,-1.04057513
 C,0,-1.24914787,-0.53659063,1.43972857
 H,0,2.50230513,0.36621705,-1.48958901
 H,0,2.54054572,-2.3247139,-1.28441282
 H,0,3.16393163,-1.10362199,0.00481089
 H,0,1.95560584,0.89966742,-1.24496011
 H,0,1.46808342,0.42398294,0.82349944
 H,0,-0.35073273,2.08327293,1.33181222
 H,0,-1.95439918,1.95947167,0.60647315
 H,0,-0.54706932,2.30865838,-0.41089152
 H,0,-1.3180349,-1.27696039,-1.21309774
 H,0,-1.04096834,0.31776752,-1.91627415
 H,0,-2.49553726,0.01356565,-0.95176941
 H,0,-1.11244184,-1.61207233,1.30980273
 H,0,-2.31742052,-0.34152112,1.56616545
 H,0,-0.74207904,-0.23812029,2.36030503
 Recover connectivity data from disk.
                    Distance matrix (angstroms):
                    1          2          3          4          5
     1  C    0.000000
     2  O    1.317486   0.000000
     3  C    2.311532   1.294539   0.000000
     4  C    3.656484   2.402168   1.502766   0.000000
     5  C    4.724015   3.628276   2.449960   1.531371   0.000000
     6  C    4.050662   2.795143   2.495612   1.529400   2.505990
     7  C    4.356454   3.151648   2.482991   1.539001   2.504205
     8  H    1.929351   2.206226   2.379033   3.633558   4.146647
     9  H    1.079180   2.004026   3.218903   4.395502   5.596368
    10  H    1.083600   2.060169   2.622463   4.092474   4.975340
    11  H    2.408825   2.263515   2.011779   3.106080   3.422018
    12  H    2.584833   2.036442   1.087821   2.253491   2.730202
    13  H    4.913386   3.968513   2.681420   2.180629   1.092990
    14  H    5.684111   4.503600   3.410243   2.167614   1.092230
    15  H    4.769145   3.807599   2.726454   2.175117   1.091435
    16  H    3.778402   2.591579   2.779869   2.178932   3.468130
    17  H    4.050365   2.974892   2.741287   2.173162   2.763370
    18  H    5.128011   3.851956   3.441693   2.162225   2.737276
    19  H    4.090526   2.961337   2.752215   2.180433   3.464066
    20  H    5.377388   4.123130   3.439368   2.179188   2.753697
    21  H    4.577976   3.547801   2.728948   2.184701   2.751602
                    6          7          8          9         10
     6  C    0.000000
     7  C    2.508755   0.000000
     8  H    3.998127   4.844519   0.000000
     9  H    4.506502   4.998010   2.699013   0.000000
    10  H    4.795384   4.675017   2.198046   1.881960   0.000000
    11  H    3.566520   4.420502   0.802055   3.277247   2.652385
    12  H    3.502169   2.947166   2.534429   3.626128   2.424815
    13  H    3.468467   2.771729   4.364449   5.885106   4.926469
    14  H    2.770609   2.724339   5.176307   6.491088   5.995152
    15  H    2.737917   3.465999   3.772976   5.636004   5.058458
    16  H    1.090816   2.755064   4.167910   3.998940   4.647728
    17  H    1.091548   3.469297   3.569201   4.495464   4.836538
    18  H    1.092288   2.752348   5.039052   5.562404   5.847456
    19  H    2.757297   1.091893   4.981628   4.536753   4.499877
    20  H    2.757277   1.093273   5.750503   5.971489   5.750117
    21  H    3.469743   1.092549   5.070792   5.330428   4.642668
                   11         12         13         14         15
    11  H    0.000000
    12  H    2.177723   0.000000
    13  H    3.655116   2.513905   0.000000
    14  H    4.454114   3.757421   1.764423   0.000000
    15  H    2.990704   3.022675   1.768152   1.771310   0.000000
    16  H    3.931342   3.847518   4.324744   3.767000   3.754276
    17  H    3.125496   3.716582   3.760784   3.145442   2.544358
    18  H    4.547946   4.362374   3.754813   2.550980   3.058844
    19  H    4.716839   3.322818   3.773097   3.736240   4.318861
    20  H    5.263243   3.932886   3.130880   2.519397   3.750513
    21  H    4.644352   2.772178   2.569011   3.061871   3.768772
                   16         17         18         19         20
    16  H    0.000000
    17  H    1.764761   0.000000
    18  H    1.766426   1.771603   0.000000
    19  H    2.553350   3.759915   3.109720   0.000000
    20  H    3.098084   3.767144   2.549080   1.769745   0.000000
    21  H    3.765650   4.322901   3.756035   1.768748   1.767215
                   21
    21  H    0.000000
 Framework group  C1[X(C6H14O)]
 Deg. of freedom    57
                         Standard orientation:                         
 ---------------------------------------------------------------------
 Center     Atomic      Atomic             Coordinates (Angstroms)
 Number     Number       Type             X           Y           Z
 ---------------------------------------------------------------------
      1          6           0       -2.779991   -0.071887   -0.106049
      2          8           0       -1.503434   -0.322249    0.102492
      3          6           0       -0.529845    0.376290   -0.387406
      4          6           0        0.874352    0.001798   -0.004927
      5          6           0        1.758552    1.234222   -0.215677
      6          6           0        0.938455   -0.441562    1.457396
      7          6           0        1.365855   -1.138222   -0.914490
      8          1           0       -2.300157    1.696985    0.496652
      9          1           0       -3.435639   -0.750289    0.417903
     10          1           0       -3.063601    0.349592   -1.063186
     11          1           0       -1.531760    1.917187    0.430552
     12          1           0       -0.717518    0.906830   -1.318352
     13          1           0        1.699791    1.593231   -1.246351
     14          1           0        2.802942    0.991283   -0.007841
     15          1           0        1.456008    2.048929    0.444587
     16          1           0        0.330353   -1.330289    1.631336
     17          1           0        0.577756    0.347325    2.119991
     18          1           0        1.969006   -0.678300    1.731281
     19          1           0        0.746568   -2.028724   -0.789108
     20          1           0        2.398586   -1.404539   -0.674098
     21          1           0        1.330872   -0.845059   -1.966391
 ---------------------------------------------------------------------
 Rotational constants (GHZ):           4.1025706           1.5537563           1.5261458
 ======================================================================================================
                                       Pseudopotential Parameters
 ======================================================================================================
  Center     Atomic      Valence      Angular      Power
  Number     Number     Electrons     Momentum     of R      Exponent        Coefficient   SO-Coeffient
 ======================================================================================================
    1          6            6
                                      G and up 
                                                     0        0.0000010       -0.00011185    0.00000000
                                                     2        0.1200000       -0.02301220    0.00000000
                                                     2        0.1400000        0.13317600    0.00000000
                                                     2        0.1600000       -0.19690668    0.00000000
                                                     2        0.2200000        0.23163694    0.00000000
                                                     2        0.3000000       -0.36920489    0.00000000
                                                     2        0.4000000        0.36389709    0.00000000
                                                     2        0.7000000       -0.38862160    0.00000000
                                                     2        1.3000000        0.80803421    0.00000000
                                      S - G
                                                     0        0.0000010        0.00312304    0.00000000
                                                     2        0.1200000       -0.00632892    0.00000000
                                                     2        0.2200000       -0.03780897    0.00000000
                                                     2        0.4000000        0.26269560    0.00000000
                                                     2        0.9000000       -0.28209514    0.00000000
                                                     2        1.5000000       -0.72686737    0.00000000
                                      P - G
                                                     0        0.0000010       -0.01465594    0.00000000
                                                     2        0.1200000        0.07908409    0.00000000
                                                     2        0.1800000       -0.30615861    0.00000000
                                                     2        0.2600000        0.41506950    0.00000000
                                                     2        0.5000000       -0.36252345    0.00000000
                                                     2        0.9000000        0.15124193    0.00000000
                                                     2        3.0000000       -0.80425677    0.00000000
                                      D - G
                                                     0        0.0000010        0.01149631    0.00000000
                                                     2        0.1200000       -0.04713561    0.00000000
                                                     2        0.1600000        0.10865096    0.00000000
                                                     2        0.2800000       -0.15816701    0.00000000
                                                     2        0.7000000        0.65478804    0.00000000
                                                     2        1.3000000       -1.73816624    0.00000000
                                      F - G
                                                     0        0.0000010        0.00481868    0.00000000
                                                     2        0.1200000       -0.04746842    0.00000000
                                                     2        0.1600000        0.09327889    0.00000000
                                                     2        0.4000000       -0.19693326    0.00000000
                                                     2        0.9000000        0.34938253    0.00000000
    2          8            8
                                      G and up 
                                                     0        0.0000010        0.00001165    0.00000000
                                                     2        0.1200000       -0.01744018    0.00000000
                                                     2        0.1400000        0.05401326    0.00000000
                                                     2        0.1800000       -0.08231208    0.00000000
                                                     2        0.2600000        0.11570222    0.00000000
                                                     2        0.4000000       -0.20630360    0.00000000
                                                     2        0.7000000        0.38074319    0.00000000
                                                     2        1.2000000       -0.17045091    0.00000000
                                                     2        2.0000000       -1.45433187    0.00000000
                                      S - G
                                                     0        0.0000010       -0.00117944    0.00000000
                                                     2        0.1400000        0.04368312    0.00000000
                                                     2        0.3000000       -0.33477926    0.00000000
                                                     2        0.6000000        1.52630657    0.00000000
                                                     2        1.5000000       -2.50804716    0.00000000
                                                     2        3.0000000        2.89751681    0.00000000
                                      P - G
                                                     0        0.0000010        0.06576007    0.00000000
                                                     2        0.1200000       -0.10329304    0.00000000
                                                     2        0.2000000        0.24891756    0.00000000
                                                     2        0.4000000       -0.50800022    0.00000000
                                                     2        0.9000000        0.81480796    0.00000000
                                      D - G
                                                     0        0.0000010       -0.14101855    0.00000000
                                                     2        0.1200000        0.22105937    0.00000000
                                                     2        0.1800000       -0.45814988    0.00000000
                                                     2        0.3000000        0.46029282    0.00000000
                                      F - G
                                                     0        0.0000010        0.07483044    0.00000000
                                                     2        0.1200000       -0.09134252    0.00000000
                                                     2        0.1400000        0.04125459    0.00000000
                                                     2        0.3000000        0.37914837    0.00000000
                                                     2        0.5000000       -0.86881279    0.00000000
    3          6            6
                                      G and up 
                                                     0        0.0000010       -0.00011185    0.00000000
                                                     2        0.1200000       -0.02301220    0.00000000
                                                     2        0.1400000        0.13317600    0.00000000
                                                     2        0.1600000       -0.19690668    0.00000000
                                                     2        0.2200000        0.23163694    0.00000000
                                                     2        0.3000000       -0.36920489    0.00000000
                                                     2        0.4000000        0.36389709    0.00000000
                                                     2        0.7000000       -0.38862160    0.00000000
                                                     2        1.3000000        0.80803421    0.00000000
                                      S - G
                                                     0        0.0000010        0.00312304    0.00000000
                                                     2        0.1200000       -0.00632892    0.00000000
                                                     2        0.2200000       -0.03780897    0.00000000
                                                     2        0.4000000        0.26269560    0.00000000
                                                     2        0.9000000       -0.28209514    0.00000000
                                                     2        1.5000000       -0.72686737    0.00000000
                                      P - G
                                                     0        0.0000010       -0.01465594    0.00000000
                                                     2        0.1200000        0.07908409    0.00000000
                                                     2        0.1800000       -0.30615861    0.00000000
                                                     2        0.2600000        0.41506950    0.00000000
                                                     2        0.5000000       -0.36252345    0.00000000
                                                     2        0.9000000        0.15124193    0.00000000
                                                     2        3.0000000       -0.80425677    0.00000000
                                      D - G
                                                     0        0.0000010        0.01149631    0.00000000
                                                     2        0.1200000       -0.04713561    0.00000000
                                                     2        0.1600000        0.10865096    0.00000000
                                                     2        0.2800000       -0.15816701    0.00000000
                                                     2        0.7000000        0.65478804    0.00000000
                                                     2        1.3000000       -1.73816624    0.00000000
                                      F - G
                                                     0        0.0000010        0.00481868    0.00000000
                                                     2        0.1200000       -0.04746842    0.00000000
                                                     2        0.1600000        0.09327889    0.00000000
                                                     2        0.4000000       -0.19693326    0.00000000
                                                     2        0.9000000        0.34938253    0.00000000
    4          6            6
                                      G and up 
                                                     0        0.0000010       -0.00011185    0.00000000
                                                     2        0.1200000       -0.02301220    0.00000000
                                                     2        0.1400000        0.13317600    0.00000000
                                                     2        0.1600000       -0.19690668    0.00000000
                                                     2        0.2200000        0.23163694    0.00000000
                                                     2        0.3000000       -0.36920489    0.00000000
                                                     2        0.4000000        0.36389709    0.00000000
                                                     2        0.7000000       -0.38862160    0.00000000
                                                     2        1.3000000        0.80803421    0.00000000
                                      S - G
                                                     0        0.0000010        0.00312304    0.00000000
                                                     2        0.1200000       -0.00632892    0.00000000
                                                     2        0.2200000       -0.03780897    0.00000000
                                                     2        0.4000000        0.26269560    0.00000000
                                                     2        0.9000000       -0.28209514    0.00000000
                                                     2        1.5000000       -0.72686737    0.00000000
                                      P - G
                                                     0        0.0000010       -0.01465594    0.00000000
                                                     2        0.1200000        0.07908409    0.00000000
                                                     2        0.1800000       -0.30615861    0.00000000
                                                     2        0.2600000        0.41506950    0.00000000
                                                     2        0.5000000       -0.36252345    0.00000000
                                                     2        0.9000000        0.15124193    0.00000000
                                                     2        3.0000000       -0.80425677    0.00000000
                                      D - G
                                                     0        0.0000010        0.01149631    0.00000000
                                                     2        0.1200000       -0.04713561    0.00000000
                                                     2        0.1600000        0.10865096    0.00000000
                                                     2        0.2800000       -0.15816701    0.00000000
                                                     2        0.7000000        0.65478804    0.00000000
                                                     2        1.3000000       -1.73816624    0.00000000
                                      F - G
                                                     0        0.0000010        0.00481868    0.00000000
                                                     2        0.1200000       -0.04746842    0.00000000
                                                     2        0.1600000        0.09327889    0.00000000
                                                     2        0.4000000       -0.19693326    0.00000000
                                                     2        0.9000000        0.34938253    0.00000000
    5          6            6
                                      G and up 
                                                     0        0.0000010       -0.00011185    0.00000000
                                                     2        0.1200000       -0.02301220    0.00000000
                                                     2        0.1400000        0.13317600    0.00000000
                                                     2        0.1600000       -0.19690668    0.00000000
                                                     2        0.2200000        0.23163694    0.00000000
                                                     2        0.3000000       -0.36920489    0.00000000
                                                     2        0.4000000        0.36389709    0.00000000
                                                     2        0.7000000       -0.38862160    0.00000000
                                                     2        1.3000000        0.80803421    0.00000000
                                      S - G
                                                     0        0.0000010        0.00312304    0.00000000
                                                     2        0.1200000       -0.00632892    0.00000000
                                                     2        0.2200000       -0.03780897    0.00000000
                                                     2        0.4000000        0.26269560    0.00000000
                                                     2        0.9000000       -0.28209514    0.00000000
                                                     2        1.5000000       -0.72686737    0.00000000
                                      P - G
                                                     0        0.0000010       -0.01465594    0.00000000
                                                     2        0.1200000        0.07908409    0.00000000
                                                     2        0.1800000       -0.30615861    0.00000000
                                                     2        0.2600000        0.41506950    0.00000000
                                                     2        0.5000000       -0.36252345    0.00000000
                                                     2        0.9000000        0.15124193    0.00000000
                                                     2        3.0000000       -0.80425677    0.00000000
                                      D - G
                                                     0        0.0000010        0.01149631    0.00000000
                                                     2        0.1200000       -0.04713561    0.00000000
                                                     2        0.1600000        0.10865096    0.00000000
                                                     2        0.2800000       -0.15816701    0.00000000
                                                     2        0.7000000        0.65478804    0.00000000
                                                     2        1.3000000       -1.73816624    0.00000000
                                      F - G
                                                     0        0.0000010        0.00481868    0.00000000
                                                     2        0.1200000       -0.04746842    0.00000000
                                                     2        0.1600000        0.09327889    0.00000000
                                                     2        0.4000000       -0.19693326    0.00000000
                                                     2        0.9000000        0.34938253    0.00000000
    6          6            6
                                      G and up 
                                                     0        0.0000010       -0.00011185    0.00000000
                                                     2        0.1200000       -0.02301220    0.00000000
                                                     2        0.1400000        0.13317600    0.00000000
                                                     2        0.1600000       -0.19690668    0.00000000
                                                     2        0.2200000        0.23163694    0.00000000
                                                     2        0.3000000       -0.36920489    0.00000000
                                                     2        0.4000000        0.36389709    0.00000000
                                                     2        0.7000000       -0.38862160    0.00000000
                                                     2        1.3000000        0.80803421    0.00000000
                                      S - G
                                                     0        0.0000010        0.00312304    0.00000000
                                                     2        0.1200000       -0.00632892    0.00000000
                                                     2        0.2200000       -0.03780897    0.00000000
                                                     2        0.4000000        0.26269560    0.00000000
                                                     2        0.9000000       -0.28209514    0.00000000
                                                     2        1.5000000       -0.72686737    0.00000000
                                      P - G
                                                     0        0.0000010       -0.01465594    0.00000000
                                                     2        0.1200000        0.07908409    0.00000000
                                                     2        0.1800000       -0.30615861    0.00000000
                                                     2        0.2600000        0.41506950    0.00000000
                                                     2        0.5000000       -0.36252345    0.00000000
                                                     2        0.9000000        0.15124193    0.00000000
                                                     2        3.0000000       -0.80425677    0.00000000
                                      D - G
                                                     0        0.0000010        0.01149631    0.00000000
                                                     2        0.1200000       -0.04713561    0.00000000
                                                     2        0.1600000        0.10865096    0.00000000
                                                     2        0.2800000       -0.15816701    0.00000000
                                                     2        0.7000000        0.65478804    0.00000000
                                                     2        1.3000000       -1.73816624    0.00000000
                                      F - G
                                                     0        0.0000010        0.00481868    0.00000000
                                                     2        0.1200000       -0.04746842    0.00000000
                                                     2        0.1600000        0.09327889    0.00000000
                                                     2        0.4000000       -0.19693326    0.00000000
                                                     2        0.9000000        0.34938253    0.00000000
    7          6            6
                                      G and up 
                                                     0        0.0000010       -0.00011185    0.00000000
                                                     2        0.1200000       -0.02301220    0.00000000
                                                     2        0.1400000        0.13317600    0.00000000
                                                     2        0.1600000       -0.19690668    0.00000000
                                                     2        0.2200000        0.23163694    0.00000000
                                                     2        0.3000000       -0.36920489    0.00000000
                                                     2        0.4000000        0.36389709    0.00000000
                                                     2        0.7000000       -0.38862160    0.00000000
                                                     2        1.3000000        0.80803421    0.00000000
                                      S - G
                                                     0        0.0000010        0.00312304    0.00000000
                                                     2        0.1200000       -0.00632892    0.00000000
                                                     2        0.2200000       -0.03780897    0.00000000
                                                     2        0.4000000        0.26269560    0.00000000
                                                     2        0.9000000       -0.28209514    0.00000000
                                                     2        1.5000000       -0.72686737    0.00000000
                                      P - G
                                                     0        0.0000010       -0.01465594    0.00000000
                                                     2        0.1200000        0.07908409    0.00000000
                                                     2        0.1800000       -0.30615861    0.00000000
                                                     2        0.2600000        0.41506950    0.00000000
                                                     2        0.5000000       -0.36252345    0.00000000
                                                     2        0.9000000        0.15124193    0.00000000
                                                     2        3.0000000       -0.80425677    0.00000000
                                      D - G
                                                     0        0.0000010        0.01149631    0.00000000
                                                     2        0.1200000       -0.04713561    0.00000000
                                                     2        0.1600000        0.10865096    0.00000000
                                                     2        0.2800000       -0.15816701    0.00000000
                                                     2        0.7000000        0.65478804    0.00000000
                                                     2        1.3000000       -1.73816624    0.00000000
                                      F - G
                                                     0        0.0000010        0.00481868    0.00000000
                                                     2        0.1200000       -0.04746842    0.00000000
                                                     2        0.1600000        0.09327889    0.00000000
                                                     2        0.4000000       -0.19693326    0.00000000
                                                     2        0.9000000        0.34938253    0.00000000
    8          1            1
                                      F and up 
                                                     0        0.0000010       -0.00000699    0.00000000
                                                     2        0.1200000        0.00123686    0.00000000
                                                     2        0.1800000       -0.00752022    0.00000000
                                                     2        0.2600000        0.02503380    0.00000000
                                                     2        0.4000000       -0.08702670    0.00000000
                                                     2        0.6000000        0.30134159    0.00000000
                                                     2        0.8000000       -0.50204959    0.00000000
                                                     2        1.2000000        0.52208372    0.00000000
                                      S - F
                                                     0        0.0000010       -0.01618346    0.00000000
                                                     2        0.1200000       -0.07880581    0.00000000
                                                     2        0.1600000        0.32040539    0.00000000
                                                     2        0.2400000       -0.47500956    0.00000000
                                                     2        0.5000000        0.54013668    0.00000000
                                                     2        1.5000000       -1.40434292    0.00000000
                                                     2        3.0000000        1.46283806    0.00000000
                                      P - F
                                                     0        0.0000010        0.00612970    0.00000000
                                                     2        0.1200000        0.02254406    0.00000000
                                                     2        0.1800000       -0.13874529    0.00000000
                                                     2        0.3000000        0.38299049    0.00000000
                                                     2        0.5000000       -0.57923512    0.00000000
                                                     2        1.0000000        0.63021625    0.00000000
                                                     2        2.0000000       -0.79201034    0.00000000
                                      D - F
                                                     0        0.0000010       -0.00296226    0.00000000
                                                     2        0.1200000       -0.00547344    0.00000000
                                                     2        0.1400000        0.01837884    0.00000000
                                                     2        0.2400000       -0.05565704    0.00000000
                                                     2        0.4000000        0.15376597    0.00000000
                                                     2        0.8000000       -0.32464795    0.00000000
    9          1            1
                                      F and up 
                                                     0        0.0000010       -0.00000699    0.00000000
                                                     2        0.1200000        0.00123686    0.00000000
                                                     2        0.1800000       -0.00752022    0.00000000
                                                     2        0.2600000        0.02503380    0.00000000
                                                     2        0.4000000       -0.08702670    0.00000000
                                                     2        0.6000000        0.30134159    0.00000000
                                                     2        0.8000000       -0.50204959    0.00000000
                                                     2        1.2000000        0.52208372    0.00000000
                                      S - F
                                                     0        0.0000010       -0.01618346    0.00000000
                                                     2        0.1200000       -0.07880581    0.00000000
                                                     2        0.1600000        0.32040539    0.00000000
                                                     2        0.2400000       -0.47500956    0.00000000
                                                     2        0.5000000        0.54013668    0.00000000
                                                     2        1.5000000       -1.40434292    0.00000000
                                                     2        3.0000000        1.46283806    0.00000000
                                      P - F
                                                     0        0.0000010        0.00612970    0.00000000
                                                     2        0.1200000        0.02254406    0.00000000
                                                     2        0.1800000       -0.13874529    0.00000000
                                                     2        0.3000000        0.38299049    0.00000000
                                                     2        0.5000000       -0.57923512    0.00000000
                                                     2        1.0000000        0.63021625    0.00000000
                                                     2        2.0000000       -0.79201034    0.00000000
                                      D - F
                                                     0        0.0000010       -0.00296226    0.00000000
                                                     2        0.1200000       -0.00547344    0.00000000
                                                     2        0.1400000        0.01837884    0.00000000
                                                     2        0.2400000       -0.05565704    0.00000000
                                                     2        0.4000000        0.15376597    0.00000000
                                                     2        0.8000000       -0.32464795    0.00000000
   10          1            1
                                      F and up 
                                                     0        0.0000010       -0.00000699    0.00000000
                                                     2        0.1200000        0.00123686    0.00000000
                                                     2        0.1800000       -0.00752022    0.00000000
                                                     2        0.2600000        0.02503380    0.00000000
                                                     2        0.4000000       -0.08702670    0.00000000
                                                     2        0.6000000        0.30134159    0.00000000
                                                     2        0.8000000       -0.50204959    0.00000000
                                                     2        1.2000000        0.52208372    0.00000000
                                      S - F
                                                     0        0.0000010       -0.01618346    0.00000000
                                                     2        0.1200000       -0.07880581    0.00000000
                                                     2        0.1600000        0.32040539    0.00000000
                                                     2        0.2400000       -0.47500956    0.00000000
                                                     2        0.5000000        0.54013668    0.00000000
                                                     2        1.5000000       -1.40434292    0.00000000
                                                     2        3.0000000        1.46283806    0.00000000
                                      P - F
                                                     0        0.0000010        0.00612970    0.00000000
                                                     2        0.1200000        0.02254406    0.00000000
                                                     2        0.1800000       -0.13874529    0.00000000
                                                     2        0.3000000        0.38299049    0.00000000
                                                     2        0.5000000       -0.57923512    0.00000000
                                                     2        1.0000000        0.63021625    0.00000000
                                                     2        2.0000000       -0.79201034    0.00000000
                                      D - F
                                                     0        0.0000010       -0.00296226    0.00000000
                                                     2        0.1200000       -0.00547344    0.00000000
                                                     2        0.1400000        0.01837884    0.00000000
                                                     2        0.2400000       -0.05565704    0.00000000
                                                     2        0.4000000        0.15376597    0.00000000
                                                     2        0.8000000       -0.32464795    0.00000000
   11          1            1
                                      F and up 
                                                     0        0.0000010       -0.00000699    0.00000000
                                                     2        0.1200000        0.00123686    0.00000000
                                                     2        0.1800000       -0.00752022    0.00000000
                                                     2        0.2600000        0.02503380    0.00000000
                                                     2        0.4000000       -0.08702670    0.00000000
                                                     2        0.6000000        0.30134159    0.00000000
                                                     2        0.8000000       -0.50204959    0.00000000
                                                     2        1.2000000        0.52208372    0.00000000
                                      S - F
                                                     0        0.0000010       -0.01618346    0.00000000
                                                     2        0.1200000       -0.07880581    0.00000000
                                                     2        0.1600000        0.32040539    0.00000000
                                                     2        0.2400000       -0.47500956    0.00000000
                                                     2        0.5000000        0.54013668    0.00000000
                                                     2        1.5000000       -1.40434292    0.00000000
                                                     2        3.0000000        1.46283806    0.00000000
                                      P - F
                                                     0        0.0000010        0.00612970    0.00000000
                                                     2        0.1200000        0.02254406    0.00000000
                                                     2        0.1800000       -0.13874529    0.00000000
                                                     2        0.3000000        0.38299049    0.00000000
                                                     2        0.5000000       -0.57923512    0.00000000
                                                     2        1.0000000        0.63021625    0.00000000
                                                     2        2.0000000       -0.79201034    0.00000000
                                      D - F
                                                     0        0.0000010       -0.00296226    0.00000000
                                                     2        0.1200000       -0.00547344    0.00000000
                                                     2        0.1400000        0.01837884    0.00000000
                                                     2        0.2400000       -0.05565704    0.00000000
                                                     2        0.4000000        0.15376597    0.00000000
                                                     2        0.8000000       -0.32464795    0.00000000
   12          1            1
                                      F and up 
                                                     0        0.0000010       -0.00000699    0.00000000
                                                     2        0.1200000        0.00123686    0.00000000
                                                     2        0.1800000       -0.00752022    0.00000000
                                                     2        0.2600000        0.02503380    0.00000000
                                                     2        0.4000000       -0.08702670    0.00000000
                                                     2        0.6000000        0.30134159    0.00000000
                                                     2        0.8000000       -0.50204959    0.00000000
                                                     2        1.2000000        0.52208372    0.00000000
                                      S - F
                                                     0        0.0000010       -0.01618346    0.00000000
                                                     2        0.1200000       -0.07880581    0.00000000
                                                     2        0.1600000        0.32040539    0.00000000
                                                     2        0.2400000       -0.47500956    0.00000000
                                                     2        0.5000000        0.54013668    0.00000000
                                                     2        1.5000000       -1.40434292    0.00000000
                                                     2        3.0000000        1.46283806    0.00000000
                                      P - F
                                                     0        0.0000010        0.00612970    0.00000000
                                                     2        0.1200000        0.02254406    0.00000000
                                                     2        0.1800000       -0.13874529    0.00000000
                                                     2        0.3000000        0.38299049    0.00000000
                                                     2        0.5000000       -0.57923512    0.00000000
                                                     2        1.0000000        0.63021625    0.00000000
                                                     2        2.0000000       -0.79201034    0.00000000
                                      D - F
                                                     0        0.0000010       -0.00296226    0.00000000
                                                     2        0.1200000       -0.00547344    0.00000000
                                                     2        0.1400000        0.01837884    0.00000000
                                                     2        0.2400000       -0.05565704    0.00000000
                                                     2        0.4000000        0.15376597    0.00000000
                                                     2        0.8000000       -0.32464795    0.00000000
   13          1            1
                                      F and up 
                                                     0        0.0000010       -0.00000699    0.00000000
                                                     2        0.1200000        0.00123686    0.00000000
                                                     2        0.1800000       -0.00752022    0.00000000
                                                     2        0.2600000        0.02503380    0.00000000
                                                     2        0.4000000       -0.08702670    0.00000000
                                                     2        0.6000000        0.30134159    0.00000000
                                                     2        0.8000000       -0.50204959    0.00000000
                                                     2        1.2000000        0.52208372    0.00000000
                                      S - F
                                                     0        0.0000010       -0.01618346    0.00000000
                                                     2        0.1200000       -0.07880581    0.00000000
                                                     2        0.1600000        0.32040539    0.00000000
                                                     2        0.2400000       -0.47500956    0.00000000
                                                     2        0.5000000        0.54013668    0.00000000
                                                     2        1.5000000       -1.40434292    0.00000000
                                                     2        3.0000000        1.46283806    0.00000000
                                      P - F
                                                     0        0.0000010        0.00612970    0.00000000
                                                     2        0.1200000        0.02254406    0.00000000
                                                     2        0.1800000       -0.13874529    0.00000000
                                                     2        0.3000000        0.38299049    0.00000000
                                                     2        0.5000000       -0.57923512    0.00000000
                                                     2        1.0000000        0.63021625    0.00000000
                                                     2        2.0000000       -0.79201034    0.00000000
                                      D - F
                                                     0        0.0000010       -0.00296226    0.00000000
                                                     2        0.1200000       -0.00547344    0.00000000
                                                     2        0.1400000        0.01837884    0.00000000
                                                     2        0.2400000       -0.05565704    0.00000000
                                                     2        0.4000000        0.15376597    0.00000000
                                                     2        0.8000000       -0.32464795    0.00000000
   14          1            1
                                      F and up 
[...]
                                      D - F
                                                     0        0.0000010       -0.00296226    0.00000000
                                                     2        0.1200000       -0.00547344    0.00000000
                                                     2        0.1400000        0.01837884    0.00000000
                                                     2        0.2400000       -0.05565704    0.00000000
                                                     2        0.4000000        0.15376597    0.00000000
                                                     2        0.8000000       -0.32464795    0.00000000
   19          1            1
                                      F and up 
                                                     0        0.0000010       -0.00000699    0.00000000
                                                     2        0.1200000        0.00123686    0.00000000
                                                     2        0.1800000       -0.00752022    0.00000000
                                                     2        0.2600000        0.02503380    0.00000000
                                                     2        0.4000000       -0.08702670    0.00000000
                                                     2        0.6000000        0.30134159    0.00000000
                                                     2        0.8000000       -0.50204959    0.00000000
                                                     2        1.2000000        0.52208372    0.00000000
                                      S - F
                                                     0        0.0000010       -0.01618346    0.00000000
                                                     2        0.1200000       -0.07880581    0.00000000
                                                     2        0.1600000        0.32040539    0.00000000
                                                     2        0.2400000       -0.47500956    0.00000000
                                                     2        0.5000000        0.54013668    0.00000000
                                                     2        1.5000000       -1.40434292    0.00000000
                                                     2        3.0000000        1.46283806    0.00000000
                                      P - F
                                                     0        0.0000010        0.00612970    0.00000000
                                                     2        0.1200000        0.02254406    0.00000000
                                                     2        0.1800000       -0.13874529    0.00000000
                                                     2        0.3000000        0.38299049    0.00000000
                                                     2        0.5000000       -0.57923512    0.00000000
                                                     2        1.0000000        0.63021625    0.00000000
                                                     2        2.0000000       -0.79201034    0.00000000
                                      D - F
                                                     0        0.0000010       -0.00296226    0.00000000
                                                     2        0.1200000       -0.00547344    0.00000000
                                                     2        0.1400000        0.01837884    0.00000000
                                                     2        0.2400000       -0.05565704    0.00000000
                                                     2        0.4000000        0.15376597    0.00000000
                                                     2        0.8000000       -0.32464795    0.00000000
   20          1            1
                                      F and up 
                                                     0        0.0000010       -0.00000699    0.00000000
                                                     2        0.1200000        0.00123686    0.00000000
                                                     2        0.1800000       -0.00752022    0.00000000
                                                     2        0.2600000        0.02503380    0.00000000
                                                     2        0.4000000       -0.08702670    0.00000000
                                                     2        0.6000000        0.30134159    0.00000000
                                                     2        0.8000000       -0.50204959    0.00000000
                                                     2        1.2000000        0.52208372    0.00000000
                                      S - F
                                                     0        0.0000010       -0.01618346    0.00000000
                                                     2        0.1200000       -0.07880581    0.00000000
                                                     2        0.1600000        0.32040539    0.00000000
                                                     2        0.2400000       -0.47500956    0.00000000
                                                     2        0.5000000        0.54013668    0.00000000
                                                     2        1.5000000       -1.40434292    0.00000000
                                                     2        3.0000000        1.46283806    0.00000000
                                      P - F
                                                     0        0.0000010        0.00612970    0.00000000
                                                     2        0.1200000        0.02254406    0.00000000
                                                     2        0.1800000       -0.13874529    0.00000000
                                                     2        0.3000000        0.38299049    0.00000000
                                                     2        0.5000000       -0.57923512    0.00000000
                                                     2        1.0000000        0.63021625    0.00000000
                                                     2        2.0000000       -0.79201034    0.00000000
                                      D - F
                                                     0        0.0000010       -0.00296226    0.00000000
                                                     2        0.1200000       -0.00547344    0.00000000
                                                     2        0.1400000        0.01837884    0.00000000
                                                     2        0.2400000       -0.05565704    0.00000000
                                                     2        0.4000000        0.15376597    0.00000000
                                                     2        0.8000000       -0.32464795    0.00000000
   21          1            1
                                      F and up 
                                                     0        0.0000010       -0.00000699    0.00000000
                                                     2        0.1200000        0.00123686    0.00000000
                                                     2        0.1800000       -0.00752022    0.00000000
                                                     2        0.2600000        0.02503380    0.00000000
                                                     2        0.4000000       -0.08702670    0.00000000
                                                     2        0.6000000        0.30134159    0.00000000
                                                     2        0.8000000       -0.50204959    0.00000000
                                                     2        1.2000000        0.52208372    0.00000000
                                      S - F
                                                     0        0.0000010       -0.01618346    0.00000000
                                                     2        0.1200000       -0.07880581    0.00000000
                                                     2        0.1600000        0.32040539    0.00000000
                                                     2        0.2400000       -0.47500956    0.00000000
                                                     2        0.5000000        0.54013668    0.00000000
                                                     2        1.5000000       -1.40434292    0.00000000
                                                     2        3.0000000        1.46283806    0.00000000
                                      P - F
                                                     0        0.0000010        0.00612970    0.00000000
                                                     2        0.1200000        0.02254406    0.00000000
                                                     2        0.1800000       -0.13874529    0.00000000
                                                     2        0.3000000        0.38299049    0.00000000
                                                     2        0.5000000       -0.57923512    0.00000000
                                                     2        1.0000000        0.63021625    0.00000000
                                                     2        2.0000000       -0.79201034    0.00000000
                                      D - F
                                                     0        0.0000010       -0.00296226    0.00000000
                                                     2        0.1200000       -0.00547344    0.00000000
                                                     2        0.1400000        0.01837884    0.00000000
                                                     2        0.2400000       -0.05565704    0.00000000
                                                     2        0.4000000        0.15376597    0.00000000
                                                     2        0.8000000       -0.32464795    0.00000000
 ======================================================================================================
   287 basis functions,   455 primitive gaussians,   301 cartesian basis functions
    29 alpha electrons       29 beta electrons
       nuclear repulsion energy       341.2842227087 Hartrees.
 NAtoms=   21 NActive=   21 NUniq=   21 SFac= 1.00D+00 NAtFMM=   60 NAOKFM=F Big=F
   1 Symmetry operations used in ECPInt.
 ECPInt:  NShTT=    8911 NPrTT=   34027 LenC2=    8903 LenP2D=   27792.
 LDataN:  DoStor=T MaxTD1= 6 Len=  172
 Initial guess from the checkpoint file:  "Grambow2020_wb97xd3_008659_reverse_mol1.chk"
 B after Tr=     0.210858    0.200621   -0.038528
         Rot=   -0.165643    0.214297    0.960656   -0.061475 Ang= 199.07 deg.
 >>>>>>>>>> Convergence criterion not met.
 SCF Done:  E(RHF) =  -310.168298417     A.U. after    2 cycles
            NFock=  1  Conv=0.52D-02     -V/T= 1.9999

 **********************************************************************

            Population analysis using the SCF Density.

 **********************************************************************

 Orbital symmetries:
       Occupied  (A) (A) (A) (A) (A) (A) (A) (A) (A) (A) (A) (A)
                 (A) (A) (A) (A) (A) (A) (A) (A) (A) (A) (A) (A)
                 (A) (A) (A) (A) (A)
       Virtual   (A) (A) (A) (A) (A) (A) (A) (A) (A) (A) (A) (A)
                 (A) (A) (A) (A) (A) (A) (A) (A) (A) (A) (A) (A)
                 (A) (A) (A) (A) (A) (A) (A) (A) (A) (A) (A) (A)
                 (A) (A) (A) (A) (A) (A) (A) (A) (A) (A) (A) (A)
                 (A) (A) (A) (A) (A) (A) (A) (A) (A) (A) (A) (A)
                 (A) (A) (A) (A) (A) (A) (A) (A) (A) (A) (A) (A)
                 (A) (A) (A) (A) (A) (A) (A) (A) (A) (A) (A) (A)
                 (A) (A) (A) (A) (A) (A) (A) (A) (A) (A) (A) (A)
                 (A) (A) (A) (A) (A) (A) (A) (A) (A) (A) (A) (A)
                 (A) (A) (A) (A) (A) (A) (A) (A) (A) (A) (A) (A)
                 (A) (A) (A) (A) (A) (A) (A) (A) (A) (A) (A) (A)
                 (A) (A) (A) (A) (A) (A) (A) (A) (A) (A) (A) (A)
                 (A) (A) (A) (A) (A) (A) (A) (A) (A) (A) (A) (A)
                 (A) (A) (A) (A) (A) (A) (A) (A) (A) (A) (A) (A)
                 (A) (A) (A) (A) (A) (A) (A) (A) (A) (A) (A) (A)
                 (A) (A) (A) (A) (A) (A) (A) (A) (A) (A) (A) (A)
                 (A) (A) (A) (A) (A) (A) (A) (A) (A) (A) (A) (A)
                 (A) (A) (A) (A) (A) (A) (A) (A) (A) (A) (A) (A)
                 (A) (A) (A) (A) (A) (A) (A) (A) (A) (A) (A) (A)
                 (A) (A) (A) (A) (A) (A) (A) (A) (A) (A) (A) (A)
                 (A) (A) (A) (A) (A) (A) (A) (A) (A) (A) (A) (A)
                 (A) (A) (A) (A) (A) (A)
 The electronic state is 1-A.
 Alpha  occ. eigenvalues --  -20.67972 -11.31221 -11.27540 -11.25904 -11.23148
 Alpha  occ. eigenvalues --  -11.23004 -11.22458  -1.45167  -1.11428  -1.00327
 Alpha  occ. eigenvalues --   -0.93813  -0.93657  -0.84863  -0.78728  -0.71283
 Alpha  occ. eigenvalues --   -0.68970  -0.68578  -0.61465  -0.60367  -0.59779
 Alpha  occ. eigenvalues --   -0.55100  -0.54465  -0.54282  -0.52176  -0.50891
 Alpha  occ. eigenvalues --   -0.48459  -0.47825  -0.47430  -0.25648
 Alpha virt. eigenvalues --    0.03305   0.04164   0.04451   0.04860   0.06017
 Alpha virt. eigenvalues --    0.06254   0.06741   0.06915   0.07460   0.08240
 Alpha virt. eigenvalues --    0.08571   0.09270   0.09465   0.09624   0.11602
 Alpha virt. eigenvalues --    0.12671   0.13462   0.14353   0.15031   0.15855
 Alpha virt. eigenvalues --    0.16034   0.16392   0.17135   0.17299   0.17872
 Alpha virt. eigenvalues --    0.18387   0.19155   0.19327   0.20035   0.20763
 Alpha virt. eigenvalues --    0.21046   0.21632   0.21983   0.22437   0.22889
 Alpha virt. eigenvalues --    0.23309   0.25406   0.26678   0.27235   0.28467
 Alpha virt. eigenvalues --    0.30271   0.31135   0.32210   0.32705   0.33935
 Alpha virt. eigenvalues --    0.34515   0.35045   0.35400   0.36768   0.38449
 Alpha virt. eigenvalues --    0.38800   0.39288   0.40965   0.41449   0.41839
 Alpha virt. eigenvalues --    0.42521   0.43070   0.43456   0.44052   0.45443
 Alpha virt. eigenvalues --    0.45880   0.46363   0.47002   0.47284   0.48249
 Alpha virt. eigenvalues --    0.48774   0.49545   0.49833   0.50278   0.51266
 Alpha virt. eigenvalues --    0.51653   0.52047   0.53807   0.54354   0.54573
 Alpha virt. eigenvalues --    0.55226   0.56616   0.56974   0.57791   0.58755
 Alpha virt. eigenvalues --    0.59993   0.60866   0.61095   0.61430   0.62860
 Alpha virt. eigenvalues --    0.62965   0.63460   0.64118   0.64809   0.65244
 Alpha virt. eigenvalues --    0.66190   0.67302   0.67458   0.68298   0.68918
 Alpha virt. eigenvalues --    0.69712   0.70702   0.71333   0.71999   0.72327
 Alpha virt. eigenvalues --    0.72809   0.73736   0.74020   0.75740   0.76352
 Alpha virt. eigenvalues --    0.77484   0.78028   0.78809   0.79318   0.81473
 Alpha virt. eigenvalues --    0.82226   0.82570   0.83416   0.84413   0.84913
 Alpha virt. eigenvalues --    0.85536   0.87781   0.88167   0.89488   0.90027
 Alpha virt. eigenvalues --    0.90540   0.91067   0.92322   0.92916   0.93625
 Alpha virt. eigenvalues --    0.94494   0.96017   0.98128   1.01044   1.02989
 Alpha virt. eigenvalues --    1.04110   1.04622   1.06533   1.08720   1.09692
 Alpha virt. eigenvalues --    1.10424   1.10847   1.12049   1.14567   1.16426
 Alpha virt. eigenvalues --    1.18046   1.18783   1.20952   1.26222   1.27108
 Alpha virt. eigenvalues --    1.28910   1.30064   1.32409   1.34438   1.35828
 Alpha virt. eigenvalues --    1.37815   1.39397   1.41636   1.42308   1.43591
 Alpha virt. eigenvalues --    1.44972   1.46273   1.53806   1.54540   1.56477
 Alpha virt. eigenvalues --    1.59961   1.60577   1.63160   1.63455   1.67407
 Alpha virt. eigenvalues --    1.68811   1.70226   1.72845   1.73117   1.75086
 Alpha virt. eigenvalues --    1.76289   1.78106   1.81043   1.81396   1.83255
 Alpha virt. eigenvalues --    1.84925   1.86383   1.88071   1.91042   1.92870
 Alpha virt. eigenvalues --    1.93602   1.94266   1.98256   1.99064   1.99526
 Alpha virt. eigenvalues --    2.01142   2.03238   2.03704   2.05108   2.05153
 Alpha virt. eigenvalues --    2.07954   2.09382   2.11456   2.11895   2.13197
 Alpha virt. eigenvalues --    2.15755   2.20480   2.21274   2.22573   2.23669
 Alpha virt. eigenvalues --    2.24467   2.26419   2.28572   2.30550   2.31600
 Alpha virt. eigenvalues --    2.32842   2.32880   2.33971   2.36199   2.36901
 Alpha virt. eigenvalues --    2.38273   2.40706   2.41912   2.45259   2.47322
 Alpha virt. eigenvalues --    2.49608   2.52725   2.54669   2.55506   2.56440
 Alpha virt. eigenvalues --    2.57262   2.59622   2.60608   2.62297   2.63554
 Alpha virt. eigenvalues --    2.65283   2.67307   2.71691   2.74326   2.76907
 Alpha virt. eigenvalues --    2.78369   2.82036   2.84195   2.86519   2.87932
 Alpha virt. eigenvalues --    2.91083   2.92629   2.93287   2.98675   3.02061
 Alpha virt. eigenvalues --    3.02603   3.07219   3.09490   3.14245   3.18133
 Alpha virt. eigenvalues --    3.24775   3.29728   3.40897   3.45668   3.50463
 Alpha virt. eigenvalues --    3.55789   3.57161   3.63012   3.73467   3.79181
 Alpha virt. eigenvalues --    3.90343   4.01714   4.13568
          Condensed to atoms (all electrons):
 Mulliken charges:
               1
     1  C    0.750610
     2  O   -0.176302
     3  C    0.737709
     4  C   -3.682366
     5  C    1.209451
     6  C    1.261990
     7  C    1.124937
     8  H   -0.033224
     9  H   -0.426196
    10  H   -0.266679
    11  H    0.222466
    12  H   -0.530782
    13  H   -0.037530
    14  H   -0.012499
    15  H    0.005575
    16  H   -0.036286
    17  H   -0.009966
    18  H   -0.003162
    19  H   -0.040918
    20  H   -0.037967
    21  H   -0.018861
 Sum of Mulliken charges =  -0.00000
 Mulliken charges with hydrogens summed into heavy atoms:
               1
     1  C    0.024511
     2  O   -0.176302
     3  C    0.429393
     4  C   -3.682366
     5  C    1.164997
     6  C    1.212576
     7  C    1.027191
 Electronic spatial extent (au):  <R**2>=            981.6971
 Charge=              0.0000 electrons
 Dipole moment (field-independent basis, Debye):
    X=              1.4937    Y=             -0.5436    Z=             -1.2139  Tot=              2.0000

 Test job not archived.
 1\1\GINC-SE232\SP\RHF\Aug-CC-pVDZ\C6H14O1\OHZDE\09-Apr-2025\0\\#t hf a
 ug-cc-pvdz iop(5/13=1,5/36=2,99/5=2) pseudo=read geom=check guess=(rea
 d,tcheck) scf=(maxcycle=1)\\title\\0,1\C,0,2.42715231,-1.40575605,-0.7
 3007756\O,0,1.16804721,-1.08946058,-0.5056211\C,0,0.77950752,-0.016591
 51,0.10578632\C,0,-0.69702924,0.23487027,0.22789589\C,0,-0.89654524,1.
 73677681,0.45053088\C,0,-1.42915829,-0.20562184,-1.04057513\C,0,-1.249
 14787,-0.53659063,1.43972857\H,0,2.50230513,0.36621705,-1.48958901\H,0
 ,2.54054572,-2.3247139,-1.28441282\H,0,3.16393163,-1.10362199,0.004810
 89\H,0,1.95560584,0.89966742,-1.24496011\H,0,1.46808342,0.42398294,0.8
 2349944\H,0,-0.35073273,2.08327293,1.33181222\H,0,-1.95439918,1.959471
 67,0.60647315\H,0,-0.54706932,2.30865838,-0.41089152\H,0,-1.3180349,-1
 .27696039,-1.21309774\H,0,-1.04096834,0.31776752,-1.91627415\H,0,-2.49
 553726,0.01356565,-0.95176941\H,0,-1.11244184,-1.61207233,1.30980273\H
 ,0,-2.31742052,-0.34152112,1.56616545\H,0,-0.74207904,-0.23812029,2.36
 030503\\Version=ES64L-G16RevC.01\State=1-A\HF=-310.1682984\RMSD=5.193e
 -03\Dipole=-0.4205618,0.0838217,0.6597345\Quadrupole=0.3185207,0.22526
 27,-0.5437834,-0.8436036,2.4751846,1.0748828\PG=C01 [X(C6H14O1)]\\@


 A MAN BEGINS CUTTING HIS WISDOM TEETH THE 1ST
 TIME HE BITES OFF MORE THAN HE CAN CHEW.
 Job cpu time:       0 days  0 hours  2 minutes  0.1 seconds.
 Elapsed time:       0 days  0 hours  0 minutes  8.7 seconds.
 File lengths (MBytes):  RWF=     14 Int=      0 D2E=      0 Chk=     11 Scr=      1
 Normal termination of Gaussian 16 at Wed Apr  9 16:36:54 2025.
