 Entering Gaussian System, Link 0=g16
 Input=Grambow2020_wb97xd3_007770_reverse_mol2.gjf
 Output=Grambow2020_wb97xd3_007770_reverse_mol2.log
 Initial command:
 /arc/software/Gaussian/g16.c01/l1.exe "/tmp/slurm/4877244/Gau-320306.inp" -scrdir="/tmp/slurm/4877244/"
 Entering Link 1 = /arc/software/Gaussian/g16.c01/l1.exe PID=    320307.
  
 Copyright (c) 1988-2019, Gaussian, Inc.  All Rights Reserved.
  
 This is part of the Gaussian(R) 16 program.  It is based on
 the Gaussian(R) 09 system (copyright 2009, Gaussian, Inc.),
 the Gaussian(R) 03 system (copyright 2003, Gaussian, Inc.),
 the Gaussian(R) 98 system (copyright 1998, Gaussian, Inc.),
 the Gaussian(R) 94 system (copyright 1995, Gaussian, Inc.),
 the Gaussian 92(TM) system (copyright 1992, Gaussian, Inc.),
 the Gaussian 90(TM) system (copyright 1990, Gaussian, Inc.),
 the Gaussian 88(TM) system (copyright 1988, Gaussian, Inc.),
 the Gaussian 86(TM) system (copyright 1986, Carnegie Mellon
 University), and the Gaussian 82(TM) system (copyright 1983,
 Carnegie Mellon University). Gaussian is a federally registered
 trademark of Gaussian, Inc.
  
 This software contains proprietary and confidential information,
 including trade secrets, belonging to Gaussian, Inc.
  
 This software is provided under written license and may be
 used, copied, transmitted, or stored only in accord with that
 written license.
  
 The following legend is applicable only to US Government
 contracts under FAR:
  
                    RESTRICTED RIGHTS LEGEND
  
 Use, reproduction and disclosure by the US Government is
 subject to restrictions as set forth in subparagraphs (a)
 and (c) of the Commercial Computer Software - Restricted
 Rights clause in FAR 52.227-19.
  
 Gaussian, Inc.
 340 Quinnipiac St., Bldg. 40, Wallingford CT 06492
  
  
 ---------------------------------------------------------------
 Warning -- This program may not be used in any manner that
 competes with the business of Gaussian, Inc. or will provide
 assistance to any competitor of Gaussian, Inc.  The licensee
 of this program is prohibited from giving any competitor of
 Gaussian, Inc. access to this program.  By using this program,
 the user acknowledges that Gaussian, Inc. is engaged in the
 business of creating and licensing software in the field of
 computational chemistry and represents and warrants to the
 licensee that it is not a competitor of Gaussian, Inc. and that
 it will not use this program in any manner prohibited above.
 ---------------------------------------------------------------
  

 Cite this work as:
 Gaussian 16, Revision C.01,
 M. J. Frisch, G. W. Trucks, H. B. Schlegel, G. E. Scuseria, 
 M. A. Robb, J. R. Cheeseman, G. Scalmani, V. Barone, 
 G. A. Petersson, H. Nakatsuji, X. Li, M. Caricato, A. V. Marenich, 
 J. Bloino, B. G. Janesko, R. Gomperts, B. Mennucci, H. P. Hratchian, 
 J. V. Ortiz, A. F. Izmaylov, J. L. Sonnenberg, D. Williams-Young, 
 F. Ding, F. Lipparini, F. Egidi, J. Goings, B. Peng, A. Petrone, 
 T. Henderson, D. Ranasinghe, V. G. Zakrzewski, J. Gao, N. Rega, 
 G. Zheng, W. Liang, M. Hada, M. Ehara, K. Toyota, R. Fukuda, 
 J. Hasegawa, M. Ishida, T. Nakajima, Y. Honda, O. Kitao, H. Nakai, 
 T. Vreven, K. Throssell, J. A. Montgomery, Jr., J. E. Peralta, 
 F. Ogliaro, M. J. Bearpark, J. J. Heyd, E. N. Brothers, K. N. Kudin, 
 V. N. Staroverov, T. A. Keith, R. Kobayashi, J. Normand, 
 K. Raghavachari, A. P. Rendell, J. C. Burant, S. S. Iyengar, 
 J. Tomasi, M. Cossi, J. M. Millam, M. Klene, C. Adamo, R. Cammi, 
 J. W. Ochterski, R. L. Martin, K. Morokuma, O. Farkas, 
 J. B. Foresman, and D. J. Fox, Gaussian, Inc., Wallingford CT, 2019.
 
 ******************************************
 Gaussian 16:  ES64L-G16RevC.01  3-Jul-2019
                 9-Apr-2025 
 ******************************************
 %nprocs=16
 Will use up to   16 processors via shared memory.
 %mem=30GB
 %chk=Grambow2020_wb97xd3_007770_reverse_mol2.chk
 ----------------------------------------------------------------------
 #t hf aug-cc-pvdz symm=none int=(grid=ultrafine) guess=(read,tcheck) s
 table=(opt,rrhf)
 ----------------------------------------------------------------------
 -----
 title
 -----
 Symbolic Z-matrix:
 Charge =  0 Multiplicity = 1
 O                     2.51892   0.54833  -0.73133 
 C                     1.53243  -0.05359  -0.45064 
 N                    -0.0499    0.31409   1.33931 
 C                     0.20215   0.62738  -0.06817 
 N                    -0.86781   0.04586  -0.82032 
 C                    -1.56969  -0.53974   0.05751 
 N                    -1.07649  -0.38269   1.40278 
 H                     1.48196  -1.15918  -0.43772 
 H                     0.29918   1.70387  -0.21385 
 H                    -2.46523  -1.11767  -0.12852 
 
                    Distance matrix (angstroms):
                    1          2          3          4          5
     1  O    0.000000
     2  C    1.189224   0.000000
     3  N    3.307761   2.417207   0.000000
     4  C    2.411106   1.542606   1.463790   0.000000
     5  N    3.424959   2.430581   2.324850   1.431335   0.000000
     6  C    4.303821   3.180834   2.163737   2.125411   1.267341
     7  N    4.283480   3.217133   1.242336   2.195190   2.273631
     8  H    2.019182   1.106820   2.770369   2.228511   2.668326
     9  H    2.555445   2.160011   2.113213   1.090634   2.116289
    10  H    5.289675   4.149374   3.168314   3.188062   2.093833
                    6          7          8          9         10
     6  C    0.000000
     7  N    1.441409   0.000000
     8  H    3.153020   3.245926   0.000000
     9  H    2.932591   2.976525   3.105829   0.000000
    10  H    1.081943   2.194006   3.959501   3.950990   0.000000
 Symmetry turned off by external request.
 Rotational constants (GHZ):           7.6062526           2.1618464           1.8456239
   188 basis functions,   334 primitive gaussians,   202 cartesian basis functions
    25 alpha electrons       25 beta electrons
       nuclear repulsion energy       276.0596961659 Hartrees.
 NAtoms=   10 NActive=   10 NUniq=   10 SFac= 1.00D+00 NAtFMM=   60 NAOKFM=F Big=F
 ExpMin= 2.97D-02 ExpMax= 1.17D+04 ExpMxC= 4.01D+02 IAcc=3 IRadAn=         5 AccDes= 0.00D+00
 Harris functional with IExCor=  205 and IRadAn=       5 diagonalized for initial guess.
 HarFok:  IExCor=  205 AccDes= 0.00D+00 IRadAn=         5 IDoV= 1 UseB2=F ITyADJ=14
 ICtDFT=  3500011 ScaDFX=  1.000000  1.000000  1.000000  1.000000
 FoFCou: FMM=F IPFlag=           0 FMFlag=      100000 FMFlg1=           0
         NFxFlg=           0 DoJE=T BraDBF=F KetDBF=T FulRan=T
         wScrn=  0.000000 ICntrl=       500 IOpCl=  0 I1Cent=   200000004 NGrid=           0
         NMat0=    1 NMatS0=      1 NMatT0=    0 NMatD0=    1 NMtDS0=    0 NMtDT0=    0
 Symmetry not used in FoFCou.
 SCF Done:  E(RHF) =  -353.532599410     A.U. after   16 cycles
            NFock= 16  Conv=0.30D-08     -V/T= 2.0013

 **********************************************************************

            Population analysis using the SCF Density.

 **********************************************************************

 Alpha  occ. eigenvalues --  -20.60380 -15.67650 -15.67143 -15.62090 -11.37642
 Alpha  occ. eigenvalues --  -11.35145 -11.33408  -1.46052  -1.44036  -1.26561
 Alpha  occ. eigenvalues --   -1.10173  -0.92055  -0.84945  -0.83700  -0.75809
 Alpha  occ. eigenvalues --   -0.69726  -0.69012  -0.62545  -0.60341  -0.56184
 Alpha  occ. eigenvalues --   -0.55852  -0.49788  -0.47043  -0.45917  -0.43976
 Alpha virt. eigenvalues --    0.03045   0.03785   0.04542   0.04738   0.07802
 Alpha virt. eigenvalues --    0.09304   0.09424   0.09761   0.10626   0.12532
 Alpha virt. eigenvalues --    0.12730   0.14588   0.14719   0.15231   0.16503
 Alpha virt. eigenvalues --    0.16920   0.17754   0.19103   0.20540   0.21925
 Alpha virt. eigenvalues --    0.22403   0.23257   0.24614   0.25697   0.27019
 Alpha virt. eigenvalues --    0.27784   0.28357   0.29254   0.30641   0.31708
 Alpha virt. eigenvalues --    0.32695   0.33184   0.34369   0.35315   0.35945
 Alpha virt. eigenvalues --    0.38077   0.39449   0.41727   0.43163   0.44069
 Alpha virt. eigenvalues --    0.45454   0.46585   0.47399   0.49132   0.49900
 Alpha virt. eigenvalues --    0.52178   0.54103   0.55440   0.56533   0.57927
 Alpha virt. eigenvalues --    0.58704   0.60770   0.62320   0.63316   0.65841
 Alpha virt. eigenvalues --    0.67813   0.68763   0.71145   0.71448   0.73150
 Alpha virt. eigenvalues --    0.74074   0.74639   0.75799   0.77666   0.79253
 Alpha virt. eigenvalues --    0.82238   0.82716   0.84636   0.85484   0.87255
 Alpha virt. eigenvalues --    0.88208   0.89653   0.91883   0.95153   0.96342
 Alpha virt. eigenvalues --    0.97865   1.00139   1.01562   1.03379   1.03565
 Alpha virt. eigenvalues --    1.05798   1.08369   1.10060   1.12730   1.14538
 Alpha virt. eigenvalues --    1.16258   1.18242   1.21823   1.23533   1.26387
 Alpha virt. eigenvalues --    1.28738   1.30512   1.35972   1.36979   1.40505
 Alpha virt. eigenvalues --    1.43943   1.45106   1.47656   1.49571   1.53749
 Alpha virt. eigenvalues --    1.58100   1.60251   1.60881   1.63299   1.66288
 Alpha virt. eigenvalues --    1.69745   1.71372   1.72532   1.76559   1.77910
 Alpha virt. eigenvalues --    1.79752   1.84721   1.86230   1.87058   1.89796
 Alpha virt. eigenvalues --    1.95109   1.98533   2.02885   2.07298   2.09260
 Alpha virt. eigenvalues --    2.13217   2.13396   2.17117   2.20711   2.24243
 Alpha virt. eigenvalues --    2.25071   2.28418   2.30460   2.32899   2.36018
 Alpha virt. eigenvalues --    2.37440   2.40129   2.44157   2.45934   2.48290
 Alpha virt. eigenvalues --    2.58991   2.60703   2.63268   2.65714   2.68695
 Alpha virt. eigenvalues --    2.75657   2.80411   2.83450   2.85975   2.87456
 Alpha virt. eigenvalues --    2.95764   2.95995   2.98382   3.11664   3.16349
 Alpha virt. eigenvalues --    3.19058   3.26446   3.31135   3.37774   3.41187
 Alpha virt. eigenvalues --    3.47626   3.53482   3.72194   3.75207   3.78581
 Alpha virt. eigenvalues --    3.92673   4.06705   4.14425
          Condensed to atoms (all electrons):
 Mulliken charges:
               1
     1  O   -0.612617
     2  C    1.089836
     3  N   -0.453876
     4  C    0.668733
     5  N   -0.627375
     6  C    0.763736
     7  N   -0.534481
     8  H   -0.032478
     9  H   -0.173451
    10  H   -0.088028
 Sum of Mulliken charges =  -0.00000
 Mulliken charges with hydrogens summed into heavy atoms:
               1
     1  O   -0.612617
     2  C    1.057359
     3  N   -0.453876
     4  C    0.495282
     5  N   -0.627375
     6  C    0.675708
     7  N   -0.534481
 Electronic spatial extent (au):  <R**2>=            639.3067
 Charge=             -0.0000 electrons
 Dipole moment (field-independent basis, Debye):
    X=             -2.5321    Y=             -1.2388    Z=             -0.4218  Tot=              2.8502
 NROrb=    188 NOA=    25 NOB=    25 NVA=   163 NVB=   163

 **** Warning!!: The largest alpha MO coefficient is  0.49914054D+02

    12 initial guesses have been made.
 Iteration     1 Dimension    12 NMult     0 NNew     12
 New state      1 was old state      2
 Iteration     2 Dimension    24 NMult    12 NNew     12
 Iteration     3 Dimension    27 NMult    24 NNew      3
 Iteration     4 Dimension    30 NMult    27 NNew      3
 Iteration     5 Dimension    33 NMult    30 NNew      3
 Iteration     6 Dimension    36 NMult    33 NNew      3
 ***********************************************************************
 Stability analysis using <AA,BB:AA,BB> singles matrix:
 ***********************************************************************
 Ground to excited state transition densities written to RWF  633

 Eigenvectors of the stability matrix:
 
 Excited state symmetry could not be determined.
 Eigenvector   1:      Singlet-?Sym  Eigenvalue= 0.1627095  <S**2>=0.000
      23 -> 27         0.13091
      24 -> 27         0.35610
      24 -> 28        -0.20781
      24 -> 29        -0.14631
      25 -> 27        -0.32867
      25 -> 28         0.19585
      25 -> 29         0.13927
      25 -> 31        -0.11704
 The wavefunction is stable under the perturbations considered.
 The wavefunction is already stable.

 **********************************************************************

            Population analysis using the SCF Density.

 **********************************************************************

 Alpha  occ. eigenvalues --  -20.60380 -15.67650 -15.67143 -15.62090 -11.37642
 Alpha  occ. eigenvalues --  -11.35145 -11.33408  -1.46052  -1.44036  -1.26561
 Alpha  occ. eigenvalues --   -1.10173  -0.92055  -0.84945  -0.83700  -0.75809
 Alpha  occ. eigenvalues --   -0.69726  -0.69012  -0.62545  -0.60341  -0.56184
 Alpha  occ. eigenvalues --   -0.55852  -0.49788  -0.47043  -0.45917  -0.43976
 Alpha virt. eigenvalues --    0.03045   0.03785   0.04542   0.04738   0.07802
 Alpha virt. eigenvalues --    0.09304   0.09424   0.09761   0.10626   0.12532
 Alpha virt. eigenvalues --    0.12730   0.14588   0.14719   0.15231   0.16503
 Alpha virt. eigenvalues --    0.16920   0.17754   0.19103   0.20540   0.21925
 Alpha virt. eigenvalues --    0.22403   0.23257   0.24614   0.25697   0.27019
 Alpha virt. eigenvalues --    0.27784   0.28357   0.29254   0.30641   0.31708
 Alpha virt. eigenvalues --    0.32695   0.33184   0.34369   0.35315   0.35945
 Alpha virt. eigenvalues --    0.38077   0.39449   0.41727   0.43163   0.44069
 Alpha virt. eigenvalues --    0.45454   0.46585   0.47399   0.49132   0.49900
 Alpha virt. eigenvalues --    0.52178   0.54103   0.55440   0.56533   0.57927
 Alpha virt. eigenvalues --    0.58704   0.60770   0.62320   0.63316   0.65841
 Alpha virt. eigenvalues --    0.67813   0.68763   0.71145   0.71448   0.73150
 Alpha virt. eigenvalues --    0.74074   0.74639   0.75799   0.77666   0.79253
 Alpha virt. eigenvalues --    0.82238   0.82716   0.84636   0.85484   0.87255
 Alpha virt. eigenvalues --    0.88208   0.89653   0.91883   0.95153   0.96342
 Alpha virt. eigenvalues --    0.97865   1.00139   1.01562   1.03379   1.03565
 Alpha virt. eigenvalues --    1.05798   1.08369   1.10060   1.12730   1.14538
 Alpha virt. eigenvalues --    1.16258   1.18242   1.21823   1.23533   1.26387
 Alpha virt. eigenvalues --    1.28738   1.30512   1.35972   1.36979   1.40505
 Alpha virt. eigenvalues --    1.43943   1.45106   1.47656   1.49571   1.53749
 Alpha virt. eigenvalues --    1.58100   1.60251   1.60881   1.63299   1.66288
 Alpha virt. eigenvalues --    1.69745   1.71372   1.72532   1.76559   1.77910
 Alpha virt. eigenvalues --    1.79752   1.84721   1.86230   1.87058   1.89796
 Alpha virt. eigenvalues --    1.95109   1.98533   2.02885   2.07298   2.09260
 Alpha virt. eigenvalues --    2.13217   2.13396   2.17117   2.20711   2.24243
 Alpha virt. eigenvalues --    2.25071   2.28418   2.30460   2.32899   2.36018
 Alpha virt. eigenvalues --    2.37440   2.40129   2.44157   2.45934   2.48290
 Alpha virt. eigenvalues --    2.58991   2.60703   2.63268   2.65714   2.68695
 Alpha virt. eigenvalues --    2.75657   2.80411   2.83450   2.85975   2.87456
 Alpha virt. eigenvalues --    2.95764   2.95995   2.98382   3.11664   3.16349
 Alpha virt. eigenvalues --    3.19058   3.26446   3.31135   3.37774   3.41187
 Alpha virt. eigenvalues --    3.47626   3.53482   3.72194   3.75207   3.78581
 Alpha virt. eigenvalues --    3.92673   4.06705   4.14425
          Condensed to atoms (all electrons):
 Mulliken charges:
               1
     1  O   -0.612617
     2  C    1.089836
     3  N   -0.453876
     4  C    0.668733
     5  N   -0.627375
     6  C    0.763736
     7  N   -0.534481
     8  H   -0.032478
     9  H   -0.173451
    10  H   -0.088028
 Sum of Mulliken charges =  -0.00000
 Mulliken charges with hydrogens summed into heavy atoms:
               1
     1  O   -0.612617
     2  C    1.057359
     3  N   -0.453876
     4  C    0.495282
     5  N   -0.627375
     6  C    0.675708
     7  N   -0.534481
 Electronic spatial extent (au):  <R**2>=            639.3067
 Charge=             -0.0000 electrons
 Dipole moment (field-independent basis, Debye):
    X=             -2.5321    Y=             -1.2388    Z=             -0.4218  Tot=              2.8502
 Unable to Open any file for archive entry.
 1\1\GINC-SE220\Stability\RHF\Aug-CC-pVDZ\C3H3N3O1\OHZDE\09-Apr-2025\0\
 \#t hf aug-cc-pvdz symm=none int=(grid=ultrafine) guess=(read,tcheck) 
 stable=(opt,rrhf)\\title\\0,1\O,0,2.5189186,0.54833269,-0.73133434\C,0
 ,1.53243107,-0.05358852,-0.4506422\N,0,-0.04990356,0.314085,1.33930901
 \C,0,0.20215398,0.62737586,-0.06817038\N,0,-0.86781259,0.04586307,-0.8
 20323\C,0,-1.56968799,-0.53973662,0.05751308\N,0,-1.07648666,-0.382691
 08,1.40278203\H,0,1.48196274,-1.15918185,-0.43771579\H,0,0.29918074,1.
 70387263,-0.21384831\H,0,-2.46522833,-1.11766617,-0.12851511\\Version=
 ES64L-G16RevC.01\HF=-353.5325994\RMSD=3.014e-09\Dipole=-0.9961905,-0.4
 873852,-0.165951\Quadrupole=-0.6679693,4.6407233,-3.972754,-1.0093399,
 1.4356374,0.9159167\PG=Unknown\\@
 The archive entry for this job was punched.


 KINETICS       FACT
 ---------  =  -------
 MECHANISM     FICTION
 Job cpu time:       0 days  0 hours  1 minutes 30.2 seconds.
 Elapsed time:       0 days  0 hours  0 minutes 12.3 seconds.
 File lengths (MBytes):  RWF=    189 Int=      0 D2E=      0 Chk=      6 Scr=      1
 Normal termination of Gaussian 16 at Wed Apr  9 16:06:43 2025.
 Initial command:
 /arc/software/Gaussian/g16.c01/l1.exe "/tmp/slurm/4877244/Gau-320306.inp" -scrdir="/tmp/slurm/4877244/"
 Entering Link 1 = /arc/software/Gaussian/g16.c01/l1.exe PID=    320520.
  
 Copyright (c) 1988-2019, Gaussian, Inc.  All Rights Reserved.
  
 This is part of the Gaussian(R) 16 program.  It is based on
 the Gaussian(R) 09 system (copyright 2009, Gaussian, Inc.),
 the Gaussian(R) 03 system (copyright 2003, Gaussian, Inc.),
 the Gaussian(R) 98 system (copyright 1998, Gaussian, Inc.),
 the Gaussian(R) 94 system (copyright 1995, Gaussian, Inc.),
 the Gaussian 92(TM) system (copyright 1992, Gaussian, Inc.),
 the Gaussian 90(TM) system (copyright 1990, Gaussian, Inc.),
 the Gaussian 88(TM) system (copyright 1988, Gaussian, Inc.),
 the Gaussian 86(TM) system (copyright 1986, Carnegie Mellon
 University), and the Gaussian 82(TM) system (copyright 1983,
 Carnegie Mellon University). Gaussian is a federally registered
 trademark of Gaussian, Inc.
  
 This software contains proprietary and confidential information,
 including trade secrets, belonging to Gaussian, Inc.
  
 This software is provided under written license and may be
 used, copied, transmitted, or stored only in accord with that
 written license.
  
 The following legend is applicable only to US Government
 contracts under FAR:
  
                    RESTRICTED RIGHTS LEGEND
  
 Use, reproduction and disclosure by the US Government is
 subject to restrictions as set forth in subparagraphs (a)
 and (c) of the Commercial Computer Software - Restricted
 Rights clause in FAR 52.227-19.
  
 Gaussian, Inc.
 340 Quinnipiac St., Bldg. 40, Wallingford CT 06492
  
  
 ---------------------------------------------------------------
 Warning -- This program may not be used in any manner that
 competes with the business of Gaussian, Inc. or will provide
 assistance to any competitor of Gaussian, Inc.  The licensee
 of this program is prohibited from giving any competitor of
 Gaussian, Inc. access to this program.  By using this program,
 the user acknowledges that Gaussian, Inc. is engaged in the
 business of creating and licensing software in the field of
 computational chemistry and represents and warrants to the
 licensee that it is not a competitor of Gaussian, Inc. and that
 it will not use this program in any manner prohibited above.
 ---------------------------------------------------------------
  

 Cite this work as:
 Gaussian 16, Revision C.01,
 M. J. Frisch, G. W. Trucks, H. B. Schlegel, G. E. Scuseria, 
 M. A. Robb, J. R. Cheeseman, G. Scalmani, V. Barone, 
 G. A. Petersson, H. Nakatsuji, X. Li, M. Caricato, A. V. Marenich, 
 J. Bloino, B. G. Janesko, R. Gomperts, B. Mennucci, H. P. Hratchian, 
 J. V. Ortiz, A. F. Izmaylov, J. L. Sonnenberg, D. Williams-Young, 
 F. Ding, F. Lipparini, F. Egidi, J. Goings, B. Peng, A. Petrone, 
 T. Henderson, D. Ranasinghe, V. G. Zakrzewski, J. Gao, N. Rega, 
 G. Zheng, W. Liang, M. Hada, M. Ehara, K. Toyota, R. Fukuda, 
 J. Hasegawa, M. Ishida, T. Nakajima, Y. Honda, O. Kitao, H. Nakai, 
 T. Vreven, K. Throssell, J. A. Montgomery, Jr., J. E. Peralta, 
 F. Ogliaro, M. J. Bearpark, J. J. Heyd, E. N. Brothers, K. N. Kudin, 
 V. N. Staroverov, T. A. Keith, R. Kobayashi, J. Normand, 
 K. Raghavachari, A. P. Rendell, J. C. Burant, S. S. Iyengar, 
 J. Tomasi, M. Cossi, J. M. Millam, M. Klene, C. Adamo, R. Cammi, 
 J. W. Ochterski, R. L. Martin, K. Morokuma, O. Farkas, 
 J. B. Foresman, and D. J. Fox, Gaussian, Inc., Wallingford CT, 2019.
 
 ******************************************
 Gaussian 16:  ES64L-G16RevC.01  3-Jul-2019
                 9-Apr-2025 
 ******************************************
 %nprocs=16
 Will use up to   16 processors via shared memory.
 %mem=30GB
 %chk=Grambow2020_wb97xd3_007770_reverse_mol2.chk
 ----------------------------------------------------------------------
 #t hf aug-cc-pvdz iop(5/13=1,5/36=2,99/5=2) pseudo=read geom=check gue
 ss=(read,tcheck) scf=(maxcycle=1)
 ----------------------------------------------------------------------
 -----
 title
 -----
 Structure from the checkpoint file:  "Grambow2020_wb97xd3_007770_reverse_mol2.chk"
 Charge =  0 Multiplicity = 1
 Z-Matrix found in chk file.
 O,0,2.5189186,0.54833269,-0.73133434
 C,0,1.53243107,-0.05358852,-0.4506422
 N,0,-0.04990356,0.314085,1.33930901
 C,0,0.20215398,0.62737586,-0.06817038
 N,0,-0.86781259,0.04586307,-0.820323
 C,0,-1.56968799,-0.53973662,0.05751308
 N,0,-1.07648666,-0.38269108,1.40278203
 H,0,1.48196274,-1.15918185,-0.43771579
 H,0,0.29918074,1.70387263,-0.21384831
 H,0,-2.46522833,-1.11766617,-0.12851511
 Recover connectivity data from disk.
                    Distance matrix (angstroms):
                    1          2          3          4          5
     1  O    0.000000
     2  C    1.189224   0.000000
     3  N    3.307761   2.417207   0.000000
     4  C    2.411106   1.542606   1.463790   0.000000
     5  N    3.424959   2.430581   2.324850   1.431335   0.000000
     6  C    4.303821   3.180834   2.163737   2.125411   1.267341
     7  N    4.283480   3.217133   1.242336   2.195190   2.273631
     8  H    2.019182   1.106820   2.770369   2.228511   2.668326
     9  H    2.555445   2.160011   2.113213   1.090634   2.116289
    10  H    5.289675   4.149374   3.168314   3.188062   2.093833
                    6          7          8          9         10
     6  C    0.000000
     7  N    1.441409   0.000000
     8  H    3.153020   3.245926   0.000000
     9  H    2.932591   2.976525   3.105829   0.000000
    10  H    1.081943   2.194006   3.959501   3.950990   0.000000
 Framework group  C1[X(C3H3N3O)]
 Deg. of freedom    24
                         Standard orientation:                         
 ---------------------------------------------------------------------
 Center     Atomic      Atomic             Coordinates (Angstroms)
 Number     Number       Type             X           Y           Z
 ---------------------------------------------------------------------
      1          8           0       -2.566526    0.023429   -0.039903
      2          6           0       -1.444111   -0.089387   -0.416349
      3          7           0        0.529692    1.162286    0.200341
      4          6           0       -0.224102   -0.049273    0.526839
      5          7           0        0.634717   -1.159713    0.247427
      6          6           0        1.685475   -0.619917   -0.211573
      7          7           0        1.637093    0.820245   -0.246951
      8          1           0       -1.174841   -0.232249   -1.480367
      9          1           0       -0.573948   -0.021121    1.559456
     10          1           0        2.566906   -1.142324   -0.559097
 ---------------------------------------------------------------------
 Rotational constants (GHZ):           7.6062526           2.1618464           1.8456239
 ======================================================================================================
                                       Pseudopotential Parameters
 ======================================================================================================
  Center     Atomic      Valence      Angular      Power
  Number     Number     Electrons     Momentum     of R      Exponent        Coefficient   SO-Coeffient
 ======================================================================================================
    1          8            8
                                      G and up 
                                                     0        0.0000010        0.00001165    0.00000000
                                                     2        0.1200000       -0.01744018    0.00000000
                                                     2        0.1400000        0.05401326    0.00000000
                                                     2        0.1800000       -0.08231208    0.00000000
                                                     2        0.2600000        0.11570222    0.00000000
                                                     2        0.4000000       -0.20630360    0.00000000
                                                     2        0.7000000        0.38074319    0.00000000
                                                     2        1.2000000       -0.17045091    0.00000000
                                                     2        2.0000000       -1.45433187    0.00000000
                                      S - G
                                                     0        0.0000010       -0.00117944    0.00000000
                                                     2        0.1400000        0.04368312    0.00000000
                                                     2        0.3000000       -0.33477926    0.00000000
                                                     2        0.6000000        1.52630657    0.00000000
                                                     2        1.5000000       -2.50804716    0.00000000
                                                     2        3.0000000        2.89751681    0.00000000
                                      P - G
                                                     0        0.0000010        0.06576007    0.00000000
                                                     2        0.1200000       -0.10329304    0.00000000
                                                     2        0.2000000        0.24891756    0.00000000
                                                     2        0.4000000       -0.50800022    0.00000000
                                                     2        0.9000000        0.81480796    0.00000000
                                      D - G
                                                     0        0.0000010       -0.14101855    0.00000000
                                                     2        0.1200000        0.22105937    0.00000000
                                                     2        0.1800000       -0.45814988    0.00000000
                                                     2        0.3000000        0.46029282    0.00000000
                                      F - G
                                                     0        0.0000010        0.07483044    0.00000000
                                                     2        0.1200000       -0.09134252    0.00000000
                                                     2        0.1400000        0.04125459    0.00000000
                                                     2        0.3000000        0.37914837    0.00000000
                                                     2        0.5000000       -0.86881279    0.00000000
    2          6            6
                                      G and up 
                                                     0        0.0000010       -0.00011185    0.00000000
                                                     2        0.1200000       -0.02301220    0.00000000
                                                     2        0.1400000        0.13317600    0.00000000
                                                     2        0.1600000       -0.19690668    0.00000000
                                                     2        0.2200000        0.23163694    0.00000000
                                                     2        0.3000000       -0.36920489    0.00000000
                                                     2        0.4000000        0.36389709    0.00000000
                                                     2        0.7000000       -0.38862160    0.00000000
                                                     2        1.3000000        0.80803421    0.00000000
                                      S - G
                                                     0        0.0000010        0.00312304    0.00000000
                                                     2        0.1200000       -0.00632892    0.00000000
                                                     2        0.2200000       -0.03780897    0.00000000
                                                     2        0.4000000        0.26269560    0.00000000
                                                     2        0.9000000       -0.28209514    0.00000000
                                                     2        1.5000000       -0.72686737    0.00000000
                                      P - G
                                                     0        0.0000010       -0.01465594    0.00000000
                                                     2        0.1200000        0.07908409    0.00000000
                                                     2        0.1800000       -0.30615861    0.00000000
                                                     2        0.2600000        0.41506950    0.00000000
                                                     2        0.5000000       -0.36252345    0.00000000
                                                     2        0.9000000        0.15124193    0.00000000
                                                     2        3.0000000       -0.80425677    0.00000000
                                      D - G
                                                     0        0.0000010        0.01149631    0.00000000
                                                     2        0.1200000       -0.04713561    0.00000000
                                                     2        0.1600000        0.10865096    0.00000000
                                                     2        0.2800000       -0.15816701    0.00000000
                                                     2        0.7000000        0.65478804    0.00000000
                                                     2        1.3000000       -1.73816624    0.00000000
                                      F - G
                                                     0        0.0000010        0.00481868    0.00000000
                                                     2        0.1200000       -0.04746842    0.00000000
                                                     2        0.1600000        0.09327889    0.00000000
                                                     2        0.4000000       -0.19693326    0.00000000
                                                     2        0.9000000        0.34938253    0.00000000
    3          7            7
                                      G and up 
                                                     0        0.0000010       -0.00000022    0.00000000
                                                     2        0.1200000       -0.00992020    0.00000000
                                                     2        0.1400000        0.02578711    0.00000000
                                                     2        0.2200000       -0.10543517    0.00000000
                                                     2        0.3000000        0.23013665    0.00000000
                                                     2        0.5000000       -0.60834094    0.00000000
                                                     2        0.8000000        1.81436815    0.00000000
                                                     2        1.2000000       -3.87539738    0.00000000
                                                     2        2.0000000        2.94656640    0.00000000
                                      S - G
                                                     0        0.0000010       -0.00223566    0.00000000
                                                     2        0.1200000        0.45247937    0.00000000
                                                     2        0.1600000       -0.78978304    0.00000000
                                                     2        0.4000000        0.84956595    0.00000000
                                                     2        3.0000000       -0.75910174    0.00000000
                                      P - G
                                                     0        0.0000010       -0.25576737    0.00000000
                                                     2        0.1200000       -0.19992277    0.00000000
                                                     2        0.1600000        0.88518512    0.00000000
                                                     2        0.2400000       -1.33293917    0.00000000
                                                     2        0.4000000        1.33451776    0.00000000
                                                     2        0.9000000       -0.55709210    0.00000000
                                                     2        2.5000000        2.48506502    0.00000000
                                      D - G
                                                     0        0.0000010        0.26143746    0.00000000
                                                     2        0.1200000       -0.04492212    0.00000000
                                                     2        0.1400000       -0.18274021    0.00000000
                                                     2        0.2400000        0.53490004    0.00000000
                                                     2        0.4000000       -0.74136473    0.00000000
                                                     2        1.3000000        1.71401021    0.00000000
                                      F - G
                                                     0        0.0000010       -0.07169988    0.00000000
                                                     2        0.1200000        0.04480029    0.00000000
                                                     2        0.2600000       -0.08050831    0.00000000
                                                     2        0.5000000        0.31290809    0.00000000
                                                     2        1.0000000       -0.45253098    0.00000000
    4          6            6
                                      G and up 
                                                     0        0.0000010       -0.00011185    0.00000000
                                                     2        0.1200000       -0.02301220    0.00000000
                                                     2        0.1400000        0.13317600    0.00000000
                                                     2        0.1600000       -0.19690668    0.00000000
                                                     2        0.2200000        0.23163694    0.00000000
                                                     2        0.3000000       -0.36920489    0.00000000
                                                     2        0.4000000        0.36389709    0.00000000
                                                     2        0.7000000       -0.38862160    0.00000000
                                                     2        1.3000000        0.80803421    0.00000000
                                      S - G
                                                     0        0.0000010        0.00312304    0.00000000
                                                     2        0.1200000       -0.00632892    0.00000000
                                                     2        0.2200000       -0.03780897    0.00000000
                                                     2        0.4000000        0.26269560    0.00000000
                                                     2        0.9000000       -0.28209514    0.00000000
                                                     2        1.5000000       -0.72686737    0.00000000
                                      P - G
                                                     0        0.0000010       -0.01465594    0.00000000
                                                     2        0.1200000        0.07908409    0.00000000
                                                     2        0.1800000       -0.30615861    0.00000000
                                                     2        0.2600000        0.41506950    0.00000000
                                                     2        0.5000000       -0.36252345    0.00000000
                                                     2        0.9000000        0.15124193    0.00000000
                                                     2        3.0000000       -0.80425677    0.00000000
                                      D - G
                                                     0        0.0000010        0.01149631    0.00000000
                                                     2        0.1200000       -0.04713561    0.00000000
                                                     2        0.1600000        0.10865096    0.00000000
                                                     2        0.2800000       -0.15816701    0.00000000
                                                     2        0.7000000        0.65478804    0.00000000
                                                     2        1.3000000       -1.73816624    0.00000000
                                      F - G
                                                     0        0.0000010        0.00481868    0.00000000
                                                     2        0.1200000       -0.04746842    0.00000000
                                                     2        0.1600000        0.09327889    0.00000000
                                                     2        0.4000000       -0.19693326    0.00000000
                                                     2        0.9000000        0.34938253    0.00000000
    5          7            7
                                      G and up 
                                                     0        0.0000010       -0.00000022    0.00000000
                                                     2        0.1200000       -0.00992020    0.00000000
                                                     2        0.1400000        0.02578711    0.00000000
                                                     2        0.2200000       -0.10543517    0.00000000
                                                     2        0.3000000        0.23013665    0.00000000
                                                     2        0.5000000       -0.60834094    0.00000000
                                                     2        0.8000000        1.81436815    0.00000000
                                                     2        1.2000000       -3.87539738    0.00000000
                                                     2        2.0000000        2.94656640    0.00000000
                                      S - G
                                                     0        0.0000010       -0.00223566    0.00000000
                                                     2        0.1200000        0.45247937    0.00000000
                                                     2        0.1600000       -0.78978304    0.00000000
                                                     2        0.4000000        0.84956595    0.00000000
                                                     2        3.0000000       -0.75910174    0.00000000
                                      P - G
                                                     0        0.0000010       -0.25576737    0.00000000
                                                     2        0.1200000       -0.19992277    0.00000000
                                                     2        0.1600000        0.88518512    0.00000000
                                                     2        0.2400000       -1.33293917    0.00000000
                                                     2        0.4000000        1.33451776    0.00000000
                                                     2        0.9000000       -0.55709210    0.00000000
                                                     2        2.5000000        2.48506502    0.00000000
                                      D - G
                                                     0        0.0000010        0.26143746    0.00000000
                                                     2        0.1200000       -0.04492212    0.00000000
                                                     2        0.1400000       -0.18274021    0.00000000
                                                     2        0.2400000        0.53490004    0.00000000
                                                     2        0.4000000       -0.74136473    0.00000000
                                                     2        1.3000000        1.71401021    0.00000000
                                      F - G
                                                     0        0.0000010       -0.07169988    0.00000000
                                                     2        0.1200000        0.04480029    0.00000000
                                                     2        0.2600000       -0.08050831    0.00000000
                                                     2        0.5000000        0.31290809    0.00000000
                                                     2        1.0000000       -0.45253098    0.00000000
    6          6            6
                                      G and up 
                                                     0        0.0000010       -0.00011185    0.00000000
                                                     2        0.1200000       -0.02301220    0.00000000
                                                     2        0.1400000        0.13317600    0.00000000
                                                     2        0.1600000       -0.19690668    0.00000000
                                                     2        0.2200000        0.23163694    0.00000000
                                                     2        0.3000000       -0.36920489    0.00000000
                                                     2        0.4000000        0.36389709    0.00000000
                                                     2        0.7000000       -0.38862160    0.00000000
                                                     2        1.3000000        0.80803421    0.00000000
                                      S - G
                                                     0        0.0000010        0.00312304    0.00000000
                                                     2        0.1200000       -0.00632892    0.00000000
                                                     2        0.2200000       -0.03780897    0.00000000
                                                     2        0.4000000        0.26269560    0.00000000
                                                     2        0.9000000       -0.28209514    0.00000000
                                                     2        1.5000000       -0.72686737    0.00000000
                                      P - G
                                                     0        0.0000010       -0.01465594    0.00000000
                                                     2        0.1200000        0.07908409    0.00000000
                                                     2        0.1800000       -0.30615861    0.00000000
                                                     2        0.2600000        0.41506950    0.00000000
                                                     2        0.5000000       -0.36252345    0.00000000
                                                     2        0.9000000        0.15124193    0.00000000
                                                     2        3.0000000       -0.80425677    0.00000000
                                      D - G
                                                     0        0.0000010        0.01149631    0.00000000
                                                     2        0.1200000       -0.04713561    0.00000000
                                                     2        0.1600000        0.10865096    0.00000000
                                                     2        0.2800000       -0.15816701    0.00000000
                                                     2        0.7000000        0.65478804    0.00000000
                                                     2        1.3000000       -1.73816624    0.00000000
                                      F - G
                                                     0        0.0000010        0.00481868    0.00000000
                                                     2        0.1200000       -0.04746842    0.00000000
                                                     2        0.1600000        0.09327889    0.00000000
                                                     2        0.4000000       -0.19693326    0.00000000
                                                     2        0.9000000        0.34938253    0.00000000
    7          7            7
                                      G and up 
                                                     0        0.0000010       -0.00000022    0.00000000
                                                     2        0.1200000       -0.00992020    0.00000000
                                                     2        0.1400000        0.02578711    0.00000000
                                                     2        0.2200000       -0.10543517    0.00000000
                                                     2        0.3000000        0.23013665    0.00000000
                                                     2        0.5000000       -0.60834094    0.00000000
                                                     2        0.8000000        1.81436815    0.00000000
                                                     2        1.2000000       -3.87539738    0.00000000
                                                     2        2.0000000        2.94656640    0.00000000
                                      S - G
                                                     0        0.0000010       -0.00223566    0.00000000
                                                     2        0.1200000        0.45247937    0.00000000
                                                     2        0.1600000       -0.78978304    0.00000000
                                                     2        0.4000000        0.84956595    0.00000000
                                                     2        3.0000000       -0.75910174    0.00000000
                                      P - G
                                                     0        0.0000010       -0.25576737    0.00000000
                                                     2        0.1200000       -0.19992277    0.00000000
                                                     2        0.1600000        0.88518512    0.00000000
                                                     2        0.2400000       -1.33293917    0.00000000
                                                     2        0.4000000        1.33451776    0.00000000
                                                     2        0.9000000       -0.55709210    0.00000000
                                                     2        2.5000000        2.48506502    0.00000000
                                      D - G
                                                     0        0.0000010        0.26143746    0.00000000
                                                     2        0.1200000       -0.04492212    0.00000000
                                                     2        0.1400000       -0.18274021    0.00000000
                                                     2        0.2400000        0.53490004    0.00000000
                                                     2        0.4000000       -0.74136473    0.00000000
                                                     2        1.3000000        1.71401021    0.00000000
                                      F - G
                                                     0        0.0000010       -0.07169988    0.00000000
                                                     2        0.1200000        0.04480029    0.00000000
                                                     2        0.2600000       -0.08050831    0.00000000
                                                     2        0.5000000        0.31290809    0.00000000
                                                     2        1.0000000       -0.45253098    0.00000000
    8          1            1
                                      F and up 
                                                     0        0.0000010       -0.00000699    0.00000000
                                                     2        0.1200000        0.00123686    0.00000000
                                                     2        0.1800000       -0.00752022    0.00000000
                                                     2        0.2600000        0.02503380    0.00000000
                                                     2        0.4000000       -0.08702670    0.00000000
                                                     2        0.6000000        0.30134159    0.00000000
                                                     2        0.8000000       -0.50204959    0.00000000
                                                     2        1.2000000        0.52208372    0.00000000
                                      S - F
                                                     0        0.0000010       -0.01618346    0.00000000
                                                     2        0.1200000       -0.07880581    0.00000000
                                                     2        0.1600000        0.32040539    0.00000000
                                                     2        0.2400000       -0.47500956    0.00000000
                                                     2        0.5000000        0.54013668    0.00000000
                                                     2        1.5000000       -1.40434292    0.00000000
                                                     2        3.0000000        1.46283806    0.00000000
                                      P - F
                                                     0        0.0000010        0.00612970    0.00000000
                                                     2        0.1200000        0.02254406    0.00000000
                                                     2        0.1800000       -0.13874529    0.00000000
                                                     2        0.3000000        0.38299049    0.00000000
                                                     2        0.5000000       -0.57923512    0.00000000
                                                     2        1.0000000        0.63021625    0.00000000
                                                     2        2.0000000       -0.79201034    0.00000000
                                      D - F
                                                     0        0.0000010       -0.00296226    0.00000000
                                                     2        0.1200000       -0.00547344    0.00000000
                                                     2        0.1400000        0.01837884    0.00000000
                                                     2        0.2400000       -0.05565704    0.00000000
                                                     2        0.4000000        0.15376597    0.00000000
                                                     2        0.8000000       -0.32464795    0.00000000
    9          1            1
                                      F and up 
                                                     0        0.0000010       -0.00000699    0.00000000
                                                     2        0.1200000        0.00123686    0.00000000
                                                     2        0.1800000       -0.00752022    0.00000000
                                                     2        0.2600000        0.02503380    0.00000000
                                                     2        0.4000000       -0.08702670    0.00000000
                                                     2        0.6000000        0.30134159    0.00000000
                                                     2        0.8000000       -0.50204959    0.00000000
                                                     2        1.2000000        0.52208372    0.00000000
                                      S - F
                                                     0        0.0000010       -0.01618346    0.00000000
                                                     2        0.1200000       -0.07880581    0.00000000
                                                     2        0.1600000        0.32040539    0.00000000
                                                     2        0.2400000       -0.47500956    0.00000000
                                                     2        0.5000000        0.54013668    0.00000000
                                                     2        1.5000000       -1.40434292    0.00000000
                                                     2        3.0000000        1.46283806    0.00000000
                                      P - F
                                                     0        0.0000010        0.00612970    0.00000000
                                                     2        0.1200000        0.02254406    0.00000000
                                                     2        0.1800000       -0.13874529    0.00000000
                                                     2        0.3000000        0.38299049    0.00000000
                                                     2        0.5000000       -0.57923512    0.00000000
                                                     2        1.0000000        0.63021625    0.00000000
                                                     2        2.0000000       -0.79201034    0.00000000
                                      D - F
                                                     0        0.0000010       -0.00296226    0.00000000
                                                     2        0.1200000       -0.00547344    0.00000000
                                                     2        0.1400000        0.01837884    0.00000000
                                                     2        0.2400000       -0.05565704    0.00000000
                                                     2        0.4000000        0.15376597    0.00000000
                                                     2        0.8000000       -0.32464795    0.00000000
   10          1            1
                                      F and up 
                                                     0        0.0000010       -0.00000699    0.00000000
                                                     2        0.1200000        0.00123686    0.00000000
                                                     2        0.1800000       -0.00752022    0.00000000
                                                     2        0.2600000        0.02503380    0.00000000
                                                     2        0.4000000       -0.08702670    0.00000000
                                                     2        0.6000000        0.30134159    0.00000000
                                                     2        0.8000000       -0.50204959    0.00000000
                                                     2        1.2000000        0.52208372    0.00000000
                                      S - F
                                                     0        0.0000010       -0.01618346    0.00000000
                                                     2        0.1200000       -0.07880581    0.00000000
                                                     2        0.1600000        0.32040539    0.00000000
                                                     2        0.2400000       -0.47500956    0.00000000
                                                     2        0.5000000        0.54013668    0.00000000
                                                     2        1.5000000       -1.40434292    0.00000000
                                                     2        3.0000000        1.46283806    0.00000000
                                      P - F
                                                     0        0.0000010        0.00612970    0.00000000
                                                     2        0.1200000        0.02254406    0.00000000
                                                     2        0.1800000       -0.13874529    0.00000000
                                                     2        0.3000000        0.38299049    0.00000000
                                                     2        0.5000000       -0.57923512    0.00000000
                                                     2        1.0000000        0.63021625    0.00000000
                                                     2        2.0000000       -0.79201034    0.00000000
                                      D - F
                                                     0        0.0000010       -0.00296226    0.00000000
                                                     2        0.1200000       -0.00547344    0.00000000
                                                     2        0.1400000        0.01837884    0.00000000
                                                     2        0.2400000       -0.05565704    0.00000000
                                                     2        0.4000000        0.15376597    0.00000000
                                                     2        0.8000000       -0.32464795    0.00000000
 ======================================================================================================
   188 basis functions,   334 primitive gaussians,   202 cartesian basis functions
    25 alpha electrons       25 beta electrons
       nuclear repulsion energy       276.0596961659 Hartrees.
 NAtoms=   10 NActive=   10 NUniq=   10 SFac= 1.00D+00 NAtFMM=   60 NAOKFM=F Big=F
   1 Symmetry operations used in ECPInt.
 ECPInt:  NShTT=    3081 NPrTT=   16977 LenC2=    3075 LenP2D=   12888.
 LDataN:  DoStor=T MaxTD1= 6 Len=  172
 Initial guess from the checkpoint file:  "Grambow2020_wb97xd3_007770_reverse_mol2.chk"
 B after Tr=     0.205875   -0.238097   -0.077257
         Rot=   -0.190694    0.037295    0.725797    0.659896 Ang= 201.99 deg.
 >>>>>>>>>> Convergence criterion not met.
 SCF Done:  E(RHF) =  -353.634218362     A.U. after    2 cycles
            NFock=  1  Conv=0.40D-02     -V/T= 2.0005

 **********************************************************************

            Population analysis using the SCF Density.

 **********************************************************************

 Orbital symmetries:
       Occupied  (A) (A) (A) (A) (A) (A) (A) (A) (A) (A) (A) (A)
                 (A) (A) (A) (A) (A) (A) (A) (A) (A) (A) (A) (A)
                 (A)
       Virtual   (A) (A) (A) (A) (A) (A) (A) (A) (A) (A) (A) (A)
                 (A) (A) (A) (A) (A) (A) (A) (A) (A) (A) (A) (A)
                 (A) (A) (A) (A) (A) (A) (A) (A) (A) (A) (A) (A)
                 (A) (A) (A) (A) (A) (A) (A) (A) (A) (A) (A) (A)
                 (A) (A) (A) (A) (A) (A) (A) (A) (A) (A) (A) (A)
                 (A) (A) (A) (A) (A) (A) (A) (A) (A) (A) (A) (A)
                 (A) (A) (A) (A) (A) (A) (A) (A) (A) (A) (A) (A)
                 (A) (A) (A) (A) (A) (A) (A) (A) (A) (A) (A) (A)
                 (A) (A) (A) (A) (A) (A) (A) (A) (A) (A) (A) (A)
                 (A) (A) (A) (A) (A) (A) (A) (A) (A) (A) (A) (A)
                 (A) (A) (A) (A) (A) (A) (A) (A) (A) (A) (A) (A)
                 (A) (A) (A) (A) (A) (A) (A) (A) (A) (A) (A) (A)
                 (A) (A) (A) (A) (A) (A) (A) (A) (A) (A) (A) (A)
                 (A) (A) (A) (A) (A) (A) (A)
 The electronic state is 1-A.
 Alpha  occ. eigenvalues --  -20.60889 -15.73420 -15.72920 -15.67820 -11.38054
 Alpha  occ. eigenvalues --  -11.35660 -11.33923  -1.41779  -1.40032  -1.22764
 Alpha  occ. eigenvalues --   -1.08623  -0.90947  -0.84339  -0.83257  -0.75715
 Alpha  occ. eigenvalues --   -0.70647  -0.69718  -0.62789  -0.59938  -0.57163
 Alpha  occ. eigenvalues --   -0.56050  -0.49166  -0.47206  -0.45760  -0.44164
 Alpha virt. eigenvalues --    0.02840   0.03512   0.04272   0.04748   0.07464
 Alpha virt. eigenvalues --    0.09147   0.09854   0.10131   0.10752   0.12645
 Alpha virt. eigenvalues --    0.12705   0.14335   0.14592   0.15331   0.16474
 Alpha virt. eigenvalues --    0.16734   0.17863   0.19208   0.20629   0.21957
 Alpha virt. eigenvalues --    0.22515   0.23262   0.24526   0.25657   0.26961
 Alpha virt. eigenvalues --    0.27806   0.28300   0.29338   0.30643   0.31774
 Alpha virt. eigenvalues --    0.32626   0.33088   0.34423   0.35256   0.35918
 Alpha virt. eigenvalues --    0.38132   0.39484   0.41741   0.43177   0.44116
 Alpha virt. eigenvalues --    0.45431   0.46529   0.47442   0.49068   0.49937
 Alpha virt. eigenvalues --    0.52136   0.54206   0.55538   0.56562   0.58074
 Alpha virt. eigenvalues --    0.59066   0.60889   0.62422   0.63411   0.65888
 Alpha virt. eigenvalues --    0.67885   0.68608   0.71015   0.71645   0.73077
 Alpha virt. eigenvalues --    0.74170   0.75072   0.75671   0.77621   0.79373
 Alpha virt. eigenvalues --    0.82341   0.82741   0.84886   0.85454   0.86998
 Alpha virt. eigenvalues --    0.88442   0.89402   0.92070   0.95361   0.96526
 Alpha virt. eigenvalues --    0.97997   1.00268   1.01623   1.03347   1.03829
 Alpha virt. eigenvalues --    1.05795   1.08623   1.10261   1.12757   1.14691
 Alpha virt. eigenvalues --    1.16244   1.18326   1.21733   1.23724   1.26219
 Alpha virt. eigenvalues --    1.28901   1.30379   1.35729   1.36834   1.40278
 Alpha virt. eigenvalues --    1.43530   1.44776   1.47451   1.49510   1.53625
 Alpha virt. eigenvalues --    1.57854   1.59570   1.60629   1.62951   1.65800
 Alpha virt. eigenvalues --    1.68932   1.70832   1.71754   1.76273   1.77221
 Alpha virt. eigenvalues --    1.79113   1.83675   1.85700   1.85982   1.88274
 Alpha virt. eigenvalues --    1.93289   1.98643   2.01942   2.06891   2.08979
 Alpha virt. eigenvalues --    2.12118   2.13151   2.16706   2.20218   2.23623
 Alpha virt. eigenvalues --    2.25163   2.27958   2.32115   2.34521   2.38795
 Alpha virt. eigenvalues --    2.41051   2.42251   2.47607   2.48085   2.51062
 Alpha virt. eigenvalues --    2.61928   2.64010   2.66650   2.69117   2.71341
 Alpha virt. eigenvalues --    2.80539   2.84631   2.89950   2.94667   2.96170
 Alpha virt. eigenvalues --    3.00345   3.03820   3.06374   3.18366   3.25305
 Alpha virt. eigenvalues --    3.29959   3.33414   3.36429   3.44461   3.47945
 Alpha virt. eigenvalues --    3.50706   3.56930   3.59133   3.60569   3.65358
 Alpha virt. eigenvalues --    3.79095   3.99329   4.12157
          Condensed to atoms (all electrons):
 Mulliken charges:
               1
     1  O   -0.373504
     2  C    0.686495
     3  N   -0.430455
     4  C    0.861032
     5  N   -0.520897
     6  C    0.653028
     7  N   -0.477425
     8  H   -0.075656
     9  H   -0.184443
    10  H   -0.138177
 Sum of Mulliken charges =   0.00000
 Mulliken charges with hydrogens summed into heavy atoms:
               1
     1  O   -0.373504
     2  C    0.610839
     3  N   -0.430455
     4  C    0.676590
     5  N   -0.520897
     6  C    0.514852
     7  N   -0.477425
 Electronic spatial extent (au):  <R**2>=            633.9164
 Charge=              0.0000 electrons
 Dipole moment (field-independent basis, Debye):
    X=              2.6387    Y=             -1.3352    Z=             -0.6495  Tot=              3.0278

 Test job not archived.
 1\1\GINC-SE220\SP\RHF\Aug-CC-pVDZ\C3H3N3O1\OHZDE\09-Apr-2025\0\\#t hf 
 aug-cc-pvdz iop(5/13=1,5/36=2,99/5=2) pseudo=read geom=check guess=(re
 ad,tcheck) scf=(maxcycle=1)\\title\\0,1\O,0,2.5189186,0.54833269,-0.73
 133434\C,0,1.53243107,-0.05358852,-0.4506422\N,0,-0.04990356,0.314085,
 1.33930901\C,0,0.20215398,0.62737586,-0.06817038\N,0,-0.86781259,0.045
 86307,-0.820323\C,0,-1.56968799,-0.53973662,0.05751308\N,0,-1.07648666
 ,-0.38269108,1.40278203\H,0,1.48196274,-1.15918185,-0.43771579\H,0,0.2
 9918074,1.70387263,-0.21384831\H,0,-2.46522833,-1.11766617,-0.12851511
 \\Version=ES64L-G16RevC.01\State=1-A\HF=-353.6342184\RMSD=3.962e-03\Di
 pole=-1.0622618,-0.5198502,-0.1428624\Quadrupole=-0.7365923,4.75505,-4
 .0184577,-0.9822931,1.7706673,1.0781053\PG=C01 [X(C3H3N3O1)]\\@


 "WHERE SHALL I START, PLEASE YOUR MAJESTY?" HE ASKED.
 "BEGIN AT THE BEGINNING," THE KING SAID GRAVELY,
 "AND GO ON TILL YOU COME TO THE END: THEN STOP." 

                                      -- LEWIS CARROLL
 Job cpu time:       0 days  0 hours  0 minutes 38.3 seconds.
 Elapsed time:       0 days  0 hours  0 minutes  3.5 seconds.
 File lengths (MBytes):  RWF=     10 Int=      0 D2E=      0 Chk=      6 Scr=      1
 Normal termination of Gaussian 16 at Wed Apr  9 16:06:47 2025.
