 Entering Gaussian System, Link 0=g16
 Input=Grambow2020_wb97xd3_007533_forward_mol2.gjf
 Output=Grambow2020_wb97xd3_007533_forward_mol2.log
 Initial command:
 /arc/software/Gaussian/g16.c01/l1.exe "/tmp/slurm/4866084/Gau-550239.inp" -scrdir="/tmp/slurm/4866084/"
 Entering Link 1 = /arc/software/Gaussian/g16.c01/l1.exe PID=    550241.
  
 Copyright (c) 1988-2019, Gaussian, Inc.  All Rights Reserved.
  
 This is part of the Gaussian(R) 16 program.  It is based on
 the Gaussian(R) 09 system (copyright 2009, Gaussian, Inc.),
 the Gaussian(R) 03 system (copyright 2003, Gaussian, Inc.),
 the Gaussian(R) 98 system (copyright 1998, Gaussian, Inc.),
 the Gaussian(R) 94 system (copyright 1995, Gaussian, Inc.),
 the Gaussian 92(TM) system (copyright 1992, Gaussian, Inc.),
 the Gaussian 90(TM) system (copyright 1990, Gaussian, Inc.),
 the Gaussian 88(TM) system (copyright 1988, Gaussian, Inc.),
 the Gaussian 86(TM) system (copyright 1986, Carnegie Mellon
 University), and the Gaussian 82(TM) system (copyright 1983,
 Carnegie Mellon University). Gaussian is a federally registered
 trademark of Gaussian, Inc.
  
 This software contains proprietary and confidential information,
 including trade secrets, belonging to Gaussian, Inc.
  
 This software is provided under written license and may be
 used, copied, transmitted, or stored only in accord with that
 written license.
  
 The following legend is applicable only to US Government
 contracts under FAR:
  
                    RESTRICTED RIGHTS LEGEND
  
 Use, reproduction and disclosure by the US Government is
 subject to restrictions as set forth in subparagraphs (a)
 and (c) of the Commercial Computer Software - Restricted
 Rights clause in FAR 52.227-19.
  
 Gaussian, Inc.
 340 Quinnipiac St., Bldg. 40, Wallingford CT 06492
  
  
 ---------------------------------------------------------------
 Warning -- This program may not be used in any manner that
 competes with the business of Gaussian, Inc. or will provide
 assistance to any competitor of Gaussian, Inc.  The licensee
 of this program is prohibited from giving any competitor of
 Gaussian, Inc. access to this program.  By using this program,
 the user acknowledges that Gaussian, Inc. is engaged in the
 business of creating and licensing software in the field of
 computational chemistry and represents and warrants to the
 licensee that it is not a competitor of Gaussian, Inc. and that
 it will not use this program in any manner prohibited above.
 ---------------------------------------------------------------
  

 Cite this work as:
 Gaussian 16, Revision C.01,
 M. J. Frisch, G. W. Trucks, H. B. Schlegel, G. E. Scuseria, 
 M. A. Robb, J. R. Cheeseman, G. Scalmani, V. Barone, 
 G. A. Petersson, H. Nakatsuji, X. Li, M. Caricato, A. V. Marenich, 
 J. Bloino, B. G. Janesko, R. Gomperts, B. Mennucci, H. P. Hratchian, 
 J. V. Ortiz, A. F. Izmaylov, J. L. Sonnenberg, D. Williams-Young, 
 F. Ding, F. Lipparini, F. Egidi, J. Goings, B. Peng, A. Petrone, 
 T. Henderson, D. Ranasinghe, V. G. Zakrzewski, J. Gao, N. Rega, 
 G. Zheng, W. Liang, M. Hada, M. Ehara, K. Toyota, R. Fukuda, 
 J. Hasegawa, M. Ishida, T. Nakajima, Y. Honda, O. Kitao, H. Nakai, 
 T. Vreven, K. Throssell, J. A. Montgomery, Jr., J. E. Peralta, 
 F. Ogliaro, M. J. Bearpark, J. J. Heyd, E. N. Brothers, K. N. Kudin, 
 V. N. Staroverov, T. A. Keith, R. Kobayashi, J. Normand, 
 K. Raghavachari, A. P. Rendell, J. C. Burant, S. S. Iyengar, 
 J. Tomasi, M. Cossi, J. M. Millam, M. Klene, C. Adamo, R. Cammi, 
 J. W. Ochterski, R. L. Martin, K. Morokuma, O. Farkas, 
 J. B. Foresman, and D. J. Fox, Gaussian, Inc., Wallingford CT, 2019.
 
 ******************************************
 Gaussian 16:  ES64L-G16RevC.01  3-Jul-2019
                 9-Apr-2025 
 ******************************************
 %nprocs=16
 Will use up to   16 processors via shared memory.
 %mem=30GB
 %chk=Grambow2020_wb97xd3_007533_forward_mol2.chk
 ----------------------------------------------------------------------
 #t hf aug-cc-pvdz symm=none int=(grid=ultrafine) guess=(read,tcheck) s
 table=(opt,rrhf)
 ----------------------------------------------------------------------
 -----
 title
 -----
 Symbolic Z-matrix:
 Charge =  0 Multiplicity = 1
 C                     2.49269   0.38893   0.0502 
 O                     1.11994   0.68183   0.11719 
 C                     0.32705  -0.46279   0.26031 
 C                    -1.13445  -0.01559   0.29432 
 C                    -1.56998   0.66577  -1.00378 
 C                    -1.98176  -1.17362   0.59104 
 N                    -2.63662  -2.09066   0.80669 
 H                     3.02169   1.33388  -0.06067 
 H                     2.72241  -0.25464  -0.80826 
 H                     2.84042  -0.1095    0.96381 
 H                     0.5777   -0.99796   1.18648 
 H                     0.4847   -1.15678  -0.57872 
 H                    -1.24537   0.68576   1.12648 
 H                    -2.6031    1.00571  -0.93725 
 H                    -0.92639   1.52328  -1.19222 
 H                    -1.48893  -0.02362  -1.84577 
 
                    Distance matrix (angstroms):
                    1          2          3          4          5
     1  C    0.000000
     2  O    1.405246   0.000000
     3  C    2.336567   1.399751   0.000000
     4  C    3.657781   2.366442   1.528767   0.000000
     5  C    4.206280   2.914188   2.543675   1.529373   0.000000
     6  C    4.770198   3.645244   2.438298   1.465271   2.469081
     7  N    5.747208   4.719516   3.425176   2.612459   3.466035
     8  H    1.088609   2.018275   3.254550   4.384124   4.734890
     9  H    1.097229   2.073964   2.631139   4.018478   4.394309
    10  H    1.097280   2.074373   2.633773   4.031954   4.891225
    11  H    2.623308   2.063756   1.098647   2.166212   3.489664
    12  H    2.610901   2.065992   1.100207   2.164752   2.779219
    13  H    3.901225   2.571649   2.131177   1.093933   2.154941
    14  H    5.227102   3.883016   3.489476   2.171809   1.089645
    15  H    3.810578   2.571009   2.761421   2.149701   1.088596
    16  H    4.429247   3.340224   2.815360   2.169265   1.091233
                    6          7          8          9         10
     6  C    0.000000
     7  N    1.147300   0.000000
     8  H    5.634429   6.670545   0.000000
     9  H    4.993174   5.890514   1.780972   0.000000
    10  H    4.952252   5.826462   1.779262   1.781919   0.000000
    11  H    2.633682   3.416152   3.600822   3.021798   2.441074
    12  H    2.729844   3.540350   3.592784   2.423612   3.004274
    13  H    2.070328   3.121910   4.476287   4.513404   4.165643
    14  H    2.733349   3.553860   5.702134   5.474136   5.872794
    15  H    3.401046   4.470020   4.111396   4.077029   4.637171
    16  H    2.739241   3.553221   5.037364   4.343405   5.161826
                   11         12         13         14         15
    11  H    0.000000
    12  H    1.774771   0.000000
    13  H    2.482355   3.048900   0.000000
    14  H    4.317690   3.786739   2.490948   0.000000
    15  H    3.778516   3.090356   2.485878   1.773205   0.000000
    16  H    3.796693   2.604741   3.065427   1.768133   1.771012
                   16
    16  H    0.000000
 Symmetry turned off by external request.
 Rotational constants (GHZ):           5.6681517           1.3899309           1.1766007
   242 basis functions,   400 primitive gaussians,   256 cartesian basis functions
    27 alpha electrons       27 beta electrons
       nuclear repulsion energy       290.5670612140 Hartrees.
 NAtoms=   16 NActive=   16 NUniq=   16 SFac= 1.00D+00 NAtFMM=   60 NAOKFM=F Big=F
 ExpMin= 2.97D-02 ExpMax= 1.17D+04 ExpMxC= 4.01D+02 IAcc=3 IRadAn=         5 AccDes= 0.00D+00
 Harris functional with IExCor=  205 and IRadAn=       5 diagonalized for initial guess.
 HarFok:  IExCor=  205 AccDes= 0.00D+00 IRadAn=         5 IDoV= 1 UseB2=F ITyADJ=14
 ICtDFT=  3500011 ScaDFX=  1.000000  1.000000  1.000000  1.000000
 FoFCou: FMM=F IPFlag=           0 FMFlag=      100000 FMFlg1=           0
         NFxFlg=           0 DoJE=T BraDBF=F KetDBF=T FulRan=T
         wScrn=  0.000000 ICntrl=       500 IOpCl=  0 I1Cent=   200000004 NGrid=           0
         NMat0=    1 NMatS0=      1 NMatT0=    0 NMatD0=    1 NMtDS0=    0 NMtDT0=    0
 Symmetry not used in FoFCou.
 SCF Done:  E(RHF) =  -323.914807105     A.U. after   14 cycles
            NFock= 14  Conv=0.39D-08     -V/T= 2.0011

 **********************************************************************

            Population analysis using the SCF Density.

 **********************************************************************

 Alpha  occ. eigenvalues --  -20.58733 -15.57826 -11.30820 -11.29343 -11.29050
 Alpha  occ. eigenvalues --  -11.27875 -11.24483  -1.40790  -1.22852  -1.10940
 Alpha  occ. eigenvalues --   -0.97862  -0.92355  -0.85876  -0.72097  -0.69669
 Alpha  occ. eigenvalues --   -0.66907  -0.64150  -0.60797  -0.58060  -0.56860
 Alpha  occ. eigenvalues --   -0.54372  -0.53267  -0.52400  -0.50203  -0.45805
 Alpha  occ. eigenvalues --   -0.45663  -0.44295
 Alpha virt. eigenvalues --    0.03088   0.04132   0.04383   0.04833   0.06266
 Alpha virt. eigenvalues --    0.06497   0.07098   0.07708   0.08363   0.10171
 Alpha virt. eigenvalues --    0.11419   0.12648   0.13211   0.13894   0.14630
 Alpha virt. eigenvalues --    0.15186   0.15612   0.15990   0.16686   0.17216
 Alpha virt. eigenvalues --    0.17784   0.17960   0.18538   0.18755   0.19384
 Alpha virt. eigenvalues --    0.20315   0.20835   0.22060   0.23173   0.24723
 Alpha virt. eigenvalues --    0.25331   0.26578   0.27082   0.28576   0.30120
 Alpha virt. eigenvalues --    0.30245   0.31202   0.31545   0.33116   0.33938
 Alpha virt. eigenvalues --    0.34474   0.34681   0.36144   0.37301   0.38881
 Alpha virt. eigenvalues --    0.40426   0.40893   0.41472   0.41573   0.41924
 Alpha virt. eigenvalues --    0.43280   0.44064   0.45034   0.45234   0.46688
 Alpha virt. eigenvalues --    0.47554   0.48248   0.49032   0.49539   0.50415
 Alpha virt. eigenvalues --    0.50995   0.52072   0.53907   0.55091   0.55352
 Alpha virt. eigenvalues --    0.55695   0.57413   0.58363   0.58772   0.60614
 Alpha virt. eigenvalues --    0.60874   0.61488   0.62218   0.62936   0.64003
 Alpha virt. eigenvalues --    0.64280   0.64720   0.65499   0.66746   0.67513
 Alpha virt. eigenvalues --    0.69496   0.70068   0.70725   0.71478   0.73550
 Alpha virt. eigenvalues --    0.74285   0.75675   0.76270   0.76953   0.78757
 Alpha virt. eigenvalues --    0.79848   0.80052   0.80310   0.81430   0.82630
 Alpha virt. eigenvalues --    0.83606   0.85498   0.86210   0.88423   0.90275
 Alpha virt. eigenvalues --    0.91318   0.93710   0.94300   0.96482   0.97004
 Alpha virt. eigenvalues --    0.99218   1.01149   1.01579   1.03516   1.05192
 Alpha virt. eigenvalues --    1.05922   1.07866   1.09547   1.09976   1.13527
 Alpha virt. eigenvalues --    1.14401   1.15278   1.17852   1.19421   1.22516
 Alpha virt. eigenvalues --    1.25999   1.27452   1.29550   1.30372   1.34594
 Alpha virt. eigenvalues --    1.35730   1.38199   1.39538   1.42787   1.46656
 Alpha virt. eigenvalues --    1.47891   1.49207   1.52997   1.55361   1.57079
 Alpha virt. eigenvalues --    1.63076   1.66216   1.68440   1.70880   1.71968
 Alpha virt. eigenvalues --    1.73320   1.74775   1.75932   1.78140   1.79614
 Alpha virt. eigenvalues --    1.80755   1.81864   1.83286   1.86709   1.87664
 Alpha virt. eigenvalues --    1.89133   1.90856   1.92784   1.97910   1.98275
 Alpha virt. eigenvalues --    2.01082   2.03724   2.05128   2.09748   2.11590
 Alpha virt. eigenvalues --    2.13519   2.15545   2.16475   2.17667   2.18619
 Alpha virt. eigenvalues --    2.20943   2.21607   2.25051   2.27714   2.28662
 Alpha virt. eigenvalues --    2.30452   2.30930   2.32193   2.35733   2.39480
 Alpha virt. eigenvalues --    2.41659   2.43727   2.44118   2.48173   2.50509
 Alpha virt. eigenvalues --    2.53905   2.55326   2.55729   2.60372   2.65039
 Alpha virt. eigenvalues --    2.66612   2.68034   2.69418   2.72113   2.74042
 Alpha virt. eigenvalues --    2.76865   2.78154   2.81799   2.83066   2.86311
 Alpha virt. eigenvalues --    2.88852   2.93838   2.96420   3.00000   3.02560
 Alpha virt. eigenvalues --    3.07553   3.12206   3.14976   3.17220   3.23585
 Alpha virt. eigenvalues --    3.25594   3.39010   3.50207   3.54404   3.71954
 Alpha virt. eigenvalues --    3.84186   3.85418   3.99644   4.10205   4.20789
          Condensed to atoms (all electrons):
 Mulliken charges:
               1
     1  C    0.765458
     2  O   -0.876071
     3  C    1.118440
     4  C   -0.274693
     5  C    0.777540
     6  C   -0.294262
     7  N   -0.326059
     8  H   -0.273921
     9  H   -0.058310
    10  H   -0.050996
    11  H   -0.200979
    12  H   -0.151505
    13  H   -0.024483
    14  H   -0.085253
    15  H   -0.028117
    16  H   -0.016788
 Sum of Mulliken charges =  -0.00000
 Mulliken charges with hydrogens summed into heavy atoms:
               1
     1  C    0.382231
     2  O   -0.876071
     3  C    0.765956
     4  C   -0.299176
     5  C    0.647381
     6  C   -0.294262
     7  N   -0.326059
 Electronic spatial extent (au):  <R**2>=           1030.8954
 Charge=             -0.0000 electrons
 Dipole moment (field-independent basis, Debye):
    X=              3.2846    Y=              2.2819    Z=             -0.9363  Tot=              4.1076
 NROrb=    242 NOA=    27 NOB=    27 NVA=   215 NVB=   215

 **** Warning!!: The largest alpha MO coefficient is  0.76826517D+02

    12 initial guesses have been made.
 Iteration     1 Dimension    12 NMult     0 NNew     12
 Iteration     2 Dimension    24 NMult    12 NNew     12
 Iteration     3 Dimension    27 NMult    24 NNew      3
 New state      1 was old state      2
 Iteration     4 Dimension    30 NMult    27 NNew      3
 Iteration     5 Dimension    33 NMult    30 NNew      3
 Iteration     6 Dimension    36 NMult    33 NNew      3
 Iteration     7 Dimension    39 NMult    36 NNew      3
 Iteration     8 Dimension    42 NMult    39 NNew      3
 Iteration     9 Dimension    45 NMult    42 NNew      3
 ***********************************************************************
 Stability analysis using <AA,BB:AA,BB> singles matrix:
 ***********************************************************************
 Ground to excited state transition densities written to RWF  633

 Eigenvectors of the stability matrix:
 
 Excited state symmetry could not be determined.
 Eigenvector   1:      Singlet-?Sym  Eigenvalue= 0.2306720  <S**2>=0.000
      25 -> 42        -0.12450
      25 -> 46        -0.11332
      25 -> 52        -0.16319
      25 -> 53         0.28532
      25 -> 54        -0.10568
      25 -> 64        -0.11217
      26 -> 48        -0.24353
      26 -> 51         0.11997
      26 -> 54         0.20011
      26 -> 57        -0.10325
 The wavefunction is stable under the perturbations considered.
 The wavefunction is already stable.

 **********************************************************************

            Population analysis using the SCF Density.

 **********************************************************************

 Alpha  occ. eigenvalues --  -20.58733 -15.57826 -11.30820 -11.29343 -11.29050
 Alpha  occ. eigenvalues --  -11.27875 -11.24483  -1.40790  -1.22852  -1.10940
 Alpha  occ. eigenvalues --   -0.97862  -0.92355  -0.85876  -0.72097  -0.69669
 Alpha  occ. eigenvalues --   -0.66907  -0.64150  -0.60797  -0.58060  -0.56860
 Alpha  occ. eigenvalues --   -0.54372  -0.53267  -0.52400  -0.50203  -0.45805
 Alpha  occ. eigenvalues --   -0.45663  -0.44295
 Alpha virt. eigenvalues --    0.03088   0.04132   0.04383   0.04833   0.06266
 Alpha virt. eigenvalues --    0.06497   0.07098   0.07708   0.08363   0.10171
 Alpha virt. eigenvalues --    0.11419   0.12648   0.13211   0.13894   0.14630
 Alpha virt. eigenvalues --    0.15186   0.15612   0.15990   0.16686   0.17216
 Alpha virt. eigenvalues --    0.17784   0.17960   0.18538   0.18755   0.19384
 Alpha virt. eigenvalues --    0.20315   0.20835   0.22060   0.23173   0.24723
 Alpha virt. eigenvalues --    0.25331   0.26578   0.27082   0.28576   0.30120
 Alpha virt. eigenvalues --    0.30245   0.31202   0.31545   0.33116   0.33938
 Alpha virt. eigenvalues --    0.34474   0.34681   0.36144   0.37301   0.38881
 Alpha virt. eigenvalues --    0.40426   0.40893   0.41472   0.41573   0.41924
 Alpha virt. eigenvalues --    0.43280   0.44064   0.45034   0.45234   0.46688
 Alpha virt. eigenvalues --    0.47554   0.48248   0.49032   0.49539   0.50415
 Alpha virt. eigenvalues --    0.50995   0.52072   0.53907   0.55091   0.55352
 Alpha virt. eigenvalues --    0.55695   0.57413   0.58363   0.58772   0.60614
 Alpha virt. eigenvalues --    0.60874   0.61488   0.62218   0.62936   0.64003
 Alpha virt. eigenvalues --    0.64280   0.64720   0.65499   0.66746   0.67513
 Alpha virt. eigenvalues --    0.69496   0.70068   0.70725   0.71478   0.73550
 Alpha virt. eigenvalues --    0.74285   0.75675   0.76270   0.76953   0.78757
 Alpha virt. eigenvalues --    0.79848   0.80052   0.80310   0.81430   0.82630
 Alpha virt. eigenvalues --    0.83606   0.85498   0.86210   0.88423   0.90275
 Alpha virt. eigenvalues --    0.91318   0.93710   0.94300   0.96482   0.97004
 Alpha virt. eigenvalues --    0.99218   1.01149   1.01579   1.03516   1.05192
 Alpha virt. eigenvalues --    1.05922   1.07866   1.09547   1.09976   1.13527
 Alpha virt. eigenvalues --    1.14401   1.15278   1.17852   1.19421   1.22516
 Alpha virt. eigenvalues --    1.25999   1.27452   1.29550   1.30372   1.34594
 Alpha virt. eigenvalues --    1.35730   1.38199   1.39538   1.42787   1.46656
 Alpha virt. eigenvalues --    1.47891   1.49207   1.52997   1.55361   1.57079
 Alpha virt. eigenvalues --    1.63076   1.66216   1.68440   1.70880   1.71968
 Alpha virt. eigenvalues --    1.73320   1.74775   1.75932   1.78140   1.79614
 Alpha virt. eigenvalues --    1.80755   1.81864   1.83286   1.86709   1.87664
 Alpha virt. eigenvalues --    1.89133   1.90856   1.92784   1.97910   1.98275
 Alpha virt. eigenvalues --    2.01082   2.03724   2.05128   2.09748   2.11590
 Alpha virt. eigenvalues --    2.13519   2.15545   2.16475   2.17667   2.18619
 Alpha virt. eigenvalues --    2.20943   2.21607   2.25051   2.27714   2.28662
 Alpha virt. eigenvalues --    2.30452   2.30930   2.32193   2.35733   2.39480
 Alpha virt. eigenvalues --    2.41659   2.43727   2.44118   2.48173   2.50509
 Alpha virt. eigenvalues --    2.53905   2.55326   2.55729   2.60372   2.65039
 Alpha virt. eigenvalues --    2.66612   2.68034   2.69418   2.72113   2.74042
 Alpha virt. eigenvalues --    2.76865   2.78154   2.81799   2.83066   2.86311
 Alpha virt. eigenvalues --    2.88852   2.93838   2.96420   3.00000   3.02560
 Alpha virt. eigenvalues --    3.07553   3.12206   3.14976   3.17220   3.23585
 Alpha virt. eigenvalues --    3.25594   3.39010   3.50207   3.54404   3.71954
 Alpha virt. eigenvalues --    3.84186   3.85418   3.99644   4.10205   4.20789
          Condensed to atoms (all electrons):
 Mulliken charges:
               1
     1  C    0.765458
     2  O   -0.876071
     3  C    1.118440
     4  C   -0.274693
     5  C    0.777540
     6  C   -0.294262
     7  N   -0.326059
     8  H   -0.273921
     9  H   -0.058310
    10  H   -0.050996
    11  H   -0.200979
    12  H   -0.151505
    13  H   -0.024483
    14  H   -0.085253
    15  H   -0.028117
    16  H   -0.016788
 Sum of Mulliken charges =  -0.00000
 Mulliken charges with hydrogens summed into heavy atoms:
               1
     1  C    0.382231
     2  O   -0.876071
     3  C    0.765956
     4  C   -0.299176
     5  C    0.647381
     6  C   -0.294262
     7  N   -0.326059
 Electronic spatial extent (au):  <R**2>=           1030.8954
 Charge=             -0.0000 electrons
 Dipole moment (field-independent basis, Debye):
    X=              3.2846    Y=              2.2819    Z=             -0.9363  Tot=              4.1076
 Unable to Open any file for archive entry.
 1\1\GINC-SE424\Stability\RHF\Aug-CC-pVDZ\C5H9N1O1\OHZDE\09-Apr-2025\0\
 \#t hf aug-cc-pvdz symm=none int=(grid=ultrafine) guess=(read,tcheck) 
 stable=(opt,rrhf)\\title\\0,1\C,0,2.49269025,0.388926,0.05020372\O,0,1
 .1199426,0.6818285,0.11718918\C,0,0.32705253,-0.46278729,0.26031005\C,
 0,-1.13444901,-0.01558862,0.29431704\C,0,-1.56997782,0.66577197,-1.003
 776\C,0,-1.98176423,-1.17361857,0.59103923\N,0,-2.63661757,-2.09065708
 ,0.80668737\H,0,3.02168523,1.3338814,-0.06067481\H,0,2.72240663,-0.254
 64215,-0.80826167\H,0,2.84042372,-0.10949965,0.96381035\H,0,0.57770385
 ,-0.99795871,1.18647952\H,0,0.48469535,-1.15678243,-0.57872226\H,0,-1.
 24536738,0.68575747,1.12648238\H,0,-2.6031025,1.00570539,-0.9372548\H,
 0,-0.92639099,1.52328289,-1.19222305\H,0,-1.48893066,-0.02361912,-1.84
 577352\\Version=ES64L-G16RevC.01\HF=-323.9148071\RMSD=3.916e-09\Dipole
 =1.2922566,0.897749,-0.3683873\Quadrupole=-0.3400297,-3.0099846,3.3500
 143,-7.8169601,2.4666624,2.0941093\PG=Unknown\\@
 The archive entry for this job was punched.


 In the beginning there was nothing, which exploded.
 Job cpu time:       0 days  0 hours  8 minutes  4.5 seconds.
 Elapsed time:       0 days  0 hours  0 minutes 34.4 seconds.
 File lengths (MBytes):  RWF=    256 Int=      0 D2E=      0 Chk=      8 Scr=      1
 Normal termination of Gaussian 16 at Wed Apr  9 03:40:32 2025.
 Initial command:
 /arc/software/Gaussian/g16.c01/l1.exe "/tmp/slurm/4866084/Gau-550239.inp" -scrdir="/tmp/slurm/4866084/"
 Entering Link 1 = /arc/software/Gaussian/g16.c01/l1.exe PID=    550525.
  
 Copyright (c) 1988-2019, Gaussian, Inc.  All Rights Reserved.
  
 This is part of the Gaussian(R) 16 program.  It is based on
 the Gaussian(R) 09 system (copyright 2009, Gaussian, Inc.),
 the Gaussian(R) 03 system (copyright 2003, Gaussian, Inc.),
 the Gaussian(R) 98 system (copyright 1998, Gaussian, Inc.),
 the Gaussian(R) 94 system (copyright 1995, Gaussian, Inc.),
 the Gaussian 92(TM) system (copyright 1992, Gaussian, Inc.),
 the Gaussian 90(TM) system (copyright 1990, Gaussian, Inc.),
 the Gaussian 88(TM) system (copyright 1988, Gaussian, Inc.),
 the Gaussian 86(TM) system (copyright 1986, Carnegie Mellon
 University), and the Gaussian 82(TM) system (copyright 1983,
 Carnegie Mellon University). Gaussian is a federally registered
 trademark of Gaussian, Inc.
  
 This software contains proprietary and confidential information,
 including trade secrets, belonging to Gaussian, Inc.
  
 This software is provided under written license and may be
 used, copied, transmitted, or stored only in accord with that
 written license.
  
 The following legend is applicable only to US Government
 contracts under FAR:
  
                    RESTRICTED RIGHTS LEGEND
  
 Use, reproduction and disclosure by the US Government is
 subject to restrictions as set forth in subparagraphs (a)
 and (c) of the Commercial Computer Software - Restricted
 Rights clause in FAR 52.227-19.
  
 Gaussian, Inc.
 340 Quinnipiac St., Bldg. 40, Wallingford CT 06492
  
  
 ---------------------------------------------------------------
 Warning -- This program may not be used in any manner that
 competes with the business of Gaussian, Inc. or will provide
 assistance to any competitor of Gaussian, Inc.  The licensee
 of this program is prohibited from giving any competitor of
 Gaussian, Inc. access to this program.  By using this program,
 the user acknowledges that Gaussian, Inc. is engaged in the
 business of creating and licensing software in the field of
 computational chemistry and represents and warrants to the
 licensee that it is not a competitor of Gaussian, Inc. and that
 it will not use this program in any manner prohibited above.
 ---------------------------------------------------------------
  

 Cite this work as:
 Gaussian 16, Revision C.01,
 M. J. Frisch, G. W. Trucks, H. B. Schlegel, G. E. Scuseria, 
 M. A. Robb, J. R. Cheeseman, G. Scalmani, V. Barone, 
 G. A. Petersson, H. Nakatsuji, X. Li, M. Caricato, A. V. Marenich, 
 J. Bloino, B. G. Janesko, R. Gomperts, B. Mennucci, H. P. Hratchian, 
 J. V. Ortiz, A. F. Izmaylov, J. L. Sonnenberg, D. Williams-Young, 
 F. Ding, F. Lipparini, F. Egidi, J. Goings, B. Peng, A. Petrone, 
 T. Henderson, D. Ranasinghe, V. G. Zakrzewski, J. Gao, N. Rega, 
 G. Zheng, W. Liang, M. Hada, M. Ehara, K. Toyota, R. Fukuda, 
 J. Hasegawa, M. Ishida, T. Nakajima, Y. Honda, O. Kitao, H. Nakai, 
 T. Vreven, K. Throssell, J. A. Montgomery, Jr., J. E. Peralta, 
 F. Ogliaro, M. J. Bearpark, J. J. Heyd, E. N. Brothers, K. N. Kudin, 
 V. N. Staroverov, T. A. Keith, R. Kobayashi, J. Normand, 
 K. Raghavachari, A. P. Rendell, J. C. Burant, S. S. Iyengar, 
 J. Tomasi, M. Cossi, J. M. Millam, M. Klene, C. Adamo, R. Cammi, 
 J. W. Ochterski, R. L. Martin, K. Morokuma, O. Farkas, 
 J. B. Foresman, and D. J. Fox, Gaussian, Inc., Wallingford CT, 2019.
 
 ******************************************
 Gaussian 16:  ES64L-G16RevC.01  3-Jul-2019
                 9-Apr-2025 
 ******************************************
 %nprocs=16
 Will use up to   16 processors via shared memory.
 %mem=30GB
 %chk=Grambow2020_wb97xd3_007533_forward_mol2.chk
 ----------------------------------------------------------------------
 #t hf aug-cc-pvdz iop(5/13=1,5/36=2,99/5=2) pseudo=read geom=check gue
 ss=(read,tcheck) scf=(maxcycle=1)
 ----------------------------------------------------------------------
 -----
 title
 -----
 Structure from the checkpoint file:  "Grambow2020_wb97xd3_007533_forward_mol2.chk"
 Charge =  0 Multiplicity = 1
 Z-Matrix found in chk file.
 C,0,2.49269025,0.388926,0.05020372
 O,0,1.1199426,0.6818285,0.11718918
 C,0,0.32705253,-0.46278729,0.26031005
 C,0,-1.13444901,-0.01558862,0.29431704
 C,0,-1.56997782,0.66577197,-1.003776
 C,0,-1.98176423,-1.17361857,0.59103923
 N,0,-2.63661757,-2.09065708,0.80668737
 H,0,3.02168523,1.3338814,-0.06067481
 H,0,2.72240663,-0.25464215,-0.80826167
 H,0,2.84042372,-0.10949965,0.96381035
 H,0,0.57770385,-0.99795871,1.18647952
 H,0,0.48469535,-1.15678243,-0.57872226
 H,0,-1.24536738,0.68575747,1.12648238
 H,0,-2.6031025,1.00570539,-0.9372548
 H,0,-0.92639099,1.52328289,-1.19222305
 H,0,-1.48893066,-0.02361912,-1.84577352
 Recover connectivity data from disk.
                    Distance matrix (angstroms):
                    1          2          3          4          5
     1  C    0.000000
     2  O    1.405246   0.000000
     3  C    2.336567   1.399751   0.000000
     4  C    3.657781   2.366442   1.528767   0.000000
     5  C    4.206280   2.914188   2.543675   1.529373   0.000000
     6  C    4.770198   3.645244   2.438298   1.465271   2.469081
     7  N    5.747208   4.719516   3.425176   2.612459   3.466035
     8  H    1.088609   2.018275   3.254550   4.384124   4.734890
     9  H    1.097229   2.073964   2.631139   4.018478   4.394309
    10  H    1.097280   2.074373   2.633773   4.031954   4.891225
    11  H    2.623308   2.063756   1.098647   2.166212   3.489664
    12  H    2.610901   2.065992   1.100207   2.164752   2.779219
    13  H    3.901225   2.571649   2.131177   1.093933   2.154941
    14  H    5.227102   3.883016   3.489476   2.171809   1.089645
    15  H    3.810578   2.571009   2.761421   2.149701   1.088596
    16  H    4.429247   3.340224   2.815360   2.169265   1.091233
                    6          7          8          9         10
     6  C    0.000000
     7  N    1.147300   0.000000
     8  H    5.634429   6.670545   0.000000
     9  H    4.993174   5.890514   1.780972   0.000000
    10  H    4.952252   5.826462   1.779262   1.781919   0.000000
    11  H    2.633682   3.416152   3.600822   3.021798   2.441074
    12  H    2.729844   3.540350   3.592784   2.423612   3.004274
    13  H    2.070328   3.121910   4.476287   4.513404   4.165643
    14  H    2.733349   3.553860   5.702134   5.474136   5.872794
    15  H    3.401046   4.470020   4.111396   4.077029   4.637171
    16  H    2.739241   3.553221   5.037364   4.343405   5.161826
                   11         12         13         14         15
    11  H    0.000000
    12  H    1.774771   0.000000
    13  H    2.482355   3.048900   0.000000
    14  H    4.317690   3.786739   2.490948   0.000000
    15  H    3.778516   3.090356   2.485878   1.773205   0.000000
    16  H    3.796693   2.604741   3.065427   1.768133   1.771012
                   16
    16  H    0.000000
 Framework group  C1[X(C5H9NO)]
 Deg. of freedom    42
                         Standard orientation:                         
 ---------------------------------------------------------------------
 Center     Atomic      Atomic             Coordinates (Angstroms)
 Number     Number       Type             X           Y           Z
 ---------------------------------------------------------------------
      1          6           0       -2.837181   -0.440643    0.139965
      2          8           0       -1.653358    0.181415   -0.291685
      3          6           0       -0.501356   -0.497020    0.122946
      4          6           0        0.708908    0.287725   -0.383580
      5          6           0        0.785790    1.695242    0.209688
      6          6           0        1.927181   -0.473063   -0.093696
      7          7           0        2.875511   -1.069421    0.153943
      8          1           0       -3.670449    0.155768   -0.227496
      9          1           0       -2.885937   -0.490426    1.234979
     10          1           0       -2.923146   -1.458612   -0.260502
     11          1           0       -0.482893   -1.518291   -0.281641
     12          1           0       -0.463757   -0.572380    1.219925
     13          1           0        0.624618    0.357473   -1.472028
     14          1           0        1.635933    2.242790   -0.196237
     15          1           0       -0.129231    2.235061   -0.027741
     16          1           0        0.893093    1.649792    1.294681
 ---------------------------------------------------------------------
 Rotational constants (GHZ):           5.6681517           1.3899309           1.1766007
 ======================================================================================================
                                       Pseudopotential Parameters
 ======================================================================================================
  Center     Atomic      Valence      Angular      Power
  Number     Number     Electrons     Momentum     of R      Exponent        Coefficient   SO-Coeffient
 ======================================================================================================
    1          6            6
                                      G and up 
                                                     0        0.0000010       -0.00011185    0.00000000
                                                     2        0.1200000       -0.02301220    0.00000000
                                                     2        0.1400000        0.13317600    0.00000000
                                                     2        0.1600000       -0.19690668    0.00000000
                                                     2        0.2200000        0.23163694    0.00000000
                                                     2        0.3000000       -0.36920489    0.00000000
                                                     2        0.4000000        0.36389709    0.00000000
                                                     2        0.7000000       -0.38862160    0.00000000
                                                     2        1.3000000        0.80803421    0.00000000
                                      S - G
                                                     0        0.0000010        0.00312304    0.00000000
                                                     2        0.1200000       -0.00632892    0.00000000
                                                     2        0.2200000       -0.03780897    0.00000000
                                                     2        0.4000000        0.26269560    0.00000000
                                                     2        0.9000000       -0.28209514    0.00000000
                                                     2        1.5000000       -0.72686737    0.00000000
                                      P - G
                                                     0        0.0000010       -0.01465594    0.00000000
                                                     2        0.1200000        0.07908409    0.00000000
                                                     2        0.1800000       -0.30615861    0.00000000
                                                     2        0.2600000        0.41506950    0.00000000
                                                     2        0.5000000       -0.36252345    0.00000000
                                                     2        0.9000000        0.15124193    0.00000000
                                                     2        3.0000000       -0.80425677    0.00000000
                                      D - G
                                                     0        0.0000010        0.01149631    0.00000000
                                                     2        0.1200000       -0.04713561    0.00000000
                                                     2        0.1600000        0.10865096    0.00000000
                                                     2        0.2800000       -0.15816701    0.00000000
                                                     2        0.7000000        0.65478804    0.00000000
                                                     2        1.3000000       -1.73816624    0.00000000
                                      F - G
                                                     0        0.0000010        0.00481868    0.00000000
                                                     2        0.1200000       -0.04746842    0.00000000
                                                     2        0.1600000        0.09327889    0.00000000
                                                     2        0.4000000       -0.19693326    0.00000000
                                                     2        0.9000000        0.34938253    0.00000000
    2          8            8
                                      G and up 
                                                     0        0.0000010        0.00001165    0.00000000
                                                     2        0.1200000       -0.01744018    0.00000000
                                                     2        0.1400000        0.05401326    0.00000000
                                                     2        0.1800000       -0.08231208    0.00000000
                                                     2        0.2600000        0.11570222    0.00000000
                                                     2        0.4000000       -0.20630360    0.00000000
                                                     2        0.7000000        0.38074319    0.00000000
                                                     2        1.2000000       -0.17045091    0.00000000
                                                     2        2.0000000       -1.45433187    0.00000000
                                      S - G
                                                     0        0.0000010       -0.00117944    0.00000000
                                                     2        0.1400000        0.04368312    0.00000000
                                                     2        0.3000000       -0.33477926    0.00000000
                                                     2        0.6000000        1.52630657    0.00000000
                                                     2        1.5000000       -2.50804716    0.00000000
                                                     2        3.0000000        2.89751681    0.00000000
                                      P - G
                                                     0        0.0000010        0.06576007    0.00000000
                                                     2        0.1200000       -0.10329304    0.00000000
                                                     2        0.2000000        0.24891756    0.00000000
                                                     2        0.4000000       -0.50800022    0.00000000
                                                     2        0.9000000        0.81480796    0.00000000
                                      D - G
                                                     0        0.0000010       -0.14101855    0.00000000
                                                     2        0.1200000        0.22105937    0.00000000
                                                     2        0.1800000       -0.45814988    0.00000000
                                                     2        0.3000000        0.46029282    0.00000000
                                      F - G
                                                     0        0.0000010        0.07483044    0.00000000
                                                     2        0.1200000       -0.09134252    0.00000000
                                                     2        0.1400000        0.04125459    0.00000000
                                                     2        0.3000000        0.37914837    0.00000000
                                                     2        0.5000000       -0.86881279    0.00000000
    3          6            6
                                      G and up 
                                                     0        0.0000010       -0.00011185    0.00000000
                                                     2        0.1200000       -0.02301220    0.00000000
                                                     2        0.1400000        0.13317600    0.00000000
                                                     2        0.1600000       -0.19690668    0.00000000
                                                     2        0.2200000        0.23163694    0.00000000
                                                     2        0.3000000       -0.36920489    0.00000000
                                                     2        0.4000000        0.36389709    0.00000000
                                                     2        0.7000000       -0.38862160    0.00000000
                                                     2        1.3000000        0.80803421    0.00000000
                                      S - G
                                                     0        0.0000010        0.00312304    0.00000000
                                                     2        0.1200000       -0.00632892    0.00000000
                                                     2        0.2200000       -0.03780897    0.00000000
                                                     2        0.4000000        0.26269560    0.00000000
                                                     2        0.9000000       -0.28209514    0.00000000
                                                     2        1.5000000       -0.72686737    0.00000000
                                      P - G
                                                     0        0.0000010       -0.01465594    0.00000000
                                                     2        0.1200000        0.07908409    0.00000000
                                                     2        0.1800000       -0.30615861    0.00000000
                                                     2        0.2600000        0.41506950    0.00000000
                                                     2        0.5000000       -0.36252345    0.00000000
                                                     2        0.9000000        0.15124193    0.00000000
                                                     2        3.0000000       -0.80425677    0.00000000
                                      D - G
                                                     0        0.0000010        0.01149631    0.00000000
                                                     2        0.1200000       -0.04713561    0.00000000
                                                     2        0.1600000        0.10865096    0.00000000
                                                     2        0.2800000       -0.15816701    0.00000000
                                                     2        0.7000000        0.65478804    0.00000000
                                                     2        1.3000000       -1.73816624    0.00000000
                                      F - G
                                                     0        0.0000010        0.00481868    0.00000000
                                                     2        0.1200000       -0.04746842    0.00000000
                                                     2        0.1600000        0.09327889    0.00000000
                                                     2        0.4000000       -0.19693326    0.00000000
                                                     2        0.9000000        0.34938253    0.00000000
    4          6            6
                                      G and up 
                                                     0        0.0000010       -0.00011185    0.00000000
                                                     2        0.1200000       -0.02301220    0.00000000
                                                     2        0.1400000        0.13317600    0.00000000
                                                     2        0.1600000       -0.19690668    0.00000000
                                                     2        0.2200000        0.23163694    0.00000000
                                                     2        0.3000000       -0.36920489    0.00000000
                                                     2        0.4000000        0.36389709    0.00000000
                                                     2        0.7000000       -0.38862160    0.00000000
                                                     2        1.3000000        0.80803421    0.00000000
                                      S - G
                                                     0        0.0000010        0.00312304    0.00000000
                                                     2        0.1200000       -0.00632892    0.00000000
                                                     2        0.2200000       -0.03780897    0.00000000
                                                     2        0.4000000        0.26269560    0.00000000
                                                     2        0.9000000       -0.28209514    0.00000000
                                                     2        1.5000000       -0.72686737    0.00000000
                                      P - G
                                                     0        0.0000010       -0.01465594    0.00000000
                                                     2        0.1200000        0.07908409    0.00000000
                                                     2        0.1800000       -0.30615861    0.00000000
                                                     2        0.2600000        0.41506950    0.00000000
                                                     2        0.5000000       -0.36252345    0.00000000
                                                     2        0.9000000        0.15124193    0.00000000
                                                     2        3.0000000       -0.80425677    0.00000000
                                      D - G
                                                     0        0.0000010        0.01149631    0.00000000
                                                     2        0.1200000       -0.04713561    0.00000000
                                                     2        0.1600000        0.10865096    0.00000000
                                                     2        0.2800000       -0.15816701    0.00000000
                                                     2        0.7000000        0.65478804    0.00000000
                                                     2        1.3000000       -1.73816624    0.00000000
                                      F - G
                                                     0        0.0000010        0.00481868    0.00000000
                                                     2        0.1200000       -0.04746842    0.00000000
                                                     2        0.1600000        0.09327889    0.00000000
                                                     2        0.4000000       -0.19693326    0.00000000
                                                     2        0.9000000        0.34938253    0.00000000
    5          6            6
                                      G and up 
                                                     0        0.0000010       -0.00011185    0.00000000
                                                     2        0.1200000       -0.02301220    0.00000000
                                                     2        0.1400000        0.13317600    0.00000000
                                                     2        0.1600000       -0.19690668    0.00000000
                                                     2        0.2200000        0.23163694    0.00000000
                                                     2        0.3000000       -0.36920489    0.00000000
                                                     2        0.4000000        0.36389709    0.00000000
                                                     2        0.7000000       -0.38862160    0.00000000
                                                     2        1.3000000        0.80803421    0.00000000
                                      S - G
                                                     0        0.0000010        0.00312304    0.00000000
                                                     2        0.1200000       -0.00632892    0.00000000
                                                     2        0.2200000       -0.03780897    0.00000000
                                                     2        0.4000000        0.26269560    0.00000000
                                                     2        0.9000000       -0.28209514    0.00000000
                                                     2        1.5000000       -0.72686737    0.00000000
                                      P - G
                                                     0        0.0000010       -0.01465594    0.00000000
                                                     2        0.1200000        0.07908409    0.00000000
                                                     2        0.1800000       -0.30615861    0.00000000
                                                     2        0.2600000        0.41506950    0.00000000
                                                     2        0.5000000       -0.36252345    0.00000000
                                                     2        0.9000000        0.15124193    0.00000000
                                                     2        3.0000000       -0.80425677    0.00000000
                                      D - G
                                                     0        0.0000010        0.01149631    0.00000000
                                                     2        0.1200000       -0.04713561    0.00000000
                                                     2        0.1600000        0.10865096    0.00000000
                                                     2        0.2800000       -0.15816701    0.00000000
                                                     2        0.7000000        0.65478804    0.00000000
                                                     2        1.3000000       -1.73816624    0.00000000
                                      F - G
                                                     0        0.0000010        0.00481868    0.00000000
                                                     2        0.1200000       -0.04746842    0.00000000
                                                     2        0.1600000        0.09327889    0.00000000
                                                     2        0.4000000       -0.19693326    0.00000000
                                                     2        0.9000000        0.34938253    0.00000000
    6          6            6
                                      G and up 
                                                     0        0.0000010       -0.00011185    0.00000000
                                                     2        0.1200000       -0.02301220    0.00000000
                                                     2        0.1400000        0.13317600    0.00000000
                                                     2        0.1600000       -0.19690668    0.00000000
                                                     2        0.2200000        0.23163694    0.00000000
                                                     2        0.3000000       -0.36920489    0.00000000
                                                     2        0.4000000        0.36389709    0.00000000
                                                     2        0.7000000       -0.38862160    0.00000000
                                                     2        1.3000000        0.80803421    0.00000000
                                      S - G
                                                     0        0.0000010        0.00312304    0.00000000
                                                     2        0.1200000       -0.00632892    0.00000000
                                                     2        0.2200000       -0.03780897    0.00000000
                                                     2        0.4000000        0.26269560    0.00000000
                                                     2        0.9000000       -0.28209514    0.00000000
                                                     2        1.5000000       -0.72686737    0.00000000
                                      P - G
                                                     0        0.0000010       -0.01465594    0.00000000
                                                     2        0.1200000        0.07908409    0.00000000
                                                     2        0.1800000       -0.30615861    0.00000000
                                                     2        0.2600000        0.41506950    0.00000000
                                                     2        0.5000000       -0.36252345    0.00000000
                                                     2        0.9000000        0.15124193    0.00000000
                                                     2        3.0000000       -0.80425677    0.00000000
                                      D - G
                                                     0        0.0000010        0.01149631    0.00000000
                                                     2        0.1200000       -0.04713561    0.00000000
                                                     2        0.1600000        0.10865096    0.00000000
                                                     2        0.2800000       -0.15816701    0.00000000
                                                     2        0.7000000        0.65478804    0.00000000
                                                     2        1.3000000       -1.73816624    0.00000000
                                      F - G
                                                     0        0.0000010        0.00481868    0.00000000
                                                     2        0.1200000       -0.04746842    0.00000000
                                                     2        0.1600000        0.09327889    0.00000000
                                                     2        0.4000000       -0.19693326    0.00000000
                                                     2        0.9000000        0.34938253    0.00000000
    7          7            7
                                      G and up 
                                                     0        0.0000010       -0.00000022    0.00000000
                                                     2        0.1200000       -0.00992020    0.00000000
                                                     2        0.1400000        0.02578711    0.00000000
                                                     2        0.2200000       -0.10543517    0.00000000
                                                     2        0.3000000        0.23013665    0.00000000
                                                     2        0.5000000       -0.60834094    0.00000000
                                                     2        0.8000000        1.81436815    0.00000000
                                                     2        1.2000000       -3.87539738    0.00000000
                                                     2        2.0000000        2.94656640    0.00000000
                                      S - G
                                                     0        0.0000010       -0.00223566    0.00000000
                                                     2        0.1200000        0.45247937    0.00000000
                                                     2        0.1600000       -0.78978304    0.00000000
                                                     2        0.4000000        0.84956595    0.00000000
                                                     2        3.0000000       -0.75910174    0.00000000
                                      P - G
                                                     0        0.0000010       -0.25576737    0.00000000
                                                     2        0.1200000       -0.19992277    0.00000000
                                                     2        0.1600000        0.88518512    0.00000000
                                                     2        0.2400000       -1.33293917    0.00000000
                                                     2        0.4000000        1.33451776    0.00000000
                                                     2        0.9000000       -0.55709210    0.00000000
                                                     2        2.5000000        2.48506502    0.00000000
                                      D - G
                                                     0        0.0000010        0.26143746    0.00000000
                                                     2        0.1200000       -0.04492212    0.00000000
                                                     2        0.1400000       -0.18274021    0.00000000
                                                     2        0.2400000        0.53490004    0.00000000
                                                     2        0.4000000       -0.74136473    0.00000000
                                                     2        1.3000000        1.71401021    0.00000000
                                      F - G
                                                     0        0.0000010       -0.07169988    0.00000000
                                                     2        0.1200000        0.04480029    0.00000000
                                                     2        0.2600000       -0.08050831    0.00000000
                                                     2        0.5000000        0.31290809    0.00000000
                                                     2        1.0000000       -0.45253098    0.00000000
    8          1            1
                                      F and up 
                                                     0        0.0000010       -0.00000699    0.00000000
                                                     2        0.1200000        0.00123686    0.00000000
                                                     2        0.1800000       -0.00752022    0.00000000
                                                     2        0.2600000        0.02503380    0.00000000
                                                     2        0.4000000       -0.08702670    0.00000000
                                                     2        0.6000000        0.30134159    0.00000000
                                                     2        0.8000000       -0.50204959    0.00000000
                                                     2        1.2000000        0.52208372    0.00000000
                                      S - F
                                                     0        0.0000010       -0.01618346    0.00000000
                                                     2        0.1200000       -0.07880581    0.00000000
                                                     2        0.1600000        0.32040539    0.00000000
                                                     2        0.2400000       -0.47500956    0.00000000
                                                     2        0.5000000        0.54013668    0.00000000
                                                     2        1.5000000       -1.40434292    0.00000000
                                                     2        3.0000000        1.46283806    0.00000000
                                      P - F
                                                     0        0.0000010        0.00612970    0.00000000
                                                     2        0.1200000        0.02254406    0.00000000
                                                     2        0.1800000       -0.13874529    0.00000000
                                                     2        0.3000000        0.38299049    0.00000000
                                                     2        0.5000000       -0.57923512    0.00000000
                                                     2        1.0000000        0.63021625    0.00000000
                                                     2        2.0000000       -0.79201034    0.00000000
                                      D - F
                                                     0        0.0000010       -0.00296226    0.00000000
                                                     2        0.1200000       -0.00547344    0.00000000
                                                     2        0.1400000        0.01837884    0.00000000
                                                     2        0.2400000       -0.05565704    0.00000000
                                                     2        0.4000000        0.15376597    0.00000000
                                                     2        0.8000000       -0.32464795    0.00000000
    9          1            1
                                      F and up 
                                                     0        0.0000010       -0.00000699    0.00000000
                                                     2        0.1200000        0.00123686    0.00000000
                                                     2        0.1800000       -0.00752022    0.00000000
                                                     2        0.2600000        0.02503380    0.00000000
                                                     2        0.4000000       -0.08702670    0.00000000
                                                     2        0.6000000        0.30134159    0.00000000
                                                     2        0.8000000       -0.50204959    0.00000000
                                                     2        1.2000000        0.52208372    0.00000000
                                      S - F
                                                     0        0.0000010       -0.01618346    0.00000000
                                                     2        0.1200000       -0.07880581    0.00000000
                                                     2        0.1600000        0.32040539    0.00000000
                                                     2        0.2400000       -0.47500956    0.00000000
                                                     2        0.5000000        0.54013668    0.00000000
                                                     2        1.5000000       -1.40434292    0.00000000
                                                     2        3.0000000        1.46283806    0.00000000
                                      P - F
                                                     0        0.0000010        0.00612970    0.00000000
                                                     2        0.1200000        0.02254406    0.00000000
                                                     2        0.1800000       -0.13874529    0.00000000
                                                     2        0.3000000        0.38299049    0.00000000
                                                     2        0.5000000       -0.57923512    0.00000000
                                                     2        1.0000000        0.63021625    0.00000000
                                                     2        2.0000000       -0.79201034    0.00000000
                                      D - F
                                                     0        0.0000010       -0.00296226    0.00000000
                                                     2        0.1200000       -0.00547344    0.00000000
                                                     2        0.1400000        0.01837884    0.00000000
                                                     2        0.2400000       -0.05565704    0.00000000
                                                     2        0.4000000        0.15376597    0.00000000
                                                     2        0.8000000       -0.32464795    0.00000000
   10          1            1
                                      F and up 
                                                     0        0.0000010       -0.00000699    0.00000000
                                                     2        0.1200000        0.00123686    0.00000000
                                                     2        0.1800000       -0.00752022    0.00000000
                                                     2        0.2600000        0.02503380    0.00000000
                                                     2        0.4000000       -0.08702670    0.00000000
                                                     2        0.6000000        0.30134159    0.00000000
                                                     2        0.8000000       -0.50204959    0.00000000
                                                     2        1.2000000        0.52208372    0.00000000
                                      S - F
                                                     0        0.0000010       -0.01618346    0.00000000
                                                     2        0.1200000       -0.07880581    0.00000000
                                                     2        0.1600000        0.32040539    0.00000000
                                                     2        0.2400000       -0.47500956    0.00000000
                                                     2        0.5000000        0.54013668    0.00000000
                                                     2        1.5000000       -1.40434292    0.00000000
                                                     2        3.0000000        1.46283806    0.00000000
                                      P - F
                                                     0        0.0000010        0.00612970    0.00000000
                                                     2        0.1200000        0.02254406    0.00000000
                                                     2        0.1800000       -0.13874529    0.00000000
                                                     2        0.3000000        0.38299049    0.00000000
                                                     2        0.5000000       -0.57923512    0.00000000
                                                     2        1.0000000        0.63021625    0.00000000
                                                     2        2.0000000       -0.79201034    0.00000000
                                      D - F
                                                     0        0.0000010       -0.00296226    0.00000000
                                                     2        0.1200000       -0.00547344    0.00000000
                                                     2        0.1400000        0.01837884    0.00000000
                                                     2        0.2400000       -0.05565704    0.00000000
                                                     2        0.4000000        0.15376597    0.00000000
                                                     2        0.8000000       -0.32464795    0.00000000
   11          1            1
                                      F and up 
                                                     0        0.0000010       -0.00000699    0.00000000
                                                     2        0.1200000        0.00123686    0.00000000
                                                     2        0.1800000       -0.00752022    0.00000000
                                                     2        0.2600000        0.02503380    0.00000000
                                                     2        0.4000000       -0.08702670    0.00000000
                                                     2        0.6000000        0.30134159    0.00000000
                                                     2        0.8000000       -0.50204959    0.00000000
                                                     2        1.2000000        0.52208372    0.00000000
                                      S - F
                                                     0        0.0000010       -0.01618346    0.00000000
                                                     2        0.1200000       -0.07880581    0.00000000
                                                     2        0.1600000        0.32040539    0.00000000
                                                     2        0.2400000       -0.47500956    0.00000000
                                                     2        0.5000000        0.54013668    0.00000000
                                                     2        1.5000000       -1.40434292    0.00000000
                                                     2        3.0000000        1.46283806    0.00000000
                                      P - F
                                                     0        0.0000010        0.00612970    0.00000000
                                                     2        0.1200000        0.02254406    0.00000000
                                                     2        0.1800000       -0.13874529    0.00000000
                                                     2        0.3000000        0.38299049    0.00000000
                                                     2        0.5000000       -0.57923512    0.00000000
                                                     2        1.0000000        0.63021625    0.00000000
                                                     2        2.0000000       -0.79201034    0.00000000
                                      D - F
                                                     0        0.0000010       -0.00296226    0.00000000
                                                     2        0.1200000       -0.00547344    0.00000000
                                                     2        0.1400000        0.01837884    0.00000000
                                                     2        0.2400000       -0.05565704    0.00000000
                                                     2        0.4000000        0.15376597    0.00000000
                                                     2        0.8000000       -0.32464795    0.00000000
   12          1            1
                                      F and up 
                                                     0        0.0000010       -0.00000699    0.00000000
                                                     2        0.1200000        0.00123686    0.00000000
                                                     2        0.1800000       -0.00752022    0.00000000
                                                     2        0.2600000        0.02503380    0.00000000
                                                     2        0.4000000       -0.08702670    0.00000000
                                                     2        0.6000000        0.30134159    0.00000000
                                                     2        0.8000000       -0.50204959    0.00000000
                                                     2        1.2000000        0.52208372    0.00000000
                                      S - F
                                                     0        0.0000010       -0.01618346    0.00000000
                                                     2        0.1200000       -0.07880581    0.00000000
                                                     2        0.1600000        0.32040539    0.00000000
                                                     2        0.2400000       -0.47500956    0.00000000
                                                     2        0.5000000        0.54013668    0.00000000
                                                     2        1.5000000       -1.40434292    0.00000000
                                                     2        3.0000000        1.46283806    0.00000000
                                      P - F
                                                     0        0.0000010        0.00612970    0.00000000
                                                     2        0.1200000        0.02254406    0.00000000
                                                     2        0.1800000       -0.13874529    0.00000000
                                                     2        0.3000000        0.38299049    0.00000000
                                                     2        0.5000000       -0.57923512    0.00000000
                                                     2        1.0000000        0.63021625    0.00000000
                                                     2        2.0000000       -0.79201034    0.00000000
                                      D - F
                                                     0        0.0000010       -0.00296226    0.00000000
                                                     2        0.1200000       -0.00547344    0.00000000
                                                     2        0.1400000        0.01837884    0.00000000
                                                     2        0.2400000       -0.05565704    0.00000000
                                                     2        0.4000000        0.15376597    0.00000000
                                                     2        0.8000000       -0.32464795    0.00000000
   13          1            1
                                      F and up 
                                                     0        0.0000010       -0.00000699    0.00000000
                                                     2        0.1200000        0.00123686    0.00000000
                                                     2        0.1800000       -0.00752022    0.00000000
                                                     2        0.2600000        0.02503380    0.00000000
                                                     2        0.4000000       -0.08702670    0.00000000
                                                     2        0.6000000        0.30134159    0.00000000
                                                     2        0.8000000       -0.50204959    0.00000000
                                                     2        1.2000000        0.52208372    0.00000000
                                      S - F
                                                     0        0.0000010       -0.01618346    0.00000000
                                                     2        0.1200000       -0.07880581    0.00000000
                                                     2        0.1600000        0.32040539    0.00000000
                                                     2        0.2400000       -0.47500956    0.00000000
                                                     2        0.5000000        0.54013668    0.00000000
                                                     2        1.5000000       -1.40434292    0.00000000
                                                     2        3.0000000        1.46283806    0.00000000
                                      P - F
                                                     0        0.0000010        0.00612970    0.00000000
                                                     2        0.1200000        0.02254406    0.00000000
                                                     2        0.1800000       -0.13874529    0.00000000
                                                     2        0.3000000        0.38299049    0.00000000
                                                     2        0.5000000       -0.57923512    0.00000000
                                                     2        1.0000000        0.63021625    0.00000000
                                                     2        2.0000000       -0.79201034    0.00000000
                                      D - F
                                                     0        0.0000010       -0.00296226    0.00000000
                                                     2        0.1200000       -0.00547344    0.00000000
                                                     2        0.1400000        0.01837884    0.00000000
                                                     2        0.2400000       -0.05565704    0.00000000
                                                     2        0.4000000        0.15376597    0.00000000
                                                     2        0.8000000       -0.32464795    0.00000000
   14          1            1
                                      F and up 
                                                     0        0.0000010       -0.00000699    0.00000000
                                                     2        0.1200000        0.00123686    0.00000000
                                                     2        0.1800000       -0.00752022    0.00000000
                                                     2        0.2600000        0.02503380    0.00000000
                                                     2        0.4000000       -0.08702670    0.00000000
                                                     2        0.6000000        0.30134159    0.00000000
                                                     2        0.8000000       -0.50204959    0.00000000
                                                     2        1.2000000        0.52208372    0.00000000
                                      S - F
                                                     0        0.0000010       -0.01618346    0.00000000
                                                     2        0.1200000       -0.07880581    0.00000000
                                                     2        0.1600000        0.32040539    0.00000000
                                                     2        0.2400000       -0.47500956    0.00000000
                                                     2        0.5000000        0.54013668    0.00000000
                                                     2        1.5000000       -1.40434292    0.00000000
                                                     2        3.0000000        1.46283806    0.00000000
                                      P - F
                                                     0        0.0000010        0.00612970    0.00000000
                                                     2        0.1200000        0.02254406    0.00000000
                                                     2        0.1800000       -0.13874529    0.00000000
                                                     2        0.3000000        0.38299049    0.00000000
                                                     2        0.5000000       -0.57923512    0.00000000
                                                     2        1.0000000        0.63021625    0.00000000
                                                     2        2.0000000       -0.79201034    0.00000000
                                      D - F
                                                     0        0.0000010       -0.00296226    0.00000000
                                                     2        0.1200000       -0.00547344    0.00000000
                                                     2        0.1400000        0.01837884    0.00000000
                                                     2        0.2400000       -0.05565704    0.00000000
                                                     2        0.4000000        0.15376597    0.00000000
                                                     2        0.8000000       -0.32464795    0.00000000
   15          1            1
                                      F and up 
                                                     0        0.0000010       -0.00000699    0.00000000
                                                     2        0.1200000        0.00123686    0.00000000
                                                     2        0.1800000       -0.00752022    0.00000000
                                                     2        0.2600000        0.02503380    0.00000000
                                                     2        0.4000000       -0.08702670    0.00000000
                                                     2        0.6000000        0.30134159    0.00000000
                                                     2        0.8000000       -0.50204959    0.00000000
                                                     2        1.2000000        0.52208372    0.00000000
                                      S - F
                                                     0        0.0000010       -0.01618346    0.00000000
                                                     2        0.1200000       -0.07880581    0.00000000
                                                     2        0.1600000        0.32040539    0.00000000
                                                     2        0.2400000       -0.47500956    0.00000000
                                                     2        0.5000000        0.54013668    0.00000000
                                                     2        1.5000000       -1.40434292    0.00000000
                                                     2        3.0000000        1.46283806    0.00000000
                                      P - F
                                                     0        0.0000010        0.00612970    0.00000000
                                                     2        0.1200000        0.02254406    0.00000000
                                                     2        0.1800000       -0.13874529    0.00000000
                                                     2        0.3000000        0.38299049    0.00000000
                                                     2        0.5000000       -0.57923512    0.00000000
                                                     2        1.0000000        0.63021625    0.00000000
                                                     2        2.0000000       -0.79201034    0.00000000
                                      D - F
                                                     0        0.0000010       -0.00296226    0.00000000
                                                     2        0.1200000       -0.00547344    0.00000000
                                                     2        0.1400000        0.01837884    0.00000000
                                                     2        0.2400000       -0.05565704    0.00000000
                                                     2        0.4000000        0.15376597    0.00000000
                                                     2        0.8000000       -0.32464795    0.00000000
   16          1            1
                                      F and up 
                                                     0        0.0000010       -0.00000699    0.00000000
                                                     2        0.1200000        0.00123686    0.00000000
                                                     2        0.1800000       -0.00752022    0.00000000
                                                     2        0.2600000        0.02503380    0.00000000
                                                     2        0.4000000       -0.08702670    0.00000000
                                                     2        0.6000000        0.30134159    0.00000000
                                                     2        0.8000000       -0.50204959    0.00000000
                                                     2        1.2000000        0.52208372    0.00000000
                                      S - F
                                                     0        0.0000010       -0.01618346    0.00000000
                                                     2        0.1200000       -0.07880581    0.00000000
                                                     2        0.1600000        0.32040539    0.00000000
                                                     2        0.2400000       -0.47500956    0.00000000
                                                     2        0.5000000        0.54013668    0.00000000
                                                     2        1.5000000       -1.40434292    0.00000000
                                                     2        3.0000000        1.46283806    0.00000000
                                      P - F
                                                     0        0.0000010        0.00612970    0.00000000
                                                     2        0.1200000        0.02254406    0.00000000
                                                     2        0.1800000       -0.13874529    0.00000000
                                                     2        0.3000000        0.38299049    0.00000000
                                                     2        0.5000000       -0.57923512    0.00000000
                                                     2        1.0000000        0.63021625    0.00000000
                                                     2        2.0000000       -0.79201034    0.00000000
                                      D - F
                                                     0        0.0000010       -0.00296226    0.00000000
                                                     2        0.1200000       -0.00547344    0.00000000
                                                     2        0.1400000        0.01837884    0.00000000
                                                     2        0.2400000       -0.05565704    0.00000000
                                                     2        0.4000000        0.15376597    0.00000000
                                                     2        0.8000000       -0.32464795    0.00000000
 ======================================================================================================
   242 basis functions,   400 primitive gaussians,   256 cartesian basis functions
    27 alpha electrons       27 beta electrons
       nuclear repulsion energy       290.5670612140 Hartrees.
 NAtoms=   16 NActive=   16 NUniq=   16 SFac= 1.00D+00 NAtFMM=   60 NAOKFM=F Big=F
   1 Symmetry operations used in ECPInt.
 ECPInt:  NShTT=    5886 NPrTT=   25542 LenC2=    5863 LenP2D=   19981.
 LDataN:  DoStor=T MaxTD1= 6 Len=  172
 Initial guess from the checkpoint file:  "Grambow2020_wb97xd3_007533_forward_mol2.chk"
 B after Tr=    -0.711510    0.198660    0.036574
         Rot=    0.022388   -0.180523    0.933358   -0.309440 Ang=-177.43 deg.
 >>>>>>>>>> Convergence criterion not met.
 SCF Done:  E(RHF) =  -324.017648364     A.U. after    2 cycles
            NFock=  1  Conv=0.44D-02     -V/T= 2.0002

 **********************************************************************

            Population analysis using the SCF Density.

 **********************************************************************

 Orbital symmetries:
       Occupied  (A) (A) (A) (A) (A) (A) (A) (A) (A) (A) (A) (A)
                 (A) (A) (A) (A) (A) (A) (A) (A) (A) (A) (A) (A)
                 (A) (A) (A)
       Virtual   (A) (A) (A) (A) (A) (A) (A) (A) (A) (A) (A) (A)
                 (A) (A) (A) (A) (A) (A) (A) (A) (A) (A) (A) (A)
                 (A) (A) (A) (A) (A) (A) (A) (A) (A) (A) (A) (A)
                 (A) (A) (A) (A) (A) (A) (A) (A) (A) (A) (A) (A)
                 (A) (A) (A) (A) (A) (A) (A) (A) (A) (A) (A) (A)
                 (A) (A) (A) (A) (A) (A) (A) (A) (A) (A) (A) (A)
                 (A) (A) (A) (A) (A) (A) (A) (A) (A) (A) (A) (A)
                 (A) (A) (A) (A) (A) (A) (A) (A) (A) (A) (A) (A)
                 (A) (A) (A) (A) (A) (A) (A) (A) (A) (A) (A) (A)
                 (A) (A) (A) (A) (A) (A) (A) (A) (A) (A) (A) (A)
                 (A) (A) (A) (A) (A) (A) (A) (A) (A) (A) (A) (A)
                 (A) (A) (A) (A) (A) (A) (A) (A) (A) (A) (A) (A)
                 (A) (A) (A) (A) (A) (A) (A) (A) (A) (A) (A) (A)
                 (A) (A) (A) (A) (A) (A) (A) (A) (A) (A) (A) (A)
                 (A) (A) (A) (A) (A) (A) (A) (A) (A) (A) (A) (A)
                 (A) (A) (A) (A) (A) (A) (A) (A) (A) (A) (A) (A)
                 (A) (A) (A) (A) (A) (A) (A) (A) (A) (A) (A) (A)
                 (A) (A) (A) (A) (A) (A) (A) (A) (A) (A) (A)
 The electronic state is 1-A.
 Alpha  occ. eigenvalues --  -20.59173 -15.63584 -11.31251 -11.29769 -11.29422
 Alpha  occ. eigenvalues --  -11.28331 -11.24831  -1.36399  -1.19770  -1.09978
 Alpha  occ. eigenvalues --   -0.97718  -0.92110  -0.85854  -0.72505  -0.70525
 Alpha  occ. eigenvalues --   -0.67809  -0.64895  -0.61284  -0.58431  -0.56677
 Alpha  occ. eigenvalues --   -0.54155  -0.53600  -0.52643  -0.51180  -0.45921
 Alpha  occ. eigenvalues --   -0.45654  -0.45502
 Alpha virt. eigenvalues --    0.02962   0.04092   0.04350   0.04901   0.06195
 Alpha virt. eigenvalues --    0.06376   0.07062   0.07752   0.08390   0.10209
 Alpha virt. eigenvalues --    0.11365   0.12602   0.13139   0.13861   0.14717
 Alpha virt. eigenvalues --    0.15140   0.15567   0.15934   0.16711   0.17138
 Alpha virt. eigenvalues --    0.17770   0.17932   0.18479   0.18755   0.19365
 Alpha virt. eigenvalues --    0.20366   0.20853   0.22024   0.23154   0.24750
 Alpha virt. eigenvalues --    0.25318   0.26534   0.27008   0.28438   0.30041
 Alpha virt. eigenvalues --    0.30174   0.31171   0.31447   0.32975   0.33867
 Alpha virt. eigenvalues --    0.34331   0.34577   0.36089   0.37138   0.38812
 Alpha virt. eigenvalues --    0.40324   0.40829   0.41381   0.41450   0.41880
 Alpha virt. eigenvalues --    0.43097   0.43965   0.44885   0.45097   0.46572
 Alpha virt. eigenvalues --    0.47432   0.48089   0.48982   0.49420   0.50394
 Alpha virt. eigenvalues --    0.50784   0.51988   0.53730   0.55089   0.55340
 Alpha virt. eigenvalues --    0.55528   0.57321   0.58309   0.58742   0.60603
 Alpha virt. eigenvalues --    0.60769   0.61352   0.62202   0.62802   0.63963
 Alpha virt. eigenvalues --    0.64114   0.64616   0.65383   0.66682   0.67448
 Alpha virt. eigenvalues --    0.69314   0.70053   0.70690   0.71313   0.73465
 Alpha virt. eigenvalues --    0.74151   0.75603   0.76283   0.76882   0.78641
 Alpha virt. eigenvalues --    0.79775   0.79925   0.80225   0.81344   0.82536
 Alpha virt. eigenvalues --    0.83561   0.85288   0.86164   0.88411   0.90197
 Alpha virt. eigenvalues --    0.91150   0.93600   0.94169   0.96357   0.96988
 Alpha virt. eigenvalues --    0.98990   1.01068   1.01612   1.03540   1.04964
 Alpha virt. eigenvalues --    1.05702   1.07584   1.09563   1.09824   1.13031
 Alpha virt. eigenvalues --    1.14125   1.15037   1.17541   1.19010   1.22245
 Alpha virt. eigenvalues --    1.25750   1.26920   1.29093   1.30081   1.34086
 Alpha virt. eigenvalues --    1.35343   1.37796   1.39071   1.42580   1.45722
 Alpha virt. eigenvalues --    1.47711   1.48509   1.52459   1.54736   1.56465
 Alpha virt. eigenvalues --    1.62687   1.65523   1.67704   1.70040   1.70838
 Alpha virt. eigenvalues --    1.72402   1.73791   1.74989   1.77430   1.78633
 Alpha virt. eigenvalues --    1.80181   1.81178   1.82525   1.85636   1.87031
 Alpha virt. eigenvalues --    1.88236   1.90419   1.92230   1.96887   1.97463
 Alpha virt. eigenvalues --    2.00575   2.03212   2.04304   2.09528   2.10924
 Alpha virt. eigenvalues --    2.12720   2.14494   2.15320   2.16792   2.17310
 Alpha virt. eigenvalues --    2.20508   2.20960   2.24431   2.27072   2.27889
 Alpha virt. eigenvalues --    2.29361   2.29974   2.31473   2.34728   2.38542
 Alpha virt. eigenvalues --    2.40983   2.43054   2.43233   2.47483   2.49572
 Alpha virt. eigenvalues --    2.52713   2.54644   2.55175   2.61038   2.64472
 Alpha virt. eigenvalues --    2.67875   2.70019   2.73209   2.75314   2.76987
 Alpha virt. eigenvalues --    2.78056   2.79702   2.80868   2.83399   2.86005
 Alpha virt. eigenvalues --    2.88855   2.92612   2.95171   2.99892   3.02037
 Alpha virt. eigenvalues --    3.09238   3.10943   3.13783   3.18359   3.26423
 Alpha virt. eigenvalues --    3.28902   3.39663   3.50234   3.54943   3.69331
 Alpha virt. eigenvalues --    3.70509   3.73956   3.84198   3.94981   4.06285
          Condensed to atoms (all electrons):
 Mulliken charges:
               1
     1  C    0.716009
     2  O   -0.624753
     3  C    0.882610
     4  C   -0.143481
     5  C    0.698916
     6  C   -0.450889
     7  N   -0.169384
     8  H   -0.275508
     9  H   -0.065963
    10  H   -0.057159
    11  H   -0.206913
    12  H   -0.164679
    13  H   -0.009661
    14  H   -0.083718
    15  H   -0.021750
    16  H   -0.023677
 Sum of Mulliken charges =  -0.00000
 Mulliken charges with hydrogens summed into heavy atoms:
               1
     1  C    0.317378
     2  O   -0.624753
     3  C    0.511018
     4  C   -0.153142
     5  C    0.569771
     6  C   -0.450889
     7  N   -0.169384
 Electronic spatial extent (au):  <R**2>=            997.8179
 Charge=             -0.0000 electrons
 Dipole moment (field-independent basis, Debye):
    X=             -3.8422    Y=              1.0467    Z=              0.0378  Tot=              3.9824

 Test job not archived.
 1\1\GINC-SE424\SP\RHF\Aug-CC-pVDZ\C5H9N1O1\OHZDE\09-Apr-2025\0\\#t hf 
 aug-cc-pvdz iop(5/13=1,5/36=2,99/5=2) pseudo=read geom=check guess=(re
 ad,tcheck) scf=(maxcycle=1)\\title\\0,1\C,0,2.49269025,0.388926,0.0502
 0372\O,0,1.1199426,0.6818285,0.11718918\C,0,0.32705253,-0.46278729,0.2
 6031005\C,0,-1.13444901,-0.01558862,0.29431704\C,0,-1.56997782,0.66577
 197,-1.003776\C,0,-1.98176423,-1.17361857,0.59103923\N,0,-2.63661757,-
 2.09065708,0.80668737\H,0,3.02168523,1.3338814,-0.06067481\H,0,2.72240
 663,-0.25464215,-0.80826167\H,0,2.84042372,-0.10949965,0.96381035\H,0,
 0.57770385,-0.99795871,1.18647952\H,0,0.48469535,-1.15678243,-0.578722
 26\H,0,-1.24536738,0.68575747,1.12648238\H,0,-2.6031025,1.00570539,-0.
 9372548\H,0,-0.92639099,1.52328289,-1.19222305\H,0,-1.48893066,-0.0236
 1912,-1.84577352\\Version=ES64L-G16RevC.01\State=1-A\HF=-324.0176484\R
 MSD=4.390e-03\Dipole=1.2808106,0.8279671,-0.3589222\Quadrupole=0.62151
 01,-3.1929246,2.5714146,-6.7005977,1.9447824,1.7232222\PG=C01 [X(C5H9N
 1O1)]\\@


 ALL MEN WHO EXPLORE
 DEPLORE
 THAT FRUSTRATING HURDLE
 THE GIRDLE.

         -- COLIN FLETCHER
 Job cpu time:       0 days  0 hours  1 minutes  7.5 seconds.
 Elapsed time:       0 days  0 hours  0 minutes  5.2 seconds.
 File lengths (MBytes):  RWF=     14 Int=      0 D2E=      0 Chk=      8 Scr=      1
 Normal termination of Gaussian 16 at Wed Apr  9 03:40:37 2025.
