 Entering Gaussian System, Link 0=g16
 Input=Grambow2020_wb97xd3_009202_reverse_mol1.gjf
 Output=Grambow2020_wb97xd3_009202_reverse_mol1.log
 Initial command:
 /arc/software/Gaussian/g16.c01/l1.exe "/tmp/slurm/4870250/Gau-2236035.inp" -scrdir="/tmp/slurm/4870250/"
 Entering Link 1 = /arc/software/Gaussian/g16.c01/l1.exe PID=   2236036.
  
 Copyright (c) 1988-2019, Gaussian, Inc.  All Rights Reserved.
  
 This is part of the Gaussian(R) 16 program.  It is based on
 the Gaussian(R) 09 system (copyright 2009, Gaussian, Inc.),
 the Gaussian(R) 03 system (copyright 2003, Gaussian, Inc.),
 the Gaussian(R) 98 system (copyright 1998, Gaussian, Inc.),
 the Gaussian(R) 94 system (copyright 1995, Gaussian, Inc.),
 the Gaussian 92(TM) system (copyright 1992, Gaussian, Inc.),
 the Gaussian 90(TM) system (copyright 1990, Gaussian, Inc.),
 the Gaussian 88(TM) system (copyright 1988, Gaussian, Inc.),
 the Gaussian 86(TM) system (copyright 1986, Carnegie Mellon
 University), and the Gaussian 82(TM) system (copyright 1983,
 Carnegie Mellon University). Gaussian is a federally registered
 trademark of Gaussian, Inc.
  
 This software contains proprietary and confidential information,
 including trade secrets, belonging to Gaussian, Inc.
  
 This software is provided under written license and may be
 used, copied, transmitted, or stored only in accord with that
 written license.
  
 The following legend is applicable only to US Government
 contracts under FAR:
  
                    RESTRICTED RIGHTS LEGEND
  
 Use, reproduction and disclosure by the US Government is
 subject to restrictions as set forth in subparagraphs (a)
 and (c) of the Commercial Computer Software - Restricted
 Rights clause in FAR 52.227-19.
  
 Gaussian, Inc.
 340 Quinnipiac St., Bldg. 40, Wallingford CT 06492
  
  
 ---------------------------------------------------------------
 Warning -- This program may not be used in any manner that
 competes with the business of Gaussian, Inc. or will provide
 assistance to any competitor of Gaussian, Inc.  The licensee
 of this program is prohibited from giving any competitor of
 Gaussian, Inc. access to this program.  By using this program,
 the user acknowledges that Gaussian, Inc. is engaged in the
 business of creating and licensing software in the field of
 computational chemistry and represents and warrants to the
 licensee that it is not a competitor of Gaussian, Inc. and that
 it will not use this program in any manner prohibited above.
 ---------------------------------------------------------------
  

 Cite this work as:
 Gaussian 16, Revision C.01,
 M. J. Frisch, G. W. Trucks, H. B. Schlegel, G. E. Scuseria, 
 M. A. Robb, J. R. Cheeseman, G. Scalmani, V. Barone, 
 G. A. Petersson, H. Nakatsuji, X. Li, M. Caricato, A. V. Marenich, 
 J. Bloino, B. G. Janesko, R. Gomperts, B. Mennucci, H. P. Hratchian, 
 J. V. Ortiz, A. F. Izmaylov, J. L. Sonnenberg, D. Williams-Young, 
 F. Ding, F. Lipparini, F. Egidi, J. Goings, B. Peng, A. Petrone, 
 T. Henderson, D. Ranasinghe, V. G. Zakrzewski, J. Gao, N. Rega, 
 G. Zheng, W. Liang, M. Hada, M. Ehara, K. Toyota, R. Fukuda, 
 J. Hasegawa, M. Ishida, T. Nakajima, Y. Honda, O. Kitao, H. Nakai, 
 T. Vreven, K. Throssell, J. A. Montgomery, Jr., J. E. Peralta, 
 F. Ogliaro, M. J. Bearpark, J. J. Heyd, E. N. Brothers, K. N. Kudin, 
 V. N. Staroverov, T. A. Keith, R. Kobayashi, J. Normand, 
 K. Raghavachari, A. P. Rendell, J. C. Burant, S. S. Iyengar, 
 J. Tomasi, M. Cossi, J. M. Millam, M. Klene, C. Adamo, R. Cammi, 
 J. W. Ochterski, R. L. Martin, K. Morokuma, O. Farkas, 
 J. B. Foresman, and D. J. Fox, Gaussian, Inc., Wallingford CT, 2019.
 
 ******************************************
 Gaussian 16:  ES64L-G16RevC.01  3-Jul-2019
                 9-Apr-2025 
 ******************************************
 %nprocs=16
 Will use up to   16 processors via shared memory.
 %mem=30GB
 %chk=Grambow2020_wb97xd3_009202_reverse_mol1.chk
 ----------------------------------------------------------------------
 #t hf aug-cc-pvdz symm=none int=(grid=ultrafine) guess=(read,tcheck) s
 table=(opt,rrhf)
 ----------------------------------------------------------------------
 -----
 title
 -----
 Symbolic Z-matrix:
 Charge =  0 Multiplicity = 1
 O                     2.16817   0.3817    1.17682 
 C                     2.62969  -0.36929   0.12785 
 C                     1.28333  -0.63599  -0.36895 
 C                     0.05756  -0.61437  -0.44106 
 C                    -1.02638  -0.08335   0.19143 
 C                    -2.26191   0.6618   -0.04208 
 N                    -2.13914  -0.51408   0.83366 
 H                     0.70722   0.75661   1.39696 
 H                     3.24294   0.17656  -0.60279 
 H                     3.15481  -1.28879   0.42097 
 H                    -0.12614   0.86352   1.40926 
 H                    -2.7169    0.55228  -1.02134 
 H                    -2.45387   1.59022   0.47959 
 H                    -2.52547  -1.41349   0.58253 
 
                    Distance matrix (angstroms):
                    1          2          3          4          5
     1  O    0.000000
     2  C    1.370157   0.000000
     3  C    2.051353   1.459663   0.000000
     4  C    2.839783   2.645670   1.228083   0.000000
     5  C    3.375264   3.667780   2.440121   1.362694   0.000000
     6  C    4.603237   5.001975   3.789440   2.677262   1.461615
     7  N    4.412836   4.822953   3.629664   2.541742   1.355080
     8  H    1.524264   2.564013   2.321570   2.383268   2.272493
     9  H    2.089083   1.099032   2.134246   3.286095   4.350340
    10  H    2.082141   1.098705   2.133668   3.284948   4.357532
    11  H    2.355849   3.279695   2.719772   2.375198   1.786086
    12  H    5.359562   5.545802   4.223678   3.065197   2.175476
    13  H    4.828027   5.459477   4.432005   3.466274   2.218467
    14  H    5.060248   5.279461   4.002095   2.891078   2.041935
                    6          7          8          9         10
     6  C    0.000000
     7  N    1.471288   0.000000
     8  H    3.300847   3.167613   0.000000
     9  H    5.554575   5.613133   3.281063   0.000000
    10  H    5.775817   5.366229   3.335700   1.789719   0.000000
    11  H    2.590095   2.506249   0.840282   3.983843   4.046451
    12  H    1.085337   2.216294   4.196969   5.986326   6.320344
    13  H    1.082104   2.156967   3.395432   5.968554   6.304708
    14  H    2.183211   1.010565   3.977802   6.099822   5.683942
                   11         12         13         14
    11  H    0.000000
    12  H    3.566049   0.000000
    13  H    2.609729   1.843713   0.000000
    14  H    3.409547   2.544267   3.006324   0.000000
 Symmetry turned off by external request.
 Rotational constants (GHZ):           8.0025447           1.3420645           1.2649565
   224 basis functions,   378 primitive gaussians,   238 cartesian basis functions
    26 alpha electrons       26 beta electrons
       nuclear repulsion energy       273.0195727171 Hartrees.
 NAtoms=   14 NActive=   14 NUniq=   14 SFac= 1.00D+00 NAtFMM=   60 NAOKFM=F Big=F
 ExpMin= 2.97D-02 ExpMax= 1.17D+04 ExpMxC= 4.01D+02 IAcc=3 IRadAn=         5 AccDes= 0.00D+00
 Harris functional with IExCor=  205 and IRadAn=       5 diagonalized for initial guess.
 HarFok:  IExCor=  205 AccDes= 0.00D+00 IRadAn=         5 IDoV= 1 UseB2=F ITyADJ=14
 ICtDFT=  3500011 ScaDFX=  1.000000  1.000000  1.000000  1.000000
 FoFCou: FMM=F IPFlag=           0 FMFlag=      100000 FMFlg1=           0
         NFxFlg=           0 DoJE=T BraDBF=F KetDBF=T FulRan=T
         wScrn=  0.000000 ICntrl=       500 IOpCl=  0 I1Cent=   200000004 NGrid=           0
         NMat0=    1 NMatS0=      1 NMatT0=    0 NMatD0=    1 NMtDS0=    0 NMtDT0=    0
 Symmetry not used in FoFCou.
 SCF Done:  E(RHF) =  -322.430597138     A.U. after   16 cycles
            NFock= 16  Conv=0.97D-08     -V/T= 2.0008

 **********************************************************************

            Population analysis using the SCF Density.

 **********************************************************************

 Alpha  occ. eigenvalues --  -20.49875 -15.64501 -11.40326 -11.33451 -11.30535
 Alpha  occ. eigenvalues --  -11.29172 -11.24586  -1.37383  -1.29093  -1.09252
 Alpha  occ. eigenvalues --   -0.96983  -0.94279  -0.87199  -0.80074  -0.70385
 Alpha  occ. eigenvalues --   -0.67238  -0.62800  -0.60543  -0.60279  -0.56169
 Alpha  occ. eigenvalues --   -0.54165  -0.48306  -0.40243  -0.39457  -0.38385
 Alpha  occ. eigenvalues --   -0.35423
 Alpha virt. eigenvalues --    0.01976   0.03062   0.04009   0.04690   0.05115
 Alpha virt. eigenvalues --    0.06493   0.07753   0.09475   0.09621   0.10040
 Alpha virt. eigenvalues --    0.11459   0.12150   0.13084   0.13492   0.13994
 Alpha virt. eigenvalues --    0.14955   0.15718   0.16472   0.16977   0.17344
 Alpha virt. eigenvalues --    0.17869   0.18727   0.19102   0.19351   0.19905
 Alpha virt. eigenvalues --    0.21421   0.21751   0.22946   0.24332   0.25418
 Alpha virt. eigenvalues --    0.25758   0.27636   0.29274   0.30222   0.30907
 Alpha virt. eigenvalues --    0.32230   0.33168   0.33441   0.34607   0.34950
 Alpha virt. eigenvalues --    0.35861   0.37484   0.38624   0.40204   0.40525
 Alpha virt. eigenvalues --    0.41948   0.42887   0.43574   0.44903   0.45463
 Alpha virt. eigenvalues --    0.47206   0.47277   0.47496   0.50528   0.51036
 Alpha virt. eigenvalues --    0.51612   0.53011   0.53882   0.53911   0.55139
 Alpha virt. eigenvalues --    0.55526   0.57559   0.57758   0.58529   0.60290
 Alpha virt. eigenvalues --    0.60908   0.62407   0.63315   0.63566   0.64960
 Alpha virt. eigenvalues --    0.65257   0.67217   0.67871   0.68549   0.70230
 Alpha virt. eigenvalues --    0.71359   0.71726   0.72223   0.72974   0.73333
 Alpha virt. eigenvalues --    0.74460   0.76930   0.78897   0.79361   0.81387
 Alpha virt. eigenvalues --    0.82102   0.83068   0.85082   0.86479   0.86643
 Alpha virt. eigenvalues --    0.87712   0.88841   0.92193   0.92661   0.94341
 Alpha virt. eigenvalues --    0.94864   0.97074   0.99718   1.00942   1.04611
 Alpha virt. eigenvalues --    1.08716   1.09911   1.10478   1.12722   1.14092
 Alpha virt. eigenvalues --    1.16614   1.18388   1.19674   1.21291   1.22622
 Alpha virt. eigenvalues --    1.24459   1.25207   1.28068   1.31811   1.34930
 Alpha virt. eigenvalues --    1.37246   1.37558   1.40654   1.42275   1.43825
 Alpha virt. eigenvalues --    1.45184   1.52042   1.53435   1.56349   1.58173
 Alpha virt. eigenvalues --    1.59668   1.61180   1.63052   1.64432   1.65357
 Alpha virt. eigenvalues --    1.69672   1.71126   1.73154   1.74206   1.77258
 Alpha virt. eigenvalues --    1.77586   1.79592   1.81798   1.82861   1.86005
 Alpha virt. eigenvalues --    1.88335   1.89218   1.91263   1.93371   1.96345
 Alpha virt. eigenvalues --    1.98294   1.99859   2.01946   2.03176   2.07980
 Alpha virt. eigenvalues --    2.09768   2.11930   2.15037   2.16949   2.21402
 Alpha virt. eigenvalues --    2.23417   2.26597   2.28507   2.29347   2.33085
 Alpha virt. eigenvalues --    2.37322   2.37893   2.39021   2.41223   2.45092
 Alpha virt. eigenvalues --    2.47767   2.49588   2.54909   2.56752   2.57835
 Alpha virt. eigenvalues --    2.64818   2.69548   2.72444   2.75934   2.77831
 Alpha virt. eigenvalues --    2.78711   2.83170   2.85572   2.89404   2.94025
 Alpha virt. eigenvalues --    2.96244   3.01198   3.03534   3.12010   3.12976
 Alpha virt. eigenvalues --    3.20533   3.35649   3.42234   3.45428   3.51119
 Alpha virt. eigenvalues --    3.59987   3.82455   3.84587   3.92663   3.95909
 Alpha virt. eigenvalues --    3.99036   4.12391   4.19232
          Condensed to atoms (all electrons):
 Mulliken charges:
               1
     1  O   -0.961309
     2  C    0.980804
     3  C   -0.907811
     4  C    0.222992
     5  C    0.228708
     6  C    1.071926
     7  N   -0.499003
     8  H    0.190250
     9  H    0.005562
    10  H    0.002896
    11  H    0.164642
    12  H   -0.222042
    13  H   -0.257097
    14  H   -0.020518
 Sum of Mulliken charges =  -0.00000
 Mulliken charges with hydrogens summed into heavy atoms:
               1
     1  O   -0.771058
     2  C    0.989261
     3  C   -0.907811
     4  C    0.222992
     5  C    0.393349
     6  C    0.592787
     7  N   -0.519520
 Electronic spatial extent (au):  <R**2>=            959.2395
 Charge=             -0.0000 electrons
 Dipole moment (field-independent basis, Debye):
    X=             -5.2081    Y=             -1.2996    Z=             -3.1087  Tot=              6.2030
 NROrb=    224 NOA=    26 NOB=    26 NVA=   198 NVB=   198

 **** Warning!!: The largest alpha MO coefficient is  0.70094442D+02

    12 initial guesses have been made.
 Iteration     1 Dimension    12 NMult     0 NNew     12
 New state      1 was old state      4
 Iteration     2 Dimension    24 NMult    12 NNew     12
 Iteration     3 Dimension    27 NMult    24 NNew      3
 Iteration     4 Dimension    30 NMult    27 NNew      3
 Iteration     5 Dimension    33 NMult    30 NNew      3
 Iteration     6 Dimension    36 NMult    33 NNew      3
 Iteration     7 Dimension    39 NMult    36 NNew      3
 ***********************************************************************
 Stability analysis using <AA,BB:AA,BB> singles matrix:
 ***********************************************************************
 Ground to excited state transition densities written to RWF  633

 Eigenvectors of the stability matrix:
 
 Excited state symmetry could not be determined.
 Eigenvector   1:      Singlet-?Sym  Eigenvalue= 0.1458988  <S**2>=0.000
      23 -> 27        -0.18582
      23 -> 28         0.37281
      23 -> 29         0.16512
      23 -> 31         0.22740
      23 -> 35         0.12713
      24 -> 28        -0.15856
      25 -> 28         0.11409
      26 -> 28         0.11509
 The wavefunction is stable under the perturbations considered.
 The wavefunction is already stable.

 **********************************************************************

            Population analysis using the SCF Density.

 **********************************************************************

 Alpha  occ. eigenvalues --  -20.49875 -15.64501 -11.40326 -11.33451 -11.30535
 Alpha  occ. eigenvalues --  -11.29172 -11.24586  -1.37383  -1.29093  -1.09252
 Alpha  occ. eigenvalues --   -0.96983  -0.94279  -0.87199  -0.80074  -0.70385
 Alpha  occ. eigenvalues --   -0.67238  -0.62800  -0.60543  -0.60279  -0.56169
 Alpha  occ. eigenvalues --   -0.54165  -0.48306  -0.40243  -0.39457  -0.38385
 Alpha  occ. eigenvalues --   -0.35423
 Alpha virt. eigenvalues --    0.01976   0.03062   0.04009   0.04690   0.05115
 Alpha virt. eigenvalues --    0.06493   0.07753   0.09475   0.09621   0.10040
 Alpha virt. eigenvalues --    0.11459   0.12150   0.13084   0.13492   0.13994
 Alpha virt. eigenvalues --    0.14955   0.15718   0.16472   0.16977   0.17344
 Alpha virt. eigenvalues --    0.17869   0.18727   0.19102   0.19351   0.19905
 Alpha virt. eigenvalues --    0.21421   0.21751   0.22946   0.24332   0.25418
 Alpha virt. eigenvalues --    0.25758   0.27636   0.29274   0.30222   0.30907
 Alpha virt. eigenvalues --    0.32230   0.33168   0.33441   0.34607   0.34950
 Alpha virt. eigenvalues --    0.35861   0.37484   0.38624   0.40204   0.40525
 Alpha virt. eigenvalues --    0.41948   0.42887   0.43574   0.44903   0.45463
 Alpha virt. eigenvalues --    0.47206   0.47277   0.47496   0.50528   0.51036
 Alpha virt. eigenvalues --    0.51612   0.53011   0.53882   0.53911   0.55139
 Alpha virt. eigenvalues --    0.55526   0.57559   0.57758   0.58529   0.60290
 Alpha virt. eigenvalues --    0.60908   0.62407   0.63315   0.63566   0.64960
 Alpha virt. eigenvalues --    0.65257   0.67217   0.67871   0.68549   0.70230
 Alpha virt. eigenvalues --    0.71359   0.71726   0.72223   0.72974   0.73333
 Alpha virt. eigenvalues --    0.74460   0.76930   0.78897   0.79361   0.81387
 Alpha virt. eigenvalues --    0.82102   0.83068   0.85082   0.86479   0.86643
 Alpha virt. eigenvalues --    0.87712   0.88841   0.92193   0.92661   0.94341
 Alpha virt. eigenvalues --    0.94864   0.97074   0.99718   1.00942   1.04611
 Alpha virt. eigenvalues --    1.08716   1.09911   1.10478   1.12722   1.14092
 Alpha virt. eigenvalues --    1.16614   1.18388   1.19674   1.21291   1.22622
 Alpha virt. eigenvalues --    1.24459   1.25207   1.28068   1.31811   1.34930
 Alpha virt. eigenvalues --    1.37246   1.37558   1.40654   1.42275   1.43825
 Alpha virt. eigenvalues --    1.45184   1.52042   1.53435   1.56349   1.58173
 Alpha virt. eigenvalues --    1.59668   1.61180   1.63052   1.64432   1.65357
 Alpha virt. eigenvalues --    1.69672   1.71126   1.73154   1.74206   1.77258
 Alpha virt. eigenvalues --    1.77586   1.79592   1.81798   1.82861   1.86005
 Alpha virt. eigenvalues --    1.88335   1.89218   1.91263   1.93371   1.96345
 Alpha virt. eigenvalues --    1.98294   1.99859   2.01946   2.03176   2.07980
 Alpha virt. eigenvalues --    2.09768   2.11930   2.15037   2.16949   2.21402
 Alpha virt. eigenvalues --    2.23417   2.26597   2.28507   2.29347   2.33085
 Alpha virt. eigenvalues --    2.37322   2.37893   2.39021   2.41223   2.45092
 Alpha virt. eigenvalues --    2.47767   2.49588   2.54909   2.56752   2.57835
 Alpha virt. eigenvalues --    2.64818   2.69548   2.72444   2.75934   2.77831
 Alpha virt. eigenvalues --    2.78711   2.83170   2.85572   2.89404   2.94025
 Alpha virt. eigenvalues --    2.96244   3.01198   3.03534   3.12010   3.12976
 Alpha virt. eigenvalues --    3.20533   3.35649   3.42234   3.45428   3.51119
 Alpha virt. eigenvalues --    3.59987   3.82455   3.84587   3.92663   3.95909
 Alpha virt. eigenvalues --    3.99036   4.12391   4.19232
          Condensed to atoms (all electrons):
 Mulliken charges:
               1
     1  O   -0.961309
     2  C    0.980804
     3  C   -0.907811
     4  C    0.222992
     5  C    0.228708
     6  C    1.071926
     7  N   -0.499003
     8  H    0.190250
     9  H    0.005562
    10  H    0.002896
    11  H    0.164642
    12  H   -0.222042
    13  H   -0.257097
    14  H   -0.020518
 Sum of Mulliken charges =  -0.00000
 Mulliken charges with hydrogens summed into heavy atoms:
               1
     1  O   -0.771058
     2  C    0.989261
     3  C   -0.907811
     4  C    0.222992
     5  C    0.393349
     6  C    0.592787
     7  N   -0.519520
 Electronic spatial extent (au):  <R**2>=            959.2395
 Charge=             -0.0000 electrons
 Dipole moment (field-independent basis, Debye):
    X=             -5.2081    Y=             -1.2996    Z=             -3.1087  Tot=              6.2030
 Unable to Open any file for archive entry.
 1\1\GINC-SE015\Stability\RHF\Aug-CC-pVDZ\C5H7N1O1\OHZDE\09-Apr-2025\0\
 \#t hf aug-cc-pvdz symm=none int=(grid=ultrafine) guess=(read,tcheck) 
 stable=(opt,rrhf)\\title\\0,1\O,0,2.16816711,0.38170211,1.17682256\C,0
 ,2.62968649,-0.36928589,0.12784859\C,0,1.28333064,-0.63599063,-0.36895
 05\C,0,0.05755737,-0.61437201,-0.44105648\C,0,-1.02637869,-0.08335108,
 0.19142524\C,0,-2.26191319,0.66179757,-0.04208062\N,0,-2.13914419,-0.5
 140841,0.83365795\H,0,0.70722142,0.75661002,1.396962\H,0,3.24294395,0.
 17656013,-0.60279485\H,0,3.15480847,-1.28878638,0.42096633\H,0,-0.1261
 4158,0.86351811,1.40925739\H,0,-2.71690089,0.55228269,-1.02133969\H,0,
 -2.4538667,1.59021901,0.47958664\H,0,-2.52546822,-1.41348854,0.5825284
 4\\Version=ES64L-G16RevC.01\HF=-322.4305971\RMSD=9.685e-09\Dipole=-2.0
 490066,-0.5113161,-1.2230426\Quadrupole=4.8837239,0.8937105,-5.7774344
 ,-2.3571777,-3.1692371,-1.826433\PG=Unknown\\@
 The archive entry for this job was punched.


 Life may have no meaning.  Or even worse, it may have a
 meaning of which I disapprove.
                                 -- Ashleigh Brilliant
 Job cpu time:       0 days  0 hours  7 minutes 12.1 seconds.
 Elapsed time:       0 days  0 hours  0 minutes 31.1 seconds.
 File lengths (MBytes):  RWF=    235 Int=      0 D2E=      0 Chk=      7 Scr=      1
 Normal termination of Gaussian 16 at Wed Apr  9 04:04:47 2025.
 Initial command:
 /arc/software/Gaussian/g16.c01/l1.exe "/tmp/slurm/4870250/Gau-2236035.inp" -scrdir="/tmp/slurm/4870250/"
 Entering Link 1 = /arc/software/Gaussian/g16.c01/l1.exe PID=   2236283.
  
 Copyright (c) 1988-2019, Gaussian, Inc.  All Rights Reserved.
  
 This is part of the Gaussian(R) 16 program.  It is based on
 the Gaussian(R) 09 system (copyright 2009, Gaussian, Inc.),
 the Gaussian(R) 03 system (copyright 2003, Gaussian, Inc.),
 the Gaussian(R) 98 system (copyright 1998, Gaussian, Inc.),
 the Gaussian(R) 94 system (copyright 1995, Gaussian, Inc.),
 the Gaussian 92(TM) system (copyright 1992, Gaussian, Inc.),
 the Gaussian 90(TM) system (copyright 1990, Gaussian, Inc.),
 the Gaussian 88(TM) system (copyright 1988, Gaussian, Inc.),
 the Gaussian 86(TM) system (copyright 1986, Carnegie Mellon
 University), and the Gaussian 82(TM) system (copyright 1983,
 Carnegie Mellon University). Gaussian is a federally registered
 trademark of Gaussian, Inc.
  
 This software contains proprietary and confidential information,
 including trade secrets, belonging to Gaussian, Inc.
  
 This software is provided under written license and may be
 used, copied, transmitted, or stored only in accord with that
 written license.
  
 The following legend is applicable only to US Government
 contracts under FAR:
  
                    RESTRICTED RIGHTS LEGEND
  
 Use, reproduction and disclosure by the US Government is
 subject to restrictions as set forth in subparagraphs (a)
 and (c) of the Commercial Computer Software - Restricted
 Rights clause in FAR 52.227-19.
  
 Gaussian, Inc.
 340 Quinnipiac St., Bldg. 40, Wallingford CT 06492
  
  
 ---------------------------------------------------------------
 Warning -- This program may not be used in any manner that
 competes with the business of Gaussian, Inc. or will provide
 assistance to any competitor of Gaussian, Inc.  The licensee
 of this program is prohibited from giving any competitor of
 Gaussian, Inc. access to this program.  By using this program,
 the user acknowledges that Gaussian, Inc. is engaged in the
 business of creating and licensing software in the field of
 computational chemistry and represents and warrants to the
 licensee that it is not a competitor of Gaussian, Inc. and that
 it will not use this program in any manner prohibited above.
 ---------------------------------------------------------------
  

 Cite this work as:
 Gaussian 16, Revision C.01,
 M. J. Frisch, G. W. Trucks, H. B. Schlegel, G. E. Scuseria, 
 M. A. Robb, J. R. Cheeseman, G. Scalmani, V. Barone, 
 G. A. Petersson, H. Nakatsuji, X. Li, M. Caricato, A. V. Marenich, 
 J. Bloino, B. G. Janesko, R. Gomperts, B. Mennucci, H. P. Hratchian, 
 J. V. Ortiz, A. F. Izmaylov, J. L. Sonnenberg, D. Williams-Young, 
 F. Ding, F. Lipparini, F. Egidi, J. Goings, B. Peng, A. Petrone, 
 T. Henderson, D. Ranasinghe, V. G. Zakrzewski, J. Gao, N. Rega, 
 G. Zheng, W. Liang, M. Hada, M. Ehara, K. Toyota, R. Fukuda, 
 J. Hasegawa, M. Ishida, T. Nakajima, Y. Honda, O. Kitao, H. Nakai, 
 T. Vreven, K. Throssell, J. A. Montgomery, Jr., J. E. Peralta, 
 F. Ogliaro, M. J. Bearpark, J. J. Heyd, E. N. Brothers, K. N. Kudin, 
 V. N. Staroverov, T. A. Keith, R. Kobayashi, J. Normand, 
 K. Raghavachari, A. P. Rendell, J. C. Burant, S. S. Iyengar, 
 J. Tomasi, M. Cossi, J. M. Millam, M. Klene, C. Adamo, R. Cammi, 
 J. W. Ochterski, R. L. Martin, K. Morokuma, O. Farkas, 
 J. B. Foresman, and D. J. Fox, Gaussian, Inc., Wallingford CT, 2019.
 
 ******************************************
 Gaussian 16:  ES64L-G16RevC.01  3-Jul-2019
                 9-Apr-2025 
 ******************************************
 %nprocs=16
 Will use up to   16 processors via shared memory.
 %mem=30GB
 %chk=Grambow2020_wb97xd3_009202_reverse_mol1.chk
 ----------------------------------------------------------------------
 #t hf aug-cc-pvdz iop(5/13=1,5/36=2,99/5=2) pseudo=read geom=check gue
 ss=(read,tcheck) scf=(maxcycle=1)
 ----------------------------------------------------------------------
 -----
 title
 -----
 Structure from the checkpoint file:  "Grambow2020_wb97xd3_009202_reverse_mol1.chk"
 Charge =  0 Multiplicity = 1
 Z-Matrix found in chk file.
 O,0,2.16816711,0.38170211,1.17682256
 C,0,2.62968649,-0.36928589,0.12784859
 C,0,1.28333064,-0.63599063,-0.3689505
 C,0,0.05755737,-0.61437201,-0.44105648
 C,0,-1.02637869,-0.08335108,0.19142524
 C,0,-2.26191319,0.66179757,-0.04208062
 N,0,-2.13914419,-0.5140841,0.83365795
 H,0,0.70722142,0.75661002,1.396962
 H,0,3.24294395,0.17656013,-0.60279485
 H,0,3.15480847,-1.28878638,0.42096633
 H,0,-0.12614158,0.86351811,1.40925739
 H,0,-2.71690089,0.55228269,-1.02133969
 H,0,-2.4538667,1.59021901,0.47958664
 H,0,-2.52546822,-1.41348854,0.58252844
 Recover connectivity data from disk.
                    Distance matrix (angstroms):
                    1          2          3          4          5
     1  O    0.000000
     2  C    1.370157   0.000000
     3  C    2.051353   1.459663   0.000000
     4  C    2.839783   2.645670   1.228083   0.000000
     5  C    3.375264   3.667780   2.440121   1.362694   0.000000
     6  C    4.603237   5.001975   3.789440   2.677262   1.461615
     7  N    4.412836   4.822953   3.629664   2.541742   1.355080
     8  H    1.524264   2.564013   2.321570   2.383268   2.272493
     9  H    2.089083   1.099032   2.134246   3.286095   4.350340
    10  H    2.082141   1.098705   2.133668   3.284948   4.357532
    11  H    2.355849   3.279695   2.719772   2.375198   1.786086
    12  H    5.359562   5.545802   4.223678   3.065197   2.175476
    13  H    4.828027   5.459477   4.432005   3.466274   2.218467
    14  H    5.060248   5.279461   4.002095   2.891078   2.041935
                    6          7          8          9         10
     6  C    0.000000
     7  N    1.471288   0.000000
     8  H    3.300847   3.167613   0.000000
     9  H    5.554575   5.613133   3.281063   0.000000
    10  H    5.775817   5.366229   3.335700   1.789719   0.000000
    11  H    2.590095   2.506249   0.840282   3.983843   4.046451
    12  H    1.085337   2.216294   4.196969   5.986326   6.320344
    13  H    1.082104   2.156967   3.395432   5.968554   6.304708
    14  H    2.183211   1.010565   3.977802   6.099822   5.683942
                   11         12         13         14
    11  H    0.000000
    12  H    3.566049   0.000000
    13  H    2.609729   1.843713   0.000000
    14  H    3.409547   2.544267   3.006324   0.000000
 Framework group  C1[X(C5H7NO)]
 Deg. of freedom    36
                         Standard orientation:                         
 ---------------------------------------------------------------------
 Center     Atomic      Atomic             Coordinates (Angstroms)
 Number     Number       Type             X           Y           Z
 ---------------------------------------------------------------------
      1          8           0        2.052971    1.024446    0.084782
      2          6           0        2.524271   -0.256000   -0.040373
      3          6           0        1.180597   -0.824856   -0.079828
      4          6           0       -0.046161   -0.881559   -0.073845
      5          6           0       -1.138654   -0.069348   -0.012960
      6          6           0       -2.416367    0.214993   -0.663280
      7          7           0       -2.210576    0.132092    0.791184
      8          1           0        0.581137    1.415696    0.021463
      9          1           0        3.089293   -0.457480   -0.961258
     10          1           0        3.103227   -0.615570    0.821411
     11          1           0       -0.255978    1.483370   -0.005608
     12          1           0       -2.890955   -0.611391   -1.182715
     13          1           0       -2.641575    1.208771   -1.027472
     14          1           0       -2.557002   -0.642990    1.339343
 ---------------------------------------------------------------------
 Rotational constants (GHZ):           8.0025447           1.3420645           1.2649565
 ======================================================================================================
                                       Pseudopotential Parameters
 ======================================================================================================
  Center     Atomic      Valence      Angular      Power
  Number     Number     Electrons     Momentum     of R      Exponent        Coefficient   SO-Coeffient
 ======================================================================================================
    1          8            8
                                      G and up 
                                                     0        0.0000010        0.00001165    0.00000000
                                                     2        0.1200000       -0.01744018    0.00000000
                                                     2        0.1400000        0.05401326    0.00000000
                                                     2        0.1800000       -0.08231208    0.00000000
                                                     2        0.2600000        0.11570222    0.00000000
                                                     2        0.4000000       -0.20630360    0.00000000
                                                     2        0.7000000        0.38074319    0.00000000
                                                     2        1.2000000       -0.17045091    0.00000000
                                                     2        2.0000000       -1.45433187    0.00000000
                                      S - G
                                                     0        0.0000010       -0.00117944    0.00000000
                                                     2        0.1400000        0.04368312    0.00000000
                                                     2        0.3000000       -0.33477926    0.00000000
                                                     2        0.6000000        1.52630657    0.00000000
                                                     2        1.5000000       -2.50804716    0.00000000
                                                     2        3.0000000        2.89751681    0.00000000
                                      P - G
                                                     0        0.0000010        0.06576007    0.00000000
                                                     2        0.1200000       -0.10329304    0.00000000
                                                     2        0.2000000        0.24891756    0.00000000
                                                     2        0.4000000       -0.50800022    0.00000000
                                                     2        0.9000000        0.81480796    0.00000000
                                      D - G
                                                     0        0.0000010       -0.14101855    0.00000000
                                                     2        0.1200000        0.22105937    0.00000000
                                                     2        0.1800000       -0.45814988    0.00000000
                                                     2        0.3000000        0.46029282    0.00000000
                                      F - G
                                                     0        0.0000010        0.07483044    0.00000000
                                                     2        0.1200000       -0.09134252    0.00000000
                                                     2        0.1400000        0.04125459    0.00000000
                                                     2        0.3000000        0.37914837    0.00000000
                                                     2        0.5000000       -0.86881279    0.00000000
    2          6            6
                                      G and up 
                                                     0        0.0000010       -0.00011185    0.00000000
                                                     2        0.1200000       -0.02301220    0.00000000
                                                     2        0.1400000        0.13317600    0.00000000
                                                     2        0.1600000       -0.19690668    0.00000000
                                                     2        0.2200000        0.23163694    0.00000000
                                                     2        0.3000000       -0.36920489    0.00000000
                                                     2        0.4000000        0.36389709    0.00000000
                                                     2        0.7000000       -0.38862160    0.00000000
                                                     2        1.3000000        0.80803421    0.00000000
                                      S - G
                                                     0        0.0000010        0.00312304    0.00000000
                                                     2        0.1200000       -0.00632892    0.00000000
                                                     2        0.2200000       -0.03780897    0.00000000
                                                     2        0.4000000        0.26269560    0.00000000
                                                     2        0.9000000       -0.28209514    0.00000000
                                                     2        1.5000000       -0.72686737    0.00000000
                                      P - G
                                                     0        0.0000010       -0.01465594    0.00000000
                                                     2        0.1200000        0.07908409    0.00000000
                                                     2        0.1800000       -0.30615861    0.00000000
                                                     2        0.2600000        0.41506950    0.00000000
                                                     2        0.5000000       -0.36252345    0.00000000
                                                     2        0.9000000        0.15124193    0.00000000
                                                     2        3.0000000       -0.80425677    0.00000000
                                      D - G
                                                     0        0.0000010        0.01149631    0.00000000
                                                     2        0.1200000       -0.04713561    0.00000000
                                                     2        0.1600000        0.10865096    0.00000000
                                                     2        0.2800000       -0.15816701    0.00000000
                                                     2        0.7000000        0.65478804    0.00000000
                                                     2        1.3000000       -1.73816624    0.00000000
                                      F - G
                                                     0        0.0000010        0.00481868    0.00000000
                                                     2        0.1200000       -0.04746842    0.00000000
                                                     2        0.1600000        0.09327889    0.00000000
                                                     2        0.4000000       -0.19693326    0.00000000
                                                     2        0.9000000        0.34938253    0.00000000
    3          6            6
                                      G and up 
                                                     0        0.0000010       -0.00011185    0.00000000
                                                     2        0.1200000       -0.02301220    0.00000000
                                                     2        0.1400000        0.13317600    0.00000000
                                                     2        0.1600000       -0.19690668    0.00000000
                                                     2        0.2200000        0.23163694    0.00000000
                                                     2        0.3000000       -0.36920489    0.00000000
                                                     2        0.4000000        0.36389709    0.00000000
                                                     2        0.7000000       -0.38862160    0.00000000
                                                     2        1.3000000        0.80803421    0.00000000
                                      S - G
                                                     0        0.0000010        0.00312304    0.00000000
                                                     2        0.1200000       -0.00632892    0.00000000
                                                     2        0.2200000       -0.03780897    0.00000000
                                                     2        0.4000000        0.26269560    0.00000000
                                                     2        0.9000000       -0.28209514    0.00000000
                                                     2        1.5000000       -0.72686737    0.00000000
                                      P - G
                                                     0        0.0000010       -0.01465594    0.00000000
                                                     2        0.1200000        0.07908409    0.00000000
                                                     2        0.1800000       -0.30615861    0.00000000
                                                     2        0.2600000        0.41506950    0.00000000
                                                     2        0.5000000       -0.36252345    0.00000000
                                                     2        0.9000000        0.15124193    0.00000000
                                                     2        3.0000000       -0.80425677    0.00000000
                                      D - G
                                                     0        0.0000010        0.01149631    0.00000000
                                                     2        0.1200000       -0.04713561    0.00000000
                                                     2        0.1600000        0.10865096    0.00000000
                                                     2        0.2800000       -0.15816701    0.00000000
                                                     2        0.7000000        0.65478804    0.00000000
                                                     2        1.3000000       -1.73816624    0.00000000
                                      F - G
                                                     0        0.0000010        0.00481868    0.00000000
                                                     2        0.1200000       -0.04746842    0.00000000
                                                     2        0.1600000        0.09327889    0.00000000
                                                     2        0.4000000       -0.19693326    0.00000000
                                                     2        0.9000000        0.34938253    0.00000000
    4          6            6
                                      G and up 
                                                     0        0.0000010       -0.00011185    0.00000000
                                                     2        0.1200000       -0.02301220    0.00000000
                                                     2        0.1400000        0.13317600    0.00000000
                                                     2        0.1600000       -0.19690668    0.00000000
                                                     2        0.2200000        0.23163694    0.00000000
                                                     2        0.3000000       -0.36920489    0.00000000
                                                     2        0.4000000        0.36389709    0.00000000
                                                     2        0.7000000       -0.38862160    0.00000000
                                                     2        1.3000000        0.80803421    0.00000000
                                      S - G
                                                     0        0.0000010        0.00312304    0.00000000
                                                     2        0.1200000       -0.00632892    0.00000000
                                                     2        0.2200000       -0.03780897    0.00000000
                                                     2        0.4000000        0.26269560    0.00000000
                                                     2        0.9000000       -0.28209514    0.00000000
                                                     2        1.5000000       -0.72686737    0.00000000
                                      P - G
                                                     0        0.0000010       -0.01465594    0.00000000
                                                     2        0.1200000        0.07908409    0.00000000
                                                     2        0.1800000       -0.30615861    0.00000000
                                                     2        0.2600000        0.41506950    0.00000000
                                                     2        0.5000000       -0.36252345    0.00000000
                                                     2        0.9000000        0.15124193    0.00000000
                                                     2        3.0000000       -0.80425677    0.00000000
                                      D - G
                                                     0        0.0000010        0.01149631    0.00000000
                                                     2        0.1200000       -0.04713561    0.00000000
                                                     2        0.1600000        0.10865096    0.00000000
                                                     2        0.2800000       -0.15816701    0.00000000
                                                     2        0.7000000        0.65478804    0.00000000
                                                     2        1.3000000       -1.73816624    0.00000000
                                      F - G
                                                     0        0.0000010        0.00481868    0.00000000
                                                     2        0.1200000       -0.04746842    0.00000000
                                                     2        0.1600000        0.09327889    0.00000000
                                                     2        0.4000000       -0.19693326    0.00000000
                                                     2        0.9000000        0.34938253    0.00000000
    5          6            6
                                      G and up 
                                                     0        0.0000010       -0.00011185    0.00000000
                                                     2        0.1200000       -0.02301220    0.00000000
                                                     2        0.1400000        0.13317600    0.00000000
                                                     2        0.1600000       -0.19690668    0.00000000
                                                     2        0.2200000        0.23163694    0.00000000
                                                     2        0.3000000       -0.36920489    0.00000000
                                                     2        0.4000000        0.36389709    0.00000000
                                                     2        0.7000000       -0.38862160    0.00000000
                                                     2        1.3000000        0.80803421    0.00000000
                                      S - G
                                                     0        0.0000010        0.00312304    0.00000000
                                                     2        0.1200000       -0.00632892    0.00000000
                                                     2        0.2200000       -0.03780897    0.00000000
                                                     2        0.4000000        0.26269560    0.00000000
                                                     2        0.9000000       -0.28209514    0.00000000
                                                     2        1.5000000       -0.72686737    0.00000000
                                      P - G
                                                     0        0.0000010       -0.01465594    0.00000000
                                                     2        0.1200000        0.07908409    0.00000000
                                                     2        0.1800000       -0.30615861    0.00000000
                                                     2        0.2600000        0.41506950    0.00000000
                                                     2        0.5000000       -0.36252345    0.00000000
                                                     2        0.9000000        0.15124193    0.00000000
                                                     2        3.0000000       -0.80425677    0.00000000
                                      D - G
                                                     0        0.0000010        0.01149631    0.00000000
                                                     2        0.1200000       -0.04713561    0.00000000
                                                     2        0.1600000        0.10865096    0.00000000
                                                     2        0.2800000       -0.15816701    0.00000000
                                                     2        0.7000000        0.65478804    0.00000000
                                                     2        1.3000000       -1.73816624    0.00000000
                                      F - G
                                                     0        0.0000010        0.00481868    0.00000000
                                                     2        0.1200000       -0.04746842    0.00000000
                                                     2        0.1600000        0.09327889    0.00000000
                                                     2        0.4000000       -0.19693326    0.00000000
                                                     2        0.9000000        0.34938253    0.00000000
    6          6            6
                                      G and up 
                                                     0        0.0000010       -0.00011185    0.00000000
                                                     2        0.1200000       -0.02301220    0.00000000
                                                     2        0.1400000        0.13317600    0.00000000
                                                     2        0.1600000       -0.19690668    0.00000000
                                                     2        0.2200000        0.23163694    0.00000000
                                                     2        0.3000000       -0.36920489    0.00000000
                                                     2        0.4000000        0.36389709    0.00000000
                                                     2        0.7000000       -0.38862160    0.00000000
                                                     2        1.3000000        0.80803421    0.00000000
                                      S - G
                                                     0        0.0000010        0.00312304    0.00000000
                                                     2        0.1200000       -0.00632892    0.00000000
                                                     2        0.2200000       -0.03780897    0.00000000
                                                     2        0.4000000        0.26269560    0.00000000
                                                     2        0.9000000       -0.28209514    0.00000000
                                                     2        1.5000000       -0.72686737    0.00000000
                                      P - G
                                                     0        0.0000010       -0.01465594    0.00000000
                                                     2        0.1200000        0.07908409    0.00000000
                                                     2        0.1800000       -0.30615861    0.00000000
                                                     2        0.2600000        0.41506950    0.00000000
                                                     2        0.5000000       -0.36252345    0.00000000
                                                     2        0.9000000        0.15124193    0.00000000
                                                     2        3.0000000       -0.80425677    0.00000000
                                      D - G
                                                     0        0.0000010        0.01149631    0.00000000
                                                     2        0.1200000       -0.04713561    0.00000000
                                                     2        0.1600000        0.10865096    0.00000000
                                                     2        0.2800000       -0.15816701    0.00000000
                                                     2        0.7000000        0.65478804    0.00000000
                                                     2        1.3000000       -1.73816624    0.00000000
                                      F - G
                                                     0        0.0000010        0.00481868    0.00000000
                                                     2        0.1200000       -0.04746842    0.00000000
                                                     2        0.1600000        0.09327889    0.00000000
                                                     2        0.4000000       -0.19693326    0.00000000
                                                     2        0.9000000        0.34938253    0.00000000
    7          7            7
                                      G and up 
                                                     0        0.0000010       -0.00000022    0.00000000
                                                     2        0.1200000       -0.00992020    0.00000000
                                                     2        0.1400000        0.02578711    0.00000000
                                                     2        0.2200000       -0.10543517    0.00000000
                                                     2        0.3000000        0.23013665    0.00000000
                                                     2        0.5000000       -0.60834094    0.00000000
                                                     2        0.8000000        1.81436815    0.00000000
                                                     2        1.2000000       -3.87539738    0.00000000
                                                     2        2.0000000        2.94656640    0.00000000
                                      S - G
                                                     0        0.0000010       -0.00223566    0.00000000
                                                     2        0.1200000        0.45247937    0.00000000
                                                     2        0.1600000       -0.78978304    0.00000000
                                                     2        0.4000000        0.84956595    0.00000000
                                                     2        3.0000000       -0.75910174    0.00000000
                                      P - G
                                                     0        0.0000010       -0.25576737    0.00000000
                                                     2        0.1200000       -0.19992277    0.00000000
                                                     2        0.1600000        0.88518512    0.00000000
                                                     2        0.2400000       -1.33293917    0.00000000
                                                     2        0.4000000        1.33451776    0.00000000
                                                     2        0.9000000       -0.55709210    0.00000000
                                                     2        2.5000000        2.48506502    0.00000000
                                      D - G
                                                     0        0.0000010        0.26143746    0.00000000
                                                     2        0.1200000       -0.04492212    0.00000000
                                                     2        0.1400000       -0.18274021    0.00000000
                                                     2        0.2400000        0.53490004    0.00000000
                                                     2        0.4000000       -0.74136473    0.00000000
                                                     2        1.3000000        1.71401021    0.00000000
                                      F - G
                                                     0        0.0000010       -0.07169988    0.00000000
                                                     2        0.1200000        0.04480029    0.00000000
                                                     2        0.2600000       -0.08050831    0.00000000
                                                     2        0.5000000        0.31290809    0.00000000
                                                     2        1.0000000       -0.45253098    0.00000000
    8          1            1
                                      F and up 
                                                     0        0.0000010       -0.00000699    0.00000000
                                                     2        0.1200000        0.00123686    0.00000000
                                                     2        0.1800000       -0.00752022    0.00000000
                                                     2        0.2600000        0.02503380    0.00000000
                                                     2        0.4000000       -0.08702670    0.00000000
                                                     2        0.6000000        0.30134159    0.00000000
                                                     2        0.8000000       -0.50204959    0.00000000
                                                     2        1.2000000        0.52208372    0.00000000
                                      S - F
                                                     0        0.0000010       -0.01618346    0.00000000
                                                     2        0.1200000       -0.07880581    0.00000000
                                                     2        0.1600000        0.32040539    0.00000000
                                                     2        0.2400000       -0.47500956    0.00000000
                                                     2        0.5000000        0.54013668    0.00000000
                                                     2        1.5000000       -1.40434292    0.00000000
                                                     2        3.0000000        1.46283806    0.00000000
                                      P - F
                                                     0        0.0000010        0.00612970    0.00000000
                                                     2        0.1200000        0.02254406    0.00000000
                                                     2        0.1800000       -0.13874529    0.00000000
                                                     2        0.3000000        0.38299049    0.00000000
                                                     2        0.5000000       -0.57923512    0.00000000
                                                     2        1.0000000        0.63021625    0.00000000
                                                     2        2.0000000       -0.79201034    0.00000000
                                      D - F
                                                     0        0.0000010       -0.00296226    0.00000000
                                                     2        0.1200000       -0.00547344    0.00000000
                                                     2        0.1400000        0.01837884    0.00000000
                                                     2        0.2400000       -0.05565704    0.00000000
                                                     2        0.4000000        0.15376597    0.00000000
                                                     2        0.8000000       -0.32464795    0.00000000
    9          1            1
                                      F and up 
                                                     0        0.0000010       -0.00000699    0.00000000
                                                     2        0.1200000        0.00123686    0.00000000
                                                     2        0.1800000       -0.00752022    0.00000000
                                                     2        0.2600000        0.02503380    0.00000000
                                                     2        0.4000000       -0.08702670    0.00000000
                                                     2        0.6000000        0.30134159    0.00000000
                                                     2        0.8000000       -0.50204959    0.00000000
                                                     2        1.2000000        0.52208372    0.00000000
                                      S - F
                                                     0        0.0000010       -0.01618346    0.00000000
                                                     2        0.1200000       -0.07880581    0.00000000
                                                     2        0.1600000        0.32040539    0.00000000
                                                     2        0.2400000       -0.47500956    0.00000000
                                                     2        0.5000000        0.54013668    0.00000000
                                                     2        1.5000000       -1.40434292    0.00000000
                                                     2        3.0000000        1.46283806    0.00000000
                                      P - F
                                                     0        0.0000010        0.00612970    0.00000000
                                                     2        0.1200000        0.02254406    0.00000000
                                                     2        0.1800000       -0.13874529    0.00000000
                                                     2        0.3000000        0.38299049    0.00000000
                                                     2        0.5000000       -0.57923512    0.00000000
                                                     2        1.0000000        0.63021625    0.00000000
                                                     2        2.0000000       -0.79201034    0.00000000
                                      D - F
                                                     0        0.0000010       -0.00296226    0.00000000
                                                     2        0.1200000       -0.00547344    0.00000000
                                                     2        0.1400000        0.01837884    0.00000000
                                                     2        0.2400000       -0.05565704    0.00000000
                                                     2        0.4000000        0.15376597    0.00000000
                                                     2        0.8000000       -0.32464795    0.00000000
   10          1            1
                                      F and up 
                                                     0        0.0000010       -0.00000699    0.00000000
                                                     2        0.1200000        0.00123686    0.00000000
                                                     2        0.1800000       -0.00752022    0.00000000
                                                     2        0.2600000        0.02503380    0.00000000
                                                     2        0.4000000       -0.08702670    0.00000000
                                                     2        0.6000000        0.30134159    0.00000000
                                                     2        0.8000000       -0.50204959    0.00000000
                                                     2        1.2000000        0.52208372    0.00000000
                                      S - F
                                                     0        0.0000010       -0.01618346    0.00000000
                                                     2        0.1200000       -0.07880581    0.00000000
                                                     2        0.1600000        0.32040539    0.00000000
                                                     2        0.2400000       -0.47500956    0.00000000
                                                     2        0.5000000        0.54013668    0.00000000
                                                     2        1.5000000       -1.40434292    0.00000000
                                                     2        3.0000000        1.46283806    0.00000000
                                      P - F
                                                     0        0.0000010        0.00612970    0.00000000
                                                     2        0.1200000        0.02254406    0.00000000
                                                     2        0.1800000       -0.13874529    0.00000000
                                                     2        0.3000000        0.38299049    0.00000000
                                                     2        0.5000000       -0.57923512    0.00000000
                                                     2        1.0000000        0.63021625    0.00000000
                                                     2        2.0000000       -0.79201034    0.00000000
                                      D - F
                                                     0        0.0000010       -0.00296226    0.00000000
                                                     2        0.1200000       -0.00547344    0.00000000
                                                     2        0.1400000        0.01837884    0.00000000
                                                     2        0.2400000       -0.05565704    0.00000000
                                                     2        0.4000000        0.15376597    0.00000000
                                                     2        0.8000000       -0.32464795    0.00000000
   11          1            1
                                      F and up 
                                                     0        0.0000010       -0.00000699    0.00000000
                                                     2        0.1200000        0.00123686    0.00000000
                                                     2        0.1800000       -0.00752022    0.00000000
                                                     2        0.2600000        0.02503380    0.00000000
                                                     2        0.4000000       -0.08702670    0.00000000
                                                     2        0.6000000        0.30134159    0.00000000
                                                     2        0.8000000       -0.50204959    0.00000000
                                                     2        1.2000000        0.52208372    0.00000000
                                      S - F
                                                     0        0.0000010       -0.01618346    0.00000000
                                                     2        0.1200000       -0.07880581    0.00000000
                                                     2        0.1600000        0.32040539    0.00000000
                                                     2        0.2400000       -0.47500956    0.00000000
                                                     2        0.5000000        0.54013668    0.00000000
                                                     2        1.5000000       -1.40434292    0.00000000
                                                     2        3.0000000        1.46283806    0.00000000
                                      P - F
                                                     0        0.0000010        0.00612970    0.00000000
                                                     2        0.1200000        0.02254406    0.00000000
                                                     2        0.1800000       -0.13874529    0.00000000
                                                     2        0.3000000        0.38299049    0.00000000
                                                     2        0.5000000       -0.57923512    0.00000000
                                                     2        1.0000000        0.63021625    0.00000000
                                                     2        2.0000000       -0.79201034    0.00000000
                                      D - F
                                                     0        0.0000010       -0.00296226    0.00000000
                                                     2        0.1200000       -0.00547344    0.00000000
                                                     2        0.1400000        0.01837884    0.00000000
                                                     2        0.2400000       -0.05565704    0.00000000
                                                     2        0.4000000        0.15376597    0.00000000
                                                     2        0.8000000       -0.32464795    0.00000000
   12          1            1
                                      F and up 
                                                     0        0.0000010       -0.00000699    0.00000000
                                                     2        0.1200000        0.00123686    0.00000000
                                                     2        0.1800000       -0.00752022    0.00000000
                                                     2        0.2600000        0.02503380    0.00000000
                                                     2        0.4000000       -0.08702670    0.00000000
                                                     2        0.6000000        0.30134159    0.00000000
                                                     2        0.8000000       -0.50204959    0.00000000
                                                     2        1.2000000        0.52208372    0.00000000
                                      S - F
                                                     0        0.0000010       -0.01618346    0.00000000
                                                     2        0.1200000       -0.07880581    0.00000000
                                                     2        0.1600000        0.32040539    0.00000000
                                                     2        0.2400000       -0.47500956    0.00000000
                                                     2        0.5000000        0.54013668    0.00000000
                                                     2        1.5000000       -1.40434292    0.00000000
                                                     2        3.0000000        1.46283806    0.00000000
                                      P - F
                                                     0        0.0000010        0.00612970    0.00000000
                                                     2        0.1200000        0.02254406    0.00000000
                                                     2        0.1800000       -0.13874529    0.00000000
                                                     2        0.3000000        0.38299049    0.00000000
                                                     2        0.5000000       -0.57923512    0.00000000
                                                     2        1.0000000        0.63021625    0.00000000
                                                     2        2.0000000       -0.79201034    0.00000000
                                      D - F
                                                     0        0.0000010       -0.00296226    0.00000000
                                                     2        0.1200000       -0.00547344    0.00000000
                                                     2        0.1400000        0.01837884    0.00000000
                                                     2        0.2400000       -0.05565704    0.00000000
                                                     2        0.4000000        0.15376597    0.00000000
                                                     2        0.8000000       -0.32464795    0.00000000
   13          1            1
                                      F and up 
                                                     0        0.0000010       -0.00000699    0.00000000
                                                     2        0.1200000        0.00123686    0.00000000
                                                     2        0.1800000       -0.00752022    0.00000000
                                                     2        0.2600000        0.02503380    0.00000000
                                                     2        0.4000000       -0.08702670    0.00000000
                                                     2        0.6000000        0.30134159    0.00000000
                                                     2        0.8000000       -0.50204959    0.00000000
                                                     2        1.2000000        0.52208372    0.00000000
                                      S - F
                                                     0        0.0000010       -0.01618346    0.00000000
                                                     2        0.1200000       -0.07880581    0.00000000
                                                     2        0.1600000        0.32040539    0.00000000
                                                     2        0.2400000       -0.47500956    0.00000000
                                                     2        0.5000000        0.54013668    0.00000000
                                                     2        1.5000000       -1.40434292    0.00000000
                                                     2        3.0000000        1.46283806    0.00000000
                                      P - F
                                                     0        0.0000010        0.00612970    0.00000000
                                                     2        0.1200000        0.02254406    0.00000000
                                                     2        0.1800000       -0.13874529    0.00000000
                                                     2        0.3000000        0.38299049    0.00000000
                                                     2        0.5000000       -0.57923512    0.00000000
                                                     2        1.0000000        0.63021625    0.00000000
                                                     2        2.0000000       -0.79201034    0.00000000
                                      D - F
                                                     0        0.0000010       -0.00296226    0.00000000
                                                     2        0.1200000       -0.00547344    0.00000000
                                                     2        0.1400000        0.01837884    0.00000000
                                                     2        0.2400000       -0.05565704    0.00000000
                                                     2        0.4000000        0.15376597    0.00000000
                                                     2        0.8000000       -0.32464795    0.00000000
   14          1            1
                                      F and up 
                                                     0        0.0000010       -0.00000699    0.00000000
                                                     2        0.1200000        0.00123686    0.00000000
                                                     2        0.1800000       -0.00752022    0.00000000
                                                     2        0.2600000        0.02503380    0.00000000
                                                     2        0.4000000       -0.08702670    0.00000000
                                                     2        0.6000000        0.30134159    0.00000000
                                                     2        0.8000000       -0.50204959    0.00000000
                                                     2        1.2000000        0.52208372    0.00000000
                                      S - F
                                                     0        0.0000010       -0.01618346    0.00000000
                                                     2        0.1200000       -0.07880581    0.00000000
                                                     2        0.1600000        0.32040539    0.00000000
                                                     2        0.2400000       -0.47500956    0.00000000
                                                     2        0.5000000        0.54013668    0.00000000
                                                     2        1.5000000       -1.40434292    0.00000000
                                                     2        3.0000000        1.46283806    0.00000000
                                      P - F
                                                     0        0.0000010        0.00612970    0.00000000
                                                     2        0.1200000        0.02254406    0.00000000
                                                     2        0.1800000       -0.13874529    0.00000000
                                                     2        0.3000000        0.38299049    0.00000000
                                                     2        0.5000000       -0.57923512    0.00000000
                                                     2        1.0000000        0.63021625    0.00000000
                                                     2        2.0000000       -0.79201034    0.00000000
                                      D - F
                                                     0        0.0000010       -0.00296226    0.00000000
                                                     2        0.1200000       -0.00547344    0.00000000
                                                     2        0.1400000        0.01837884    0.00000000
                                                     2        0.2400000       -0.05565704    0.00000000
                                                     2        0.4000000        0.15376597    0.00000000
                                                     2        0.8000000       -0.32464795    0.00000000
 ======================================================================================================
   224 basis functions,   378 primitive gaussians,   238 cartesian basis functions
    26 alpha electrons       26 beta electrons
       nuclear repulsion energy       273.0195727171 Hartrees.
 NAtoms=   14 NActive=   14 NUniq=   14 SFac= 1.00D+00 NAtFMM=   60 NAOKFM=F Big=F
   1 Symmetry operations used in ECPInt.
 ECPInt:  NShTT=    4851 NPrTT=   22491 LenC2=    4830 LenP2D=   17364.
 LDataN:  DoStor=T MaxTD1= 6 Len=  172
 Initial guess from the checkpoint file:  "Grambow2020_wb97xd3_009202_reverse_mol1.chk"
 B after Tr=    -0.233004   -0.282753   -0.486050
         Rot=    0.905929    0.422452   -0.022802   -0.017541 Ang=  50.10 deg.
 >>>>>>>>>> Convergence criterion not met.
 SCF Done:  E(RHF) =  -322.530821568     A.U. after    2 cycles
            NFock=  1  Conv=0.88D-02     -V/T= 1.9999

 **********************************************************************

            Population analysis using the SCF Density.

 **********************************************************************

 Orbital symmetries:
       Occupied  (A) (A) (A) (A) (A) (A) (A) (A) (A) (A) (A) (A)
                 (A) (A) (A) (A) (A) (A) (A) (A) (A) (A) (A) (A)
                 (A) (A)
       Virtual   (A) (A) (A) (A) (A) (A) (A) (A) (A) (A) (A) (A)
                 (A) (A) (A) (A) (A) (A) (A) (A) (A) (A) (A) (A)
                 (A) (A) (A) (A) (A) (A) (A) (A) (A) (A) (A) (A)
                 (A) (A) (A) (A) (A) (A) (A) (A) (A) (A) (A) (A)
                 (A) (A) (A) (A) (A) (A) (A) (A) (A) (A) (A) (A)
                 (A) (A) (A) (A) (A) (A) (A) (A) (A) (A) (A) (A)
                 (A) (A) (A) (A) (A) (A) (A) (A) (A) (A) (A) (A)
                 (A) (A) (A) (A) (A) (A) (A) (A) (A) (A) (A) (A)
                 (A) (A) (A) (A) (A) (A) (A) (A) (A) (A) (A) (A)
                 (A) (A) (A) (A) (A) (A) (A) (A) (A) (A) (A) (A)
                 (A) (A) (A) (A) (A) (A) (A) (A) (A) (A) (A) (A)
                 (A) (A) (A) (A) (A) (A) (A) (A) (A) (A) (A) (A)
                 (A) (A) (A) (A) (A) (A) (A) (A) (A) (A) (A) (A)
                 (A) (A) (A) (A) (A) (A) (A) (A) (A) (A) (A) (A)
                 (A) (A) (A) (A) (A) (A) (A) (A) (A) (A) (A) (A)
                 (A) (A) (A) (A) (A) (A) (A) (A) (A) (A) (A) (A)
                 (A) (A) (A) (A) (A) (A)
 The electronic state is 1-A.
 Alpha  occ. eigenvalues --  -20.50289 -15.70194 -11.40798 -11.33882 -11.30945
 Alpha  occ. eigenvalues --  -11.29630 -11.25022  -1.34233  -1.25221  -1.08273
 Alpha  occ. eigenvalues --   -0.95933  -0.93824  -0.87160  -0.80225  -0.70546
 Alpha  occ. eigenvalues --   -0.67818  -0.63406  -0.61188  -0.60373  -0.56235
 Alpha  occ. eigenvalues --   -0.54844  -0.48259  -0.41206  -0.39923  -0.39499
 Alpha  occ. eigenvalues --   -0.36668
 Alpha virt. eigenvalues --    0.01755   0.02812   0.03799   0.04600   0.04970
 Alpha virt. eigenvalues --    0.06539   0.07727   0.09511   0.09700   0.10013
 Alpha virt. eigenvalues --    0.11466   0.12265   0.12934   0.13477   0.13886
 Alpha virt. eigenvalues --    0.15013   0.15617   0.16443   0.17020   0.17369
 Alpha virt. eigenvalues --    0.17830   0.18717   0.19091   0.19292   0.19774
 Alpha virt. eigenvalues --    0.21395   0.21835   0.22879   0.24305   0.25392
 Alpha virt. eigenvalues --    0.25681   0.27626   0.29243   0.30140   0.30799
 Alpha virt. eigenvalues --    0.32049   0.33135   0.33374   0.34491   0.34907
 Alpha virt. eigenvalues --    0.35799   0.37349   0.38558   0.40143   0.40518
 Alpha virt. eigenvalues --    0.41854   0.42821   0.43501   0.44863   0.45383
 Alpha virt. eigenvalues --    0.47163   0.47258   0.47492   0.50486   0.51030
 Alpha virt. eigenvalues --    0.51566   0.53060   0.53810   0.53860   0.55124
 Alpha virt. eigenvalues --    0.55502   0.57478   0.57717   0.58430   0.60250
 Alpha virt. eigenvalues --    0.60947   0.62375   0.63175   0.63457   0.64832
 Alpha virt. eigenvalues --    0.65131   0.67035   0.67749   0.68517   0.70234
 Alpha virt. eigenvalues --    0.71284   0.71597   0.72124   0.72864   0.73208
 Alpha virt. eigenvalues --    0.74483   0.76719   0.78745   0.79250   0.81299
 Alpha virt. eigenvalues --    0.82054   0.82898   0.84909   0.86293   0.86487
 Alpha virt. eigenvalues --    0.87646   0.88756   0.92227   0.92456   0.94258
 Alpha virt. eigenvalues --    0.94727   0.96906   0.99576   1.00811   1.04500
 Alpha virt. eigenvalues --    1.08644   1.09667   1.10142   1.12237   1.13709
 Alpha virt. eigenvalues --    1.16129   1.18053   1.19599   1.21059   1.22437
 Alpha virt. eigenvalues --    1.24281   1.25059   1.28053   1.31477   1.34393
 Alpha virt. eigenvalues --    1.36506   1.36769   1.40437   1.42244   1.43257
 Alpha virt. eigenvalues --    1.44767   1.51230   1.52721   1.55699   1.57323
 Alpha virt. eigenvalues --    1.59019   1.60446   1.62514   1.63704   1.64374
 Alpha virt. eigenvalues --    1.68357   1.70441   1.72250   1.73849   1.76520
 Alpha virt. eigenvalues --    1.76980   1.78612   1.80959   1.82531   1.85055
 Alpha virt. eigenvalues --    1.86965   1.87928   1.89944   1.92132   1.95092
 Alpha virt. eigenvalues --    1.97644   1.99100   2.01232   2.02784   2.07028
 Alpha virt. eigenvalues --    2.09234   2.10758   2.14433   2.16378   2.20715
 Alpha virt. eigenvalues --    2.22488   2.25947   2.27431   2.28400   2.32309
 Alpha virt. eigenvalues --    2.36489   2.37285   2.38611   2.42003   2.43759
 Alpha virt. eigenvalues --    2.47044   2.49566   2.55120   2.56523   2.57410
 Alpha virt. eigenvalues --    2.64111   2.68882   2.72644   2.75464   2.80867
 Alpha virt. eigenvalues --    2.82832   2.84264   2.87701   2.90647   2.92697
 Alpha virt. eigenvalues --    2.95207   3.00466   3.06182   3.12790   3.19068
 Alpha virt. eigenvalues --    3.21740   3.34457   3.40828   3.48005   3.53600
 Alpha virt. eigenvalues --    3.62157   3.69168   3.75348   3.82017   3.83704
 Alpha virt. eigenvalues --    3.96353   3.98282   4.08327
          Condensed to atoms (all electrons):
 Mulliken charges:
               1
     1  O   -0.803752
     2  C    0.872993
     3  C   -0.935857
     4  C    0.139988
     5  C    0.237733
     6  C    1.032134
     7  N   -0.442510
     8  H    0.200755
     9  H    0.032212
    10  H    0.025016
    11  H    0.112954
    12  H   -0.199967
    13  H   -0.252575
    14  H   -0.019125
 Sum of Mulliken charges =  -0.00000
 Mulliken charges with hydrogens summed into heavy atoms:
               1
     1  O   -0.602997
     2  C    0.930221
     3  C   -0.935857
     4  C    0.139988
     5  C    0.350687
     6  C    0.579592
     7  N   -0.461634
 Electronic spatial extent (au):  <R**2>=            937.3473
 Charge=              0.0000 electrons
 Dipole moment (field-independent basis, Debye):
    X=             -5.4379    Y=             -3.4837    Z=             -0.6740  Tot=              6.4932

 Test job not archived.
 1\1\GINC-SE015\SP\RHF\Aug-CC-pVDZ\C5H7N1O1\OHZDE\09-Apr-2025\0\\#t hf 
 aug-cc-pvdz iop(5/13=1,5/36=2,99/5=2) pseudo=read geom=check guess=(re
 ad,tcheck) scf=(maxcycle=1)\\title\\0,1\O,0,2.16816711,0.38170211,1.17
 682256\C,0,2.62968649,-0.36928589,0.12784859\C,0,1.28333064,-0.6359906
 3,-0.3689505\C,0,0.05755737,-0.61437201,-0.44105648\C,0,-1.02637869,-0
 .08335108,0.19142524\C,0,-2.26191319,0.66179757,-0.04208062\N,0,-2.139
 14419,-0.5140841,0.83365795\H,0,0.70722142,0.75661002,1.396962\H,0,3.2
 4294395,0.17656013,-0.60279485\H,0,3.15480847,-1.28878638,0.42096633\H
 ,0,-0.12614158,0.86351811,1.40925739\H,0,-2.71690089,0.55228269,-1.021
 33969\H,0,-2.4538667,1.59021901,0.47958664\H,0,-2.52546822,-1.41348854
 ,0.58252844\\Version=ES64L-G16RevC.01\State=1-A\HF=-322.5308216\RMSD=8
 .834e-03\Dipole=-2.1381629,-0.5685945,-1.2771032\Quadrupole=5.1204732,
 0.0288226,-5.1492958,-2.7890449,-2.1423688,-1.8267645\PG=C01 [X(C5H7N1
 O1)]\\@


  ON THE CHOICE OF THE CORRECT LANGUAGE -
 I SPEAK SPANISH TO GOD, ITALIAN TO WOMEN,
 FRENCH TO MEN, AND GERMAN TO MY HORSE.
          -- CHARLES V
 Job cpu time:       0 days  0 hours  0 minutes 53.2 seconds.
 Elapsed time:       0 days  0 hours  0 minutes  4.2 seconds.
 File lengths (MBytes):  RWF=     10 Int=      0 D2E=      0 Chk=      7 Scr=      1
 Normal termination of Gaussian 16 at Wed Apr  9 04:04:51 2025.
