 Entering Gaussian System, Link 0=g16
 Input=Grambow2020_b97d3_007032_reverse_mol2.gjf
 Output=Grambow2020_b97d3_007032_reverse_mol2.log
 Initial command:
 /arc/software/Gaussian/g16.c01/l1.exe "/tmp/slurm/4862126/Gau-2830235.inp" -scrdir="/tmp/slurm/4862126/"
 Entering Link 1 = /arc/software/Gaussian/g16.c01/l1.exe PID=   2830252.
  
 Copyright (c) 1988-2019, Gaussian, Inc.  All Rights Reserved.
  
 This is part of the Gaussian(R) 16 program.  It is based on
 the Gaussian(R) 09 system (copyright 2009, Gaussian, Inc.),
 the Gaussian(R) 03 system (copyright 2003, Gaussian, Inc.),
 the Gaussian(R) 98 system (copyright 1998, Gaussian, Inc.),
 the Gaussian(R) 94 system (copyright 1995, Gaussian, Inc.),
 the Gaussian 92(TM) system (copyright 1992, Gaussian, Inc.),
 the Gaussian 90(TM) system (copyright 1990, Gaussian, Inc.),
 the Gaussian 88(TM) system (copyright 1988, Gaussian, Inc.),
 the Gaussian 86(TM) system (copyright 1986, Carnegie Mellon
 University), and the Gaussian 82(TM) system (copyright 1983,
 Carnegie Mellon University). Gaussian is a federally registered
 trademark of Gaussian, Inc.
  
 This software contains proprietary and confidential information,
 including trade secrets, belonging to Gaussian, Inc.
  
 This software is provided under written license and may be
 used, copied, transmitted, or stored only in accord with that
 written license.
  
 The following legend is applicable only to US Government
 contracts under FAR:
  
                    RESTRICTED RIGHTS LEGEND
  
 Use, reproduction and disclosure by the US Government is
 subject to restrictions as set forth in subparagraphs (a)
 and (c) of the Commercial Computer Software - Restricted
 Rights clause in FAR 52.227-19.
  
 Gaussian, Inc.
 340 Quinnipiac St., Bldg. 40, Wallingford CT 06492
  
  
 ---------------------------------------------------------------
 Warning -- This program may not be used in any manner that
 competes with the business of Gaussian, Inc. or will provide
 assistance to any competitor of Gaussian, Inc.  The licensee
 of this program is prohibited from giving any competitor of
 Gaussian, Inc. access to this program.  By using this program,
 the user acknowledges that Gaussian, Inc. is engaged in the
 business of creating and licensing software in the field of
 computational chemistry and represents and warrants to the
 licensee that it is not a competitor of Gaussian, Inc. and that
 it will not use this program in any manner prohibited above.
 ---------------------------------------------------------------
  

 Cite this work as:
 Gaussian 16, Revision C.01,
 M. J. Frisch, G. W. Trucks, H. B. Schlegel, G. E. Scuseria, 
 M. A. Robb, J. R. Cheeseman, G. Scalmani, V. Barone, 
 G. A. Petersson, H. Nakatsuji, X. Li, M. Caricato, A. V. Marenich, 
 J. Bloino, B. G. Janesko, R. Gomperts, B. Mennucci, H. P. Hratchian, 
 J. V. Ortiz, A. F. Izmaylov, J. L. Sonnenberg, D. Williams-Young, 
 F. Ding, F. Lipparini, F. Egidi, J. Goings, B. Peng, A. Petrone, 
 T. Henderson, D. Ranasinghe, V. G. Zakrzewski, J. Gao, N. Rega, 
 G. Zheng, W. Liang, M. Hada, M. Ehara, K. Toyota, R. Fukuda, 
 J. Hasegawa, M. Ishida, T. Nakajima, Y. Honda, O. Kitao, H. Nakai, 
 T. Vreven, K. Throssell, J. A. Montgomery, Jr., J. E. Peralta, 
 F. Ogliaro, M. J. Bearpark, J. J. Heyd, E. N. Brothers, K. N. Kudin, 
 V. N. Staroverov, T. A. Keith, R. Kobayashi, J. Normand, 
 K. Raghavachari, A. P. Rendell, J. C. Burant, S. S. Iyengar, 
 J. Tomasi, M. Cossi, J. M. Millam, M. Klene, C. Adamo, R. Cammi, 
 J. W. Ochterski, R. L. Martin, K. Morokuma, O. Farkas, 
 J. B. Foresman, and D. J. Fox, Gaussian, Inc., Wallingford CT, 2019.
 
 ******************************************
 Gaussian 16:  ES64L-G16RevC.01  3-Jul-2019
                 9-Apr-2025 
 ******************************************
 %nprocs=16
 Will use up to   16 processors via shared memory.
 %mem=30GB
 %chk=Grambow2020_b97d3_007032_reverse_mol2.chk
 ----------------------------------------------------------------------
 #t hf aug-cc-pvdz symm=none int=(grid=ultrafine) guess=(read,tcheck) s
 table=(opt,rrhf)
 ----------------------------------------------------------------------
 -----
 title
 -----
 Symbolic Z-matrix:
 Charge =  0 Multiplicity = 1
 C                     2.83412   0.26621  -0.47242 
 C                     1.56021   0.76135   0.05214 
 C                     0.51026   1.18386   0.50463 
 C                    -1.53258  -1.13818  -0.2048 
 C                    -2.6835   -0.60095   0.23562 
 O                    -0.60725   1.67457   1.00139 
 H                     3.5974    0.19309   0.31805 
 H                     2.71704  -0.73829  -0.90855 
 H                     3.23236   0.92235  -1.26205 
 H                    -1.14416  -0.92677  -1.20103 
 H                    -0.92853  -1.79413   0.42263 
 H                    -3.29508   0.04204  -0.4002 
 H                    -3.07587  -0.82282   1.22972 
 H                    -1.32032   1.00486   0.83541 
 
                    Distance matrix (angstroms):
                    1          2          3          4          5
     1  C    0.000000
     2  C    1.463960   0.000000
     3  C    2.682724   1.218869   0.000000
     4  C    4.594777   3.638622   3.173065   0.000000
     5  C    5.630039   4.460778   3.668513   1.344317   0.000000
     6  O    3.999829   2.536322   1.317730   3.197290   3.174139
     7  H    1.101269   2.131609   3.247587   5.325627   6.331420
     8  H    1.101334   2.123704   3.249862   4.326020   5.522116
     9  H    1.101192   2.132866   3.255665   5.297942   6.289736
    10  H    4.216720   3.425461   3.178227   1.089971   2.130653
    11  H    4.382195   3.586302   3.308364   1.090331   2.130393
    12  H    6.133717   4.929079   4.074688   2.130136   1.091666
    13  H    6.245893   5.038796   4.172869   2.130498   1.091521
    14  H    4.417619   2.995034   1.868816   2.391594   2.190123
                    6          7          8          9         10
     6  O    0.000000
     7  H    4.510079   0.000000
     8  H    4.529977   1.773993   0.000000
     9  H    4.520134   1.778144   1.774328   0.000000
    10  H    3.450488   5.103333   3.876842   4.751510   0.000000
    11  H    3.531301   4.944085   4.022064   5.246941   1.853394
    12  H    3.442964   6.931441   6.083820   6.642675   2.491258
    13  H    3.518971   6.811434   6.175524   7.003444   3.106580
    14  H    0.992225   5.011041   4.730776   5.013284   2.812355
                   11         12         13         14
    11  H    0.000000
    12  H    3.106304   0.000000
    13  H    2.491164   1.858141   0.000000
    14  H    2.856269   2.520608   2.564736   0.000000
 Symmetry turned off by external request.
 Rotational constants (GHZ):           5.3692240           1.5426798           1.2280436
   210 basis functions,   346 primitive gaussians,   222 cartesian basis functions
    23 alpha electrons       23 beta electrons
       nuclear repulsion energy       198.6962221514 Hartrees.
 NAtoms=   14 NActive=   14 NUniq=   14 SFac= 1.00D+00 NAtFMM=   60 NAOKFM=F Big=F
 ExpMin= 2.97D-02 ExpMax= 1.17D+04 ExpMxC= 4.01D+02 IAcc=3 IRadAn=         5 AccDes= 0.00D+00
 Harris functional with IExCor=  205 and IRadAn=       5 diagonalized for initial guess.
 HarFok:  IExCor=  205 AccDes= 0.00D+00 IRadAn=         5 IDoV= 1 UseB2=F ITyADJ=14
 ICtDFT=  3500011 ScaDFX=  1.000000  1.000000  1.000000  1.000000
 FoFCou: FMM=F IPFlag=           0 FMFlag=      100000 FMFlg1=           0
         NFxFlg=           0 DoJE=T BraDBF=F KetDBF=T FulRan=T
         wScrn=  0.000000 ICntrl=       500 IOpCl=  0 I1Cent=   200000004 NGrid=           0
         NMat0=    1 NMatS0=      1 NMatT0=    0 NMatD0=    1 NMtDS0=    0 NMtDT0=    0
 Symmetry not used in FoFCou.
 SCF Done:  E(RHF) =  -268.777966074     A.U. after   14 cycles
            NFock= 14  Conv=0.60D-08     -V/T= 2.0022

 **********************************************************************

            Population analysis using the SCF Density.

 **********************************************************************

 Alpha  occ. eigenvalues --  -20.61935 -11.28701 -11.26491 -11.25829 -11.25291
 Alpha  occ. eigenvalues --  -11.22470  -1.42110  -1.05428  -1.04197  -0.94226
 Alpha  occ. eigenvalues --   -0.81148  -0.77772  -0.65802  -0.65329  -0.61577
 Alpha  occ. eigenvalues --   -0.60481  -0.59896  -0.57490  -0.56920  -0.52297
 Alpha  occ. eigenvalues --   -0.39858  -0.36223  -0.34450
 Alpha virt. eigenvalues --    0.03382   0.04103   0.04748   0.05237   0.06214
 Alpha virt. eigenvalues --    0.06759   0.07145   0.07769   0.09374   0.11405
 Alpha virt. eigenvalues --    0.11832   0.12919   0.13984   0.14094   0.14981
 Alpha virt. eigenvalues --    0.16093   0.16122   0.16692   0.17169   0.17381
 Alpha virt. eigenvalues --    0.18497   0.19224   0.19850   0.19960   0.20551
 Alpha virt. eigenvalues --    0.21657   0.22882   0.24729   0.24859   0.26812
 Alpha virt. eigenvalues --    0.27939   0.28296   0.29105   0.29947   0.30727
 Alpha virt. eigenvalues --    0.31087   0.32254   0.33910   0.34344   0.36857
 Alpha virt. eigenvalues --    0.37735   0.39086   0.39914   0.41574   0.41935
 Alpha virt. eigenvalues --    0.43679   0.43858   0.44323   0.44727   0.45368
 Alpha virt. eigenvalues --    0.47263   0.47406   0.49133   0.49729   0.50508
 Alpha virt. eigenvalues --    0.51466   0.52340   0.53319   0.54233   0.55601
 Alpha virt. eigenvalues --    0.56233   0.57893   0.58132   0.60119   0.60518
 Alpha virt. eigenvalues --    0.61241   0.61374   0.61695   0.63397   0.64193
 Alpha virt. eigenvalues --    0.64896   0.65344   0.66856   0.67085   0.68646
 Alpha virt. eigenvalues --    0.69400   0.71328   0.72186   0.73475   0.73759
 Alpha virt. eigenvalues --    0.75259   0.76044   0.78264   0.79176   0.79298
 Alpha virt. eigenvalues --    0.80655   0.81523   0.83666   0.84681   0.87688
 Alpha virt. eigenvalues --    0.88489   0.89552   0.92616   0.96479   0.97450
 Alpha virt. eigenvalues --    1.01428   1.03471   1.06337   1.07290   1.09753
 Alpha virt. eigenvalues --    1.12450   1.14394   1.16010   1.17808   1.22425
 Alpha virt. eigenvalues --    1.23672   1.23876   1.27041   1.27230   1.29013
 Alpha virt. eigenvalues --    1.29965   1.32467   1.35728   1.37419   1.40955
 Alpha virt. eigenvalues --    1.46224   1.47446   1.53669   1.57446   1.58421
 Alpha virt. eigenvalues --    1.59858   1.61590   1.63635   1.65801   1.68306
 Alpha virt. eigenvalues --    1.68823   1.71762   1.74582   1.76258   1.78171
 Alpha virt. eigenvalues --    1.83088   1.83919   1.85448   1.88699   1.90361
 Alpha virt. eigenvalues --    1.92456   1.93847   1.95373   1.97435   1.98621
 Alpha virt. eigenvalues --    2.00077   2.02469   2.04090   2.05456   2.09414
 Alpha virt. eigenvalues --    2.10798   2.12940   2.14564   2.14738   2.15810
 Alpha virt. eigenvalues --    2.16573   2.19791   2.23542   2.28504   2.29026
 Alpha virt. eigenvalues --    2.30733   2.37445   2.39846   2.42040   2.43296
 Alpha virt. eigenvalues --    2.50491   2.51303   2.56110   2.60098   2.62395
 Alpha virt. eigenvalues --    2.65931   2.69418   2.78370   2.80224   2.83772
 Alpha virt. eigenvalues --    2.85091   2.86933   2.89947   2.91728   2.99334
 Alpha virt. eigenvalues --    3.01697   3.08444   3.31136   3.41288   3.43964
 Alpha virt. eigenvalues --    3.44192   3.60363   3.73325   3.82447   3.84459
 Alpha virt. eigenvalues --    4.28794   4.35920
          Condensed to atoms (all electrons):
 Mulliken charges:
               1
     1  C    0.149864
     2  C   -0.075329
     3  C    0.273073
     4  C    0.543100
     5  C    0.473230
     6  O   -0.715861
     7  H    0.046098
     8  H    0.060036
     9  H    0.041912
    10  H   -0.259656
    11  H   -0.255501
    12  H   -0.264390
    13  H   -0.265656
    14  H    0.249081
 Sum of Mulliken charges =  -0.00000
 Mulliken charges with hydrogens summed into heavy atoms:
               1
     1  C    0.297909
     2  C   -0.075329
     3  C    0.273073
     4  C    0.027943
     5  C   -0.056816
     6  O   -0.466780
 Electronic spatial extent (au):  <R**2>=            974.2107
 Charge=             -0.0000 electrons
 Dipole moment (field-independent basis, Debye):
    X=             -0.6896    Y=             -2.0032    Z=             -0.8249  Tot=              2.2735
 NROrb=    210 NOA=    23 NOB=    23 NVA=   187 NVB=   187

 **** Warning!!: The largest alpha MO coefficient is  0.51292997D+02

    12 initial guesses have been made.
 Iteration     1 Dimension    12 NMult     0 NNew     12
 New state      1 was old state      2
 Iteration     2 Dimension    24 NMult    12 NNew     12
 Iteration     3 Dimension    27 NMult    24 NNew      3
 Iteration     4 Dimension    30 NMult    27 NNew      3
 New state      1 was old state      2
 Iteration     5 Dimension    33 NMult    30 NNew      3
 Iteration     6 Dimension    36 NMult    33 NNew      3
 Iteration     7 Dimension    39 NMult    36 NNew      3
 Iteration     8 Dimension    42 NMult    39 NNew      3
 Iteration     9 Dimension    45 NMult    42 NNew      3
 Iteration    10 Dimension    48 NMult    45 NNew      3
 ***********************************************************************
 Stability analysis using <AA,BB:AA,BB> singles matrix:
 ***********************************************************************
 Ground to excited state transition densities written to RWF  633

 Eigenvectors of the stability matrix:
 
 Excited state symmetry could not be determined.
 Eigenvector   1:      Singlet-?Sym  Eigenvalue= 0.2062044  <S**2>=0.000
      22 -> 45        -0.10584
      22 -> 51        -0.15527
      22 -> 52        -0.26732
      22 -> 61         0.11359
      23 -> 32        -0.12518
      23 -> 47        -0.19325
      23 -> 49         0.25978
      23 -> 50        -0.10505
      23 -> 53         0.26053
      23 -> 57        -0.11487
      23 -> 60         0.13807
 The wavefunction is stable under the perturbations considered.
 The wavefunction is already stable.

 **********************************************************************

            Population analysis using the SCF Density.

 **********************************************************************

 Alpha  occ. eigenvalues --  -20.61935 -11.28701 -11.26491 -11.25829 -11.25291
 Alpha  occ. eigenvalues --  -11.22470  -1.42110  -1.05428  -1.04197  -0.94226
 Alpha  occ. eigenvalues --   -0.81148  -0.77772  -0.65802  -0.65329  -0.61577
 Alpha  occ. eigenvalues --   -0.60481  -0.59896  -0.57490  -0.56920  -0.52297
 Alpha  occ. eigenvalues --   -0.39858  -0.36223  -0.34450
 Alpha virt. eigenvalues --    0.03382   0.04103   0.04748   0.05237   0.06214
 Alpha virt. eigenvalues --    0.06759   0.07145   0.07769   0.09374   0.11405
 Alpha virt. eigenvalues --    0.11832   0.12919   0.13984   0.14094   0.14981
 Alpha virt. eigenvalues --    0.16093   0.16122   0.16692   0.17169   0.17381
 Alpha virt. eigenvalues --    0.18497   0.19224   0.19850   0.19960   0.20551
 Alpha virt. eigenvalues --    0.21657   0.22882   0.24729   0.24859   0.26812
 Alpha virt. eigenvalues --    0.27939   0.28296   0.29105   0.29947   0.30727
 Alpha virt. eigenvalues --    0.31087   0.32254   0.33910   0.34344   0.36857
 Alpha virt. eigenvalues --    0.37735   0.39086   0.39914   0.41574   0.41935
 Alpha virt. eigenvalues --    0.43679   0.43858   0.44323   0.44727   0.45368
 Alpha virt. eigenvalues --    0.47263   0.47406   0.49133   0.49729   0.50508
 Alpha virt. eigenvalues --    0.51466   0.52340   0.53319   0.54233   0.55601
 Alpha virt. eigenvalues --    0.56233   0.57893   0.58132   0.60119   0.60518
 Alpha virt. eigenvalues --    0.61241   0.61374   0.61695   0.63397   0.64193
 Alpha virt. eigenvalues --    0.64896   0.65344   0.66856   0.67085   0.68646
 Alpha virt. eigenvalues --    0.69400   0.71328   0.72186   0.73475   0.73759
 Alpha virt. eigenvalues --    0.75259   0.76044   0.78264   0.79176   0.79298
 Alpha virt. eigenvalues --    0.80655   0.81523   0.83666   0.84681   0.87688
 Alpha virt. eigenvalues --    0.88489   0.89552   0.92616   0.96479   0.97450
 Alpha virt. eigenvalues --    1.01428   1.03471   1.06337   1.07290   1.09753
 Alpha virt. eigenvalues --    1.12450   1.14394   1.16010   1.17808   1.22425
 Alpha virt. eigenvalues --    1.23672   1.23876   1.27041   1.27230   1.29013
 Alpha virt. eigenvalues --    1.29965   1.32467   1.35728   1.37419   1.40955
 Alpha virt. eigenvalues --    1.46224   1.47446   1.53669   1.57446   1.58421
 Alpha virt. eigenvalues --    1.59858   1.61590   1.63635   1.65801   1.68306
 Alpha virt. eigenvalues --    1.68823   1.71762   1.74582   1.76258   1.78171
 Alpha virt. eigenvalues --    1.83088   1.83919   1.85448   1.88699   1.90361
 Alpha virt. eigenvalues --    1.92456   1.93847   1.95373   1.97435   1.98621
 Alpha virt. eigenvalues --    2.00077   2.02469   2.04090   2.05456   2.09414
 Alpha virt. eigenvalues --    2.10798   2.12940   2.14564   2.14738   2.15810
 Alpha virt. eigenvalues --    2.16573   2.19791   2.23542   2.28504   2.29026
 Alpha virt. eigenvalues --    2.30733   2.37445   2.39846   2.42040   2.43296
 Alpha virt. eigenvalues --    2.50491   2.51303   2.56110   2.60098   2.62395
 Alpha virt. eigenvalues --    2.65931   2.69418   2.78370   2.80224   2.83772
 Alpha virt. eigenvalues --    2.85091   2.86933   2.89947   2.91728   2.99334
 Alpha virt. eigenvalues --    3.01697   3.08444   3.31136   3.41288   3.43964
 Alpha virt. eigenvalues --    3.44192   3.60363   3.73325   3.82447   3.84459
 Alpha virt. eigenvalues --    4.28794   4.35920
          Condensed to atoms (all electrons):
 Mulliken charges:
               1
     1  C    0.149864
     2  C   -0.075329
     3  C    0.273073
     4  C    0.543100
     5  C    0.473230
     6  O   -0.715861
     7  H    0.046098
     8  H    0.060036
     9  H    0.041912
    10  H   -0.259656
    11  H   -0.255501
    12  H   -0.264390
    13  H   -0.265656
    14  H    0.249081
 Sum of Mulliken charges =  -0.00000
 Mulliken charges with hydrogens summed into heavy atoms:
               1
     1  C    0.297909
     2  C   -0.075329
     3  C    0.273073
     4  C    0.027943
     5  C   -0.056816
     6  O   -0.466780
 Electronic spatial extent (au):  <R**2>=            974.2107
 Charge=             -0.0000 electrons
 Dipole moment (field-independent basis, Debye):
    X=             -0.6896    Y=             -2.0032    Z=             -0.8249  Tot=              2.2735
 Unable to Open any file for archive entry.
 1\1\GINC-SE455\Stability\RHF\Aug-CC-pVDZ\C5H8O1\OHZDE\09-Apr-2025\0\\#
 t hf aug-cc-pvdz symm=none int=(grid=ultrafine) guess=(read,tcheck) st
 able=(opt,rrhf)\\title\\0,1\C,0,2.83411622,0.26621073,-0.47242411\C,0,
 1.56020789,0.76135071,0.05214429\C,0,0.51026238,1.18385865,0.50463043\
 C,0,-1.53258158,-1.13817609,-0.20479641\C,0,-2.68349596,-0.60094663,0.
 23562311\O,0,-0.60725494,1.67457279,1.00138561\H,0,3.59739517,0.193090
 83,0.31805143\H,0,2.71703845,-0.7382914,-0.90854982\H,0,3.2323569,0.92
 234747,-1.26205277\H,0,-1.14415803,-0.92677099,-1.20102566\H,0,-0.9285
 2855,-1.79413217,0.42263014\H,0,-3.29507741,0.04203865,-0.40020057\H,0
 ,-3.0758654,-0.82282155,1.22972336\H,0,-1.32031615,1.004865,0.83541497
 \\Version=ES64L-G16RevC.01\HF=-268.7779661\RMSD=5.976e-09\Dipole=-0.27
 131,-0.7881194,-0.3245489\Quadrupole=4.7293451,-3.965117,-0.7642281,-1
 .1840808,-1.7742983,-1.7872283\PG=Unknown\\@
 The archive entry for this job was punched.


 NOTHING MAKES A PERSON MORE PRODUCTIVE THAN THE LAST MINUTE.
 Job cpu time:       0 days  0 hours  5 minutes 15.7 seconds.
 Elapsed time:       0 days  0 hours  0 minutes 22.7 seconds.
 File lengths (MBytes):  RWF=    202 Int=      0 D2E=      0 Chk=      6 Scr=      1
 Normal termination of Gaussian 16 at Wed Apr  9 03:15:01 2025.
 Initial command:
 /arc/software/Gaussian/g16.c01/l1.exe "/tmp/slurm/4862126/Gau-2830235.inp" -scrdir="/tmp/slurm/4862126/"
 Entering Link 1 = /arc/software/Gaussian/g16.c01/l1.exe PID=   2830628.
  
 Copyright (c) 1988-2019, Gaussian, Inc.  All Rights Reserved.
  
 This is part of the Gaussian(R) 16 program.  It is based on
 the Gaussian(R) 09 system (copyright 2009, Gaussian, Inc.),
 the Gaussian(R) 03 system (copyright 2003, Gaussian, Inc.),
 the Gaussian(R) 98 system (copyright 1998, Gaussian, Inc.),
 the Gaussian(R) 94 system (copyright 1995, Gaussian, Inc.),
 the Gaussian 92(TM) system (copyright 1992, Gaussian, Inc.),
 the Gaussian 90(TM) system (copyright 1990, Gaussian, Inc.),
 the Gaussian 88(TM) system (copyright 1988, Gaussian, Inc.),
 the Gaussian 86(TM) system (copyright 1986, Carnegie Mellon
 University), and the Gaussian 82(TM) system (copyright 1983,
 Carnegie Mellon University). Gaussian is a federally registered
 trademark of Gaussian, Inc.
  
 This software contains proprietary and confidential information,
 including trade secrets, belonging to Gaussian, Inc.
  
 This software is provided under written license and may be
 used, copied, transmitted, or stored only in accord with that
 written license.
  
 The following legend is applicable only to US Government
 contracts under FAR:
  
                    RESTRICTED RIGHTS LEGEND
  
 Use, reproduction and disclosure by the US Government is
 subject to restrictions as set forth in subparagraphs (a)
 and (c) of the Commercial Computer Software - Restricted
 Rights clause in FAR 52.227-19.
  
 Gaussian, Inc.
 340 Quinnipiac St., Bldg. 40, Wallingford CT 06492
  
  
 ---------------------------------------------------------------
 Warning -- This program may not be used in any manner that
 competes with the business of Gaussian, Inc. or will provide
 assistance to any competitor of Gaussian, Inc.  The licensee
 of this program is prohibited from giving any competitor of
 Gaussian, Inc. access to this program.  By using this program,
 the user acknowledges that Gaussian, Inc. is engaged in the
 business of creating and licensing software in the field of
 computational chemistry and represents and warrants to the
 licensee that it is not a competitor of Gaussian, Inc. and that
 it will not use this program in any manner prohibited above.
 ---------------------------------------------------------------
  

 Cite this work as:
 Gaussian 16, Revision C.01,
 M. J. Frisch, G. W. Trucks, H. B. Schlegel, G. E. Scuseria, 
 M. A. Robb, J. R. Cheeseman, G. Scalmani, V. Barone, 
 G. A. Petersson, H. Nakatsuji, X. Li, M. Caricato, A. V. Marenich, 
 J. Bloino, B. G. Janesko, R. Gomperts, B. Mennucci, H. P. Hratchian, 
 J. V. Ortiz, A. F. Izmaylov, J. L. Sonnenberg, D. Williams-Young, 
 F. Ding, F. Lipparini, F. Egidi, J. Goings, B. Peng, A. Petrone, 
 T. Henderson, D. Ranasinghe, V. G. Zakrzewski, J. Gao, N. Rega, 
 G. Zheng, W. Liang, M. Hada, M. Ehara, K. Toyota, R. Fukuda, 
 J. Hasegawa, M. Ishida, T. Nakajima, Y. Honda, O. Kitao, H. Nakai, 
 T. Vreven, K. Throssell, J. A. Montgomery, Jr., J. E. Peralta, 
 F. Ogliaro, M. J. Bearpark, J. J. Heyd, E. N. Brothers, K. N. Kudin, 
 V. N. Staroverov, T. A. Keith, R. Kobayashi, J. Normand, 
 K. Raghavachari, A. P. Rendell, J. C. Burant, S. S. Iyengar, 
 J. Tomasi, M. Cossi, J. M. Millam, M. Klene, C. Adamo, R. Cammi, 
 J. W. Ochterski, R. L. Martin, K. Morokuma, O. Farkas, 
 J. B. Foresman, and D. J. Fox, Gaussian, Inc., Wallingford CT, 2019.
 
 ******************************************
 Gaussian 16:  ES64L-G16RevC.01  3-Jul-2019
                 9-Apr-2025 
 ******************************************
 %nprocs=16
 Will use up to   16 processors via shared memory.
 %mem=30GB
 %chk=Grambow2020_b97d3_007032_reverse_mol2.chk
 ----------------------------------------------------------------------
 #t hf aug-cc-pvdz iop(5/13=1,5/36=2,99/5=2) pseudo=read geom=check gue
 ss=(read,tcheck) scf=(maxcycle=1)
 ----------------------------------------------------------------------
 -----
 title
 -----
 Structure from the checkpoint file:  "Grambow2020_b97d3_007032_reverse_mol2.chk"
 Charge =  0 Multiplicity = 1
 Z-Matrix found in chk file.
 C,0,2.83411622,0.26621073,-0.47242411
 C,0,1.56020789,0.76135071,0.05214429
 C,0,0.51026238,1.18385865,0.50463043
 C,0,-1.53258158,-1.13817609,-0.20479641
 C,0,-2.68349596,-0.60094663,0.23562311
 O,0,-0.60725494,1.67457279,1.00138561
 H,0,3.59739517,0.19309083,0.31805143
 H,0,2.71703845,-0.7382914,-0.90854982
 H,0,3.2323569,0.92234747,-1.26205277
 H,0,-1.14415803,-0.92677099,-1.20102566
 H,0,-0.92852855,-1.79413217,0.42263014
 H,0,-3.29507741,0.04203865,-0.40020057
 H,0,-3.0758654,-0.82282155,1.22972336
 H,0,-1.32031615,1.004865,0.83541497
 Recover connectivity data from disk.
                    Distance matrix (angstroms):
                    1          2          3          4          5
     1  C    0.000000
     2  C    1.463960   0.000000
     3  C    2.682724   1.218869   0.000000
     4  C    4.594777   3.638622   3.173065   0.000000
     5  C    5.630039   4.460778   3.668513   1.344317   0.000000
     6  O    3.999829   2.536322   1.317730   3.197290   3.174139
     7  H    1.101269   2.131609   3.247587   5.325627   6.331420
     8  H    1.101334   2.123704   3.249862   4.326020   5.522116
     9  H    1.101192   2.132866   3.255665   5.297942   6.289736
    10  H    4.216720   3.425461   3.178227   1.089971   2.130653
    11  H    4.382195   3.586302   3.308364   1.090331   2.130393
    12  H    6.133717   4.929079   4.074688   2.130136   1.091666
    13  H    6.245893   5.038796   4.172869   2.130498   1.091521
    14  H    4.417619   2.995034   1.868816   2.391594   2.190123
                    6          7          8          9         10
     6  O    0.000000
     7  H    4.510079   0.000000
     8  H    4.529977   1.773993   0.000000
     9  H    4.520134   1.778144   1.774328   0.000000
    10  H    3.450488   5.103333   3.876842   4.751510   0.000000
    11  H    3.531301   4.944085   4.022064   5.246941   1.853394
    12  H    3.442964   6.931441   6.083820   6.642675   2.491258
    13  H    3.518971   6.811434   6.175524   7.003444   3.106580
    14  H    0.992225   5.011041   4.730776   5.013284   2.812355
                   11         12         13         14
    11  H    0.000000
    12  H    3.106304   0.000000
    13  H    2.491164   1.858141   0.000000
    14  H    2.856269   2.520608   2.564736   0.000000
 Framework group  C1[X(C5H8O)]
 Deg. of freedom    36
                         Standard orientation:                         
 ---------------------------------------------------------------------
 Center     Atomic      Atomic             Coordinates (Angstroms)
 Number     Number       Type             X           Y           Z
 ---------------------------------------------------------------------
      1          6           0       -2.826658   -0.755585    0.009326
      2          6           0       -1.645269    0.108992    0.006871
      3          6           0       -0.672730    0.843589   -0.006438
      4          6           0        1.745348   -1.210854   -0.028990
      5          6           0        2.789902   -0.367280    0.037946
      6          8           0        0.354993    1.668277   -0.015744
      7          1           0       -3.474682   -0.559486   -0.859238
      8          1           0       -2.537905   -1.817640   -0.030654
      9          1           0       -3.433116   -0.614434    0.917571
     10          1           0        1.224597   -1.552438    0.865536
     11          1           0        1.362360   -1.575256   -0.982590
     12          1           0        3.182191   -0.017010    0.994582
     13          1           0        3.316547   -0.035229   -0.858606
     14          1           0        1.176506    1.112102   -0.032938
 ---------------------------------------------------------------------
 Rotational constants (GHZ):           5.3692240           1.5426798           1.2280436
 ======================================================================================================
                                       Pseudopotential Parameters
 ======================================================================================================
  Center     Atomic      Valence      Angular      Power
  Number     Number     Electrons     Momentum     of R      Exponent        Coefficient   SO-Coeffient
 ======================================================================================================
    1          6            6
                                      G and up 
                                                     0        0.0000010       -0.00011185    0.00000000
                                                     2        0.1200000       -0.02301220    0.00000000
                                                     2        0.1400000        0.13317600    0.00000000
                                                     2        0.1600000       -0.19690668    0.00000000
                                                     2        0.2200000        0.23163694    0.00000000
                                                     2        0.3000000       -0.36920489    0.00000000
                                                     2        0.4000000        0.36389709    0.00000000
                                                     2        0.7000000       -0.38862160    0.00000000
                                                     2        1.3000000        0.80803421    0.00000000
                                      S - G
                                                     0        0.0000010        0.00312304    0.00000000
                                                     2        0.1200000       -0.00632892    0.00000000
                                                     2        0.2200000       -0.03780897    0.00000000
                                                     2        0.4000000        0.26269560    0.00000000
                                                     2        0.9000000       -0.28209514    0.00000000
                                                     2        1.5000000       -0.72686737    0.00000000
                                      P - G
                                                     0        0.0000010       -0.01465594    0.00000000
                                                     2        0.1200000        0.07908409    0.00000000
                                                     2        0.1800000       -0.30615861    0.00000000
                                                     2        0.2600000        0.41506950    0.00000000
                                                     2        0.5000000       -0.36252345    0.00000000
                                                     2        0.9000000        0.15124193    0.00000000
                                                     2        3.0000000       -0.80425677    0.00000000
                                      D - G
                                                     0        0.0000010        0.01149631    0.00000000
                                                     2        0.1200000       -0.04713561    0.00000000
                                                     2        0.1600000        0.10865096    0.00000000
                                                     2        0.2800000       -0.15816701    0.00000000
                                                     2        0.7000000        0.65478804    0.00000000
                                                     2        1.3000000       -1.73816624    0.00000000
                                      F - G
                                                     0        0.0000010        0.00481868    0.00000000
                                                     2        0.1200000       -0.04746842    0.00000000
                                                     2        0.1600000        0.09327889    0.00000000
                                                     2        0.4000000       -0.19693326    0.00000000
                                                     2        0.9000000        0.34938253    0.00000000
    2          6            6
                                      G and up 
                                                     0        0.0000010       -0.00011185    0.00000000
                                                     2        0.1200000       -0.02301220    0.00000000
                                                     2        0.1400000        0.13317600    0.00000000
                                                     2        0.1600000       -0.19690668    0.00000000
                                                     2        0.2200000        0.23163694    0.00000000
                                                     2        0.3000000       -0.36920489    0.00000000
                                                     2        0.4000000        0.36389709    0.00000000
                                                     2        0.7000000       -0.38862160    0.00000000
                                                     2        1.3000000        0.80803421    0.00000000
                                      S - G
                                                     0        0.0000010        0.00312304    0.00000000
                                                     2        0.1200000       -0.00632892    0.00000000
                                                     2        0.2200000       -0.03780897    0.00000000
                                                     2        0.4000000        0.26269560    0.00000000
                                                     2        0.9000000       -0.28209514    0.00000000
                                                     2        1.5000000       -0.72686737    0.00000000
                                      P - G
                                                     0        0.0000010       -0.01465594    0.00000000
                                                     2        0.1200000        0.07908409    0.00000000
                                                     2        0.1800000       -0.30615861    0.00000000
                                                     2        0.2600000        0.41506950    0.00000000
                                                     2        0.5000000       -0.36252345    0.00000000
                                                     2        0.9000000        0.15124193    0.00000000
                                                     2        3.0000000       -0.80425677    0.00000000
                                      D - G
                                                     0        0.0000010        0.01149631    0.00000000
                                                     2        0.1200000       -0.04713561    0.00000000
                                                     2        0.1600000        0.10865096    0.00000000
                                                     2        0.2800000       -0.15816701    0.00000000
                                                     2        0.7000000        0.65478804    0.00000000
                                                     2        1.3000000       -1.73816624    0.00000000
                                      F - G
                                                     0        0.0000010        0.00481868    0.00000000
                                                     2        0.1200000       -0.04746842    0.00000000
                                                     2        0.1600000        0.09327889    0.00000000
                                                     2        0.4000000       -0.19693326    0.00000000
                                                     2        0.9000000        0.34938253    0.00000000
    3          6            6
                                      G and up 
                                                     0        0.0000010       -0.00011185    0.00000000
                                                     2        0.1200000       -0.02301220    0.00000000
                                                     2        0.1400000        0.13317600    0.00000000
                                                     2        0.1600000       -0.19690668    0.00000000
                                                     2        0.2200000        0.23163694    0.00000000
                                                     2        0.3000000       -0.36920489    0.00000000
                                                     2        0.4000000        0.36389709    0.00000000
                                                     2        0.7000000       -0.38862160    0.00000000
                                                     2        1.3000000        0.80803421    0.00000000
                                      S - G
                                                     0        0.0000010        0.00312304    0.00000000
                                                     2        0.1200000       -0.00632892    0.00000000
                                                     2        0.2200000       -0.03780897    0.00000000
                                                     2        0.4000000        0.26269560    0.00000000
                                                     2        0.9000000       -0.28209514    0.00000000
                                                     2        1.5000000       -0.72686737    0.00000000
                                      P - G
                                                     0        0.0000010       -0.01465594    0.00000000
                                                     2        0.1200000        0.07908409    0.00000000
                                                     2        0.1800000       -0.30615861    0.00000000
                                                     2        0.2600000        0.41506950    0.00000000
                                                     2        0.5000000       -0.36252345    0.00000000
                                                     2        0.9000000        0.15124193    0.00000000
                                                     2        3.0000000       -0.80425677    0.00000000
                                      D - G
                                                     0        0.0000010        0.01149631    0.00000000
                                                     2        0.1200000       -0.04713561    0.00000000
                                                     2        0.1600000        0.10865096    0.00000000
                                                     2        0.2800000       -0.15816701    0.00000000
                                                     2        0.7000000        0.65478804    0.00000000
                                                     2        1.3000000       -1.73816624    0.00000000
                                      F - G
                                                     0        0.0000010        0.00481868    0.00000000
                                                     2        0.1200000       -0.04746842    0.00000000
                                                     2        0.1600000        0.09327889    0.00000000
                                                     2        0.4000000       -0.19693326    0.00000000
                                                     2        0.9000000        0.34938253    0.00000000
    4          6            6
                                      G and up 
                                                     0        0.0000010       -0.00011185    0.00000000
                                                     2        0.1200000       -0.02301220    0.00000000
                                                     2        0.1400000        0.13317600    0.00000000
                                                     2        0.1600000       -0.19690668    0.00000000
                                                     2        0.2200000        0.23163694    0.00000000
                                                     2        0.3000000       -0.36920489    0.00000000
                                                     2        0.4000000        0.36389709    0.00000000
                                                     2        0.7000000       -0.38862160    0.00000000
                                                     2        1.3000000        0.80803421    0.00000000
                                      S - G
                                                     0        0.0000010        0.00312304    0.00000000
                                                     2        0.1200000       -0.00632892    0.00000000
                                                     2        0.2200000       -0.03780897    0.00000000
                                                     2        0.4000000        0.26269560    0.00000000
                                                     2        0.9000000       -0.28209514    0.00000000
                                                     2        1.5000000       -0.72686737    0.00000000
                                      P - G
                                                     0        0.0000010       -0.01465594    0.00000000
                                                     2        0.1200000        0.07908409    0.00000000
                                                     2        0.1800000       -0.30615861    0.00000000
                                                     2        0.2600000        0.41506950    0.00000000
                                                     2        0.5000000       -0.36252345    0.00000000
                                                     2        0.9000000        0.15124193    0.00000000
                                                     2        3.0000000       -0.80425677    0.00000000
                                      D - G
                                                     0        0.0000010        0.01149631    0.00000000
                                                     2        0.1200000       -0.04713561    0.00000000
                                                     2        0.1600000        0.10865096    0.00000000
                                                     2        0.2800000       -0.15816701    0.00000000
                                                     2        0.7000000        0.65478804    0.00000000
                                                     2        1.3000000       -1.73816624    0.00000000
                                      F - G
                                                     0        0.0000010        0.00481868    0.00000000
                                                     2        0.1200000       -0.04746842    0.00000000
                                                     2        0.1600000        0.09327889    0.00000000
                                                     2        0.4000000       -0.19693326    0.00000000
                                                     2        0.9000000        0.34938253    0.00000000
    5          6            6
                                      G and up 
                                                     0        0.0000010       -0.00011185    0.00000000
                                                     2        0.1200000       -0.02301220    0.00000000
                                                     2        0.1400000        0.13317600    0.00000000
                                                     2        0.1600000       -0.19690668    0.00000000
                                                     2        0.2200000        0.23163694    0.00000000
                                                     2        0.3000000       -0.36920489    0.00000000
                                                     2        0.4000000        0.36389709    0.00000000
                                                     2        0.7000000       -0.38862160    0.00000000
                                                     2        1.3000000        0.80803421    0.00000000
                                      S - G
                                                     0        0.0000010        0.00312304    0.00000000
                                                     2        0.1200000       -0.00632892    0.00000000
                                                     2        0.2200000       -0.03780897    0.00000000
                                                     2        0.4000000        0.26269560    0.00000000
                                                     2        0.9000000       -0.28209514    0.00000000
                                                     2        1.5000000       -0.72686737    0.00000000
                                      P - G
                                                     0        0.0000010       -0.01465594    0.00000000
                                                     2        0.1200000        0.07908409    0.00000000
                                                     2        0.1800000       -0.30615861    0.00000000
                                                     2        0.2600000        0.41506950    0.00000000
                                                     2        0.5000000       -0.36252345    0.00000000
                                                     2        0.9000000        0.15124193    0.00000000
                                                     2        3.0000000       -0.80425677    0.00000000
                                      D - G
                                                     0        0.0000010        0.01149631    0.00000000
                                                     2        0.1200000       -0.04713561    0.00000000
                                                     2        0.1600000        0.10865096    0.00000000
                                                     2        0.2800000       -0.15816701    0.00000000
                                                     2        0.7000000        0.65478804    0.00000000
                                                     2        1.3000000       -1.73816624    0.00000000
                                      F - G
                                                     0        0.0000010        0.00481868    0.00000000
                                                     2        0.1200000       -0.04746842    0.00000000
                                                     2        0.1600000        0.09327889    0.00000000
                                                     2        0.4000000       -0.19693326    0.00000000
                                                     2        0.9000000        0.34938253    0.00000000
    6          8            8
                                      G and up 
                                                     0        0.0000010        0.00001165    0.00000000
                                                     2        0.1200000       -0.01744018    0.00000000
                                                     2        0.1400000        0.05401326    0.00000000
                                                     2        0.1800000       -0.08231208    0.00000000
                                                     2        0.2600000        0.11570222    0.00000000
                                                     2        0.4000000       -0.20630360    0.00000000
                                                     2        0.7000000        0.38074319    0.00000000
                                                     2        1.2000000       -0.17045091    0.00000000
                                                     2        2.0000000       -1.45433187    0.00000000
                                      S - G
                                                     0        0.0000010       -0.00117944    0.00000000
                                                     2        0.1400000        0.04368312    0.00000000
                                                     2        0.3000000       -0.33477926    0.00000000
                                                     2        0.6000000        1.52630657    0.00000000
                                                     2        1.5000000       -2.50804716    0.00000000
                                                     2        3.0000000        2.89751681    0.00000000
                                      P - G
                                                     0        0.0000010        0.06576007    0.00000000
                                                     2        0.1200000       -0.10329304    0.00000000
                                                     2        0.2000000        0.24891756    0.00000000
                                                     2        0.4000000       -0.50800022    0.00000000
                                                     2        0.9000000        0.81480796    0.00000000
                                      D - G
                                                     0        0.0000010       -0.14101855    0.00000000
                                                     2        0.1200000        0.22105937    0.00000000
                                                     2        0.1800000       -0.45814988    0.00000000
                                                     2        0.3000000        0.46029282    0.00000000
                                      F - G
                                                     0        0.0000010        0.07483044    0.00000000
                                                     2        0.1200000       -0.09134252    0.00000000
                                                     2        0.1400000        0.04125459    0.00000000
                                                     2        0.3000000        0.37914837    0.00000000
                                                     2        0.5000000       -0.86881279    0.00000000
    7          1            1
                                      F and up 
                                                     0        0.0000010       -0.00000699    0.00000000
                                                     2        0.1200000        0.00123686    0.00000000
                                                     2        0.1800000       -0.00752022    0.00000000
                                                     2        0.2600000        0.02503380    0.00000000
                                                     2        0.4000000       -0.08702670    0.00000000
                                                     2        0.6000000        0.30134159    0.00000000
                                                     2        0.8000000       -0.50204959    0.00000000
                                                     2        1.2000000        0.52208372    0.00000000
                                      S - F
                                                     0        0.0000010       -0.01618346    0.00000000
                                                     2        0.1200000       -0.07880581    0.00000000
                                                     2        0.1600000        0.32040539    0.00000000
                                                     2        0.2400000       -0.47500956    0.00000000
                                                     2        0.5000000        0.54013668    0.00000000
                                                     2        1.5000000       -1.40434292    0.00000000
                                                     2        3.0000000        1.46283806    0.00000000
                                      P - F
                                                     0        0.0000010        0.00612970    0.00000000
                                                     2        0.1200000        0.02254406    0.00000000
                                                     2        0.1800000       -0.13874529    0.00000000
                                                     2        0.3000000        0.38299049    0.00000000
                                                     2        0.5000000       -0.57923512    0.00000000
                                                     2        1.0000000        0.63021625    0.00000000
                                                     2        2.0000000       -0.79201034    0.00000000
                                      D - F
                                                     0        0.0000010       -0.00296226    0.00000000
                                                     2        0.1200000       -0.00547344    0.00000000
                                                     2        0.1400000        0.01837884    0.00000000
                                                     2        0.2400000       -0.05565704    0.00000000
                                                     2        0.4000000        0.15376597    0.00000000
                                                     2        0.8000000       -0.32464795    0.00000000
    8          1            1
                                      F and up 
                                                     0        0.0000010       -0.00000699    0.00000000
                                                     2        0.1200000        0.00123686    0.00000000
                                                     2        0.1800000       -0.00752022    0.00000000
                                                     2        0.2600000        0.02503380    0.00000000
                                                     2        0.4000000       -0.08702670    0.00000000
                                                     2        0.6000000        0.30134159    0.00000000
                                                     2        0.8000000       -0.50204959    0.00000000
                                                     2        1.2000000        0.52208372    0.00000000
                                      S - F
                                                     0        0.0000010       -0.01618346    0.00000000
                                                     2        0.1200000       -0.07880581    0.00000000
                                                     2        0.1600000        0.32040539    0.00000000
                                                     2        0.2400000       -0.47500956    0.00000000
                                                     2        0.5000000        0.54013668    0.00000000
                                                     2        1.5000000       -1.40434292    0.00000000
                                                     2        3.0000000        1.46283806    0.00000000
                                      P - F
                                                     0        0.0000010        0.00612970    0.00000000
                                                     2        0.1200000        0.02254406    0.00000000
                                                     2        0.1800000       -0.13874529    0.00000000
                                                     2        0.3000000        0.38299049    0.00000000
                                                     2        0.5000000       -0.57923512    0.00000000
                                                     2        1.0000000        0.63021625    0.00000000
                                                     2        2.0000000       -0.79201034    0.00000000
                                      D - F
                                                     0        0.0000010       -0.00296226    0.00000000
                                                     2        0.1200000       -0.00547344    0.00000000
                                                     2        0.1400000        0.01837884    0.00000000
                                                     2        0.2400000       -0.05565704    0.00000000
                                                     2        0.4000000        0.15376597    0.00000000
                                                     2        0.8000000       -0.32464795    0.00000000
    9          1            1
                                      F and up 
                                                     0        0.0000010       -0.00000699    0.00000000
                                                     2        0.1200000        0.00123686    0.00000000
                                                     2        0.1800000       -0.00752022    0.00000000
                                                     2        0.2600000        0.02503380    0.00000000
                                                     2        0.4000000       -0.08702670    0.00000000
                                                     2        0.6000000        0.30134159    0.00000000
                                                     2        0.8000000       -0.50204959    0.00000000
                                                     2        1.2000000        0.52208372    0.00000000
                                      S - F
                                                     0        0.0000010       -0.01618346    0.00000000
                                                     2        0.1200000       -0.07880581    0.00000000
                                                     2        0.1600000        0.32040539    0.00000000
                                                     2        0.2400000       -0.47500956    0.00000000
                                                     2        0.5000000        0.54013668    0.00000000
                                                     2        1.5000000       -1.40434292    0.00000000
                                                     2        3.0000000        1.46283806    0.00000000
                                      P - F
                                                     0        0.0000010        0.00612970    0.00000000
                                                     2        0.1200000        0.02254406    0.00000000
                                                     2        0.1800000       -0.13874529    0.00000000
                                                     2        0.3000000        0.38299049    0.00000000
                                                     2        0.5000000       -0.57923512    0.00000000
                                                     2        1.0000000        0.63021625    0.00000000
                                                     2        2.0000000       -0.79201034    0.00000000
                                      D - F
                                                     0        0.0000010       -0.00296226    0.00000000
                                                     2        0.1200000       -0.00547344    0.00000000
                                                     2        0.1400000        0.01837884    0.00000000
                                                     2        0.2400000       -0.05565704    0.00000000
                                                     2        0.4000000        0.15376597    0.00000000
                                                     2        0.8000000       -0.32464795    0.00000000
   10          1            1
                                      F and up 
                                                     0        0.0000010       -0.00000699    0.00000000
                                                     2        0.1200000        0.00123686    0.00000000
                                                     2        0.1800000       -0.00752022    0.00000000
                                                     2        0.2600000        0.02503380    0.00000000
                                                     2        0.4000000       -0.08702670    0.00000000
                                                     2        0.6000000        0.30134159    0.00000000
                                                     2        0.8000000       -0.50204959    0.00000000
                                                     2        1.2000000        0.52208372    0.00000000
                                      S - F
                                                     0        0.0000010       -0.01618346    0.00000000
                                                     2        0.1200000       -0.07880581    0.00000000
                                                     2        0.1600000        0.32040539    0.00000000
                                                     2        0.2400000       -0.47500956    0.00000000
                                                     2        0.5000000        0.54013668    0.00000000
                                                     2        1.5000000       -1.40434292    0.00000000
                                                     2        3.0000000        1.46283806    0.00000000
                                      P - F
                                                     0        0.0000010        0.00612970    0.00000000
                                                     2        0.1200000        0.02254406    0.00000000
                                                     2        0.1800000       -0.13874529    0.00000000
                                                     2        0.3000000        0.38299049    0.00000000
                                                     2        0.5000000       -0.57923512    0.00000000
                                                     2        1.0000000        0.63021625    0.00000000
                                                     2        2.0000000       -0.79201034    0.00000000
                                      D - F
                                                     0        0.0000010       -0.00296226    0.00000000
                                                     2        0.1200000       -0.00547344    0.00000000
                                                     2        0.1400000        0.01837884    0.00000000
                                                     2        0.2400000       -0.05565704    0.00000000
                                                     2        0.4000000        0.15376597    0.00000000
                                                     2        0.8000000       -0.32464795    0.00000000
   11          1            1
                                      F and up 
                                                     0        0.0000010       -0.00000699    0.00000000
                                                     2        0.1200000        0.00123686    0.00000000
                                                     2        0.1800000       -0.00752022    0.00000000
                                                     2        0.2600000        0.02503380    0.00000000
                                                     2        0.4000000       -0.08702670    0.00000000
                                                     2        0.6000000        0.30134159    0.00000000
                                                     2        0.8000000       -0.50204959    0.00000000
                                                     2        1.2000000        0.52208372    0.00000000
                                      S - F
                                                     0        0.0000010       -0.01618346    0.00000000
                                                     2        0.1200000       -0.07880581    0.00000000
                                                     2        0.1600000        0.32040539    0.00000000
                                                     2        0.2400000       -0.47500956    0.00000000
                                                     2        0.5000000        0.54013668    0.00000000
                                                     2        1.5000000       -1.40434292    0.00000000
                                                     2        3.0000000        1.46283806    0.00000000
                                      P - F
                                                     0        0.0000010        0.00612970    0.00000000
                                                     2        0.1200000        0.02254406    0.00000000
                                                     2        0.1800000       -0.13874529    0.00000000
                                                     2        0.3000000        0.38299049    0.00000000
                                                     2        0.5000000       -0.57923512    0.00000000
                                                     2        1.0000000        0.63021625    0.00000000
                                                     2        2.0000000       -0.79201034    0.00000000
                                      D - F
                                                     0        0.0000010       -0.00296226    0.00000000
                                                     2        0.1200000       -0.00547344    0.00000000
                                                     2        0.1400000        0.01837884    0.00000000
                                                     2        0.2400000       -0.05565704    0.00000000
                                                     2        0.4000000        0.15376597    0.00000000
                                                     2        0.8000000       -0.32464795    0.00000000
   12          1            1
                                      F and up 
                                                     0        0.0000010       -0.00000699    0.00000000
                                                     2        0.1200000        0.00123686    0.00000000
                                                     2        0.1800000       -0.00752022    0.00000000
                                                     2        0.2600000        0.02503380    0.00000000
                                                     2        0.4000000       -0.08702670    0.00000000
                                                     2        0.6000000        0.30134159    0.00000000
                                                     2        0.8000000       -0.50204959    0.00000000
                                                     2        1.2000000        0.52208372    0.00000000
                                      S - F
                                                     0        0.0000010       -0.01618346    0.00000000
                                                     2        0.1200000       -0.07880581    0.00000000
                                                     2        0.1600000        0.32040539    0.00000000
                                                     2        0.2400000       -0.47500956    0.00000000
                                                     2        0.5000000        0.54013668    0.00000000
                                                     2        1.5000000       -1.40434292    0.00000000
                                                     2        3.0000000        1.46283806    0.00000000
                                      P - F
                                                     0        0.0000010        0.00612970    0.00000000
                                                     2        0.1200000        0.02254406    0.00000000
                                                     2        0.1800000       -0.13874529    0.00000000
                                                     2        0.3000000        0.38299049    0.00000000
                                                     2        0.5000000       -0.57923512    0.00000000
                                                     2        1.0000000        0.63021625    0.00000000
                                                     2        2.0000000       -0.79201034    0.00000000
                                      D - F
                                                     0        0.0000010       -0.00296226    0.00000000
                                                     2        0.1200000       -0.00547344    0.00000000
                                                     2        0.1400000        0.01837884    0.00000000
                                                     2        0.2400000       -0.05565704    0.00000000
                                                     2        0.4000000        0.15376597    0.00000000
                                                     2        0.8000000       -0.32464795    0.00000000
   13          1            1
                                      F and up 
                                                     0        0.0000010       -0.00000699    0.00000000
                                                     2        0.1200000        0.00123686    0.00000000
                                                     2        0.1800000       -0.00752022    0.00000000
                                                     2        0.2600000        0.02503380    0.00000000
                                                     2        0.4000000       -0.08702670    0.00000000
                                                     2        0.6000000        0.30134159    0.00000000
                                                     2        0.8000000       -0.50204959    0.00000000
                                                     2        1.2000000        0.52208372    0.00000000
                                      S - F
                                                     0        0.0000010       -0.01618346    0.00000000
                                                     2        0.1200000       -0.07880581    0.00000000
                                                     2        0.1600000        0.32040539    0.00000000
                                                     2        0.2400000       -0.47500956    0.00000000
                                                     2        0.5000000        0.54013668    0.00000000
                                                     2        1.5000000       -1.40434292    0.00000000
                                                     2        3.0000000        1.46283806    0.00000000
                                      P - F
                                                     0        0.0000010        0.00612970    0.00000000
                                                     2        0.1200000        0.02254406    0.00000000
                                                     2        0.1800000       -0.13874529    0.00000000
                                                     2        0.3000000        0.38299049    0.00000000
                                                     2        0.5000000       -0.57923512    0.00000000
                                                     2        1.0000000        0.63021625    0.00000000
                                                     2        2.0000000       -0.79201034    0.00000000
                                      D - F
                                                     0        0.0000010       -0.00296226    0.00000000
                                                     2        0.1200000       -0.00547344    0.00000000
                                                     2        0.1400000        0.01837884    0.00000000
                                                     2        0.2400000       -0.05565704    0.00000000
                                                     2        0.4000000        0.15376597    0.00000000
                                                     2        0.8000000       -0.32464795    0.00000000
   14          1            1
                                      F and up 
                                                     0        0.0000010       -0.00000699    0.00000000
                                                     2        0.1200000        0.00123686    0.00000000
                                                     2        0.1800000       -0.00752022    0.00000000
                                                     2        0.2600000        0.02503380    0.00000000
                                                     2        0.4000000       -0.08702670    0.00000000
                                                     2        0.6000000        0.30134159    0.00000000
                                                     2        0.8000000       -0.50204959    0.00000000
                                                     2        1.2000000        0.52208372    0.00000000
                                      S - F
                                                     0        0.0000010       -0.01618346    0.00000000
                                                     2        0.1200000       -0.07880581    0.00000000
                                                     2        0.1600000        0.32040539    0.00000000
                                                     2        0.2400000       -0.47500956    0.00000000
                                                     2        0.5000000        0.54013668    0.00000000
                                                     2        1.5000000       -1.40434292    0.00000000
                                                     2        3.0000000        1.46283806    0.00000000
                                      P - F
                                                     0        0.0000010        0.00612970    0.00000000
                                                     2        0.1200000        0.02254406    0.00000000
                                                     2        0.1800000       -0.13874529    0.00000000
                                                     2        0.3000000        0.38299049    0.00000000
                                                     2        0.5000000       -0.57923512    0.00000000
                                                     2        1.0000000        0.63021625    0.00000000
                                                     2        2.0000000       -0.79201034    0.00000000
                                      D - F
                                                     0        0.0000010       -0.00296226    0.00000000
                                                     2        0.1200000       -0.00547344    0.00000000
                                                     2        0.1400000        0.01837884    0.00000000
                                                     2        0.2400000       -0.05565704    0.00000000
                                                     2        0.4000000        0.15376597    0.00000000
                                                     2        0.8000000       -0.32464795    0.00000000
 ======================================================================================================
   210 basis functions,   346 primitive gaussians,   222 cartesian basis functions
    23 alpha electrons       23 beta electrons
       nuclear repulsion energy       198.6962221514 Hartrees.
 NAtoms=   14 NActive=   14 NUniq=   14 SFac= 1.00D+00 NAtFMM=   60 NAOKFM=F Big=F
   1 Symmetry operations used in ECPInt.
 ECPInt:  NShTT=    4465 NPrTT=   19209 LenC2=    4448 LenP2D=   14897.
 LDataN:  DoStor=T MaxTD1= 6 Len=  172
 Initial guess from the checkpoint file:  "Grambow2020_b97d3_007032_reverse_mol2.chk"
 B after Tr=     0.056857   -0.659605    0.015009
         Rot=   -0.073970   -0.094277    0.964175    0.236659 Ang=-188.48 deg.
 >>>>>>>>>> Convergence criterion not met.
 SCF Done:  E(RHF) =  -268.866849826     A.U. after    2 cycles
            NFock=  1  Conv=0.59D-02     -V/T= 2.0006

 **********************************************************************

            Population analysis using the SCF Density.

 **********************************************************************

 Orbital symmetries:
       Occupied  (A) (A) (A) (A) (A) (A) (A) (A) (A) (A) (A) (A)
                 (A) (A) (A) (A) (A) (A) (A) (A) (A) (A) (A)
       Virtual   (A) (A) (A) (A) (A) (A) (A) (A) (A) (A) (A) (A)
                 (A) (A) (A) (A) (A) (A) (A) (A) (A) (A) (A) (A)
                 (A) (A) (A) (A) (A) (A) (A) (A) (A) (A) (A) (A)
                 (A) (A) (A) (A) (A) (A) (A) (A) (A) (A) (A) (A)
                 (A) (A) (A) (A) (A) (A) (A) (A) (A) (A) (A) (A)
                 (A) (A) (A) (A) (A) (A) (A) (A) (A) (A) (A) (A)
                 (A) (A) (A) (A) (A) (A) (A) (A) (A) (A) (A) (A)
                 (A) (A) (A) (A) (A) (A) (A) (A) (A) (A) (A) (A)
                 (A) (A) (A) (A) (A) (A) (A) (A) (A) (A) (A) (A)
                 (A) (A) (A) (A) (A) (A) (A) (A) (A) (A) (A) (A)
                 (A) (A) (A) (A) (A) (A) (A) (A) (A) (A) (A) (A)
                 (A) (A) (A) (A) (A) (A) (A) (A) (A) (A) (A) (A)
                 (A) (A) (A) (A) (A) (A) (A) (A) (A) (A) (A) (A)
                 (A) (A) (A) (A) (A) (A) (A) (A) (A) (A) (A) (A)
                 (A) (A) (A) (A) (A) (A) (A) (A) (A) (A) (A) (A)
                 (A) (A) (A) (A) (A) (A) (A)
 The electronic state is 1-A.
 Alpha  occ. eigenvalues --  -20.62391 -11.29213 -11.26853 -11.26191 -11.25648
 Alpha  occ. eigenvalues --  -11.22887  -1.37829  -1.04658  -1.03374  -0.94055
 Alpha  occ. eigenvalues --   -0.81124  -0.79153  -0.66764  -0.66171  -0.62113
 Alpha  occ. eigenvalues --   -0.61480  -0.60902  -0.57859  -0.57533  -0.52592
 Alpha  occ. eigenvalues --   -0.40256  -0.36671  -0.35055
 Alpha virt. eigenvalues --    0.03301   0.04074   0.04752   0.05201   0.06159
 Alpha virt. eigenvalues --    0.06747   0.07166   0.07808   0.09293   0.11381
 Alpha virt. eigenvalues --    0.11848   0.12850   0.13975   0.14089   0.14964
 Alpha virt. eigenvalues --    0.16058   0.16121   0.16672   0.17116   0.17335
 Alpha virt. eigenvalues --    0.18446   0.19147   0.19806   0.19896   0.20545
 Alpha virt. eigenvalues --    0.21596   0.22805   0.24624   0.24734   0.26687
 Alpha virt. eigenvalues --    0.27818   0.28185   0.29017   0.29879   0.30662
 Alpha virt. eigenvalues --    0.30961   0.31977   0.33720   0.34285   0.36775
 Alpha virt. eigenvalues --    0.37582   0.38822   0.39856   0.41429   0.41750
 Alpha virt. eigenvalues --    0.43584   0.43732   0.44198   0.44649   0.45286
 Alpha virt. eigenvalues --    0.46902   0.47297   0.49101   0.49651   0.50477
 Alpha virt. eigenvalues --    0.51335   0.52284   0.53310   0.54162   0.55574
 Alpha virt. eigenvalues --    0.56146   0.57797   0.58105   0.60093   0.60463
 Alpha virt. eigenvalues --    0.61211   0.61346   0.61651   0.63328   0.64121
 Alpha virt. eigenvalues --    0.64849   0.65302   0.66837   0.66996   0.68547
 Alpha virt. eigenvalues --    0.69385   0.71287   0.72111   0.73326   0.73672
 Alpha virt. eigenvalues --    0.75028   0.75880   0.78089   0.78955   0.79121
 Alpha virt. eigenvalues --    0.80668   0.81405   0.83434   0.84500   0.87353
 Alpha virt. eigenvalues --    0.88394   0.89298   0.92000   0.96041   0.97363
 Alpha virt. eigenvalues --    1.01051   1.03415   1.06210   1.07141   1.09569
 Alpha virt. eigenvalues --    1.12207   1.14122   1.15548   1.17210   1.22115
 Alpha virt. eigenvalues --    1.22903   1.23180   1.26386   1.26684   1.28480
 Alpha virt. eigenvalues --    1.29294   1.32052   1.35602   1.37029   1.40304
 Alpha virt. eigenvalues --    1.44820   1.47188   1.53016   1.56489   1.58062
 Alpha virt. eigenvalues --    1.59204   1.61072   1.62929   1.64650   1.67305
 Alpha virt. eigenvalues --    1.68186   1.70975   1.73298   1.75901   1.77224
 Alpha virt. eigenvalues --    1.82078   1.83109   1.83883   1.88758   1.88861
 Alpha virt. eigenvalues --    1.91135   1.92549   1.95209   1.96019   1.97509
 Alpha virt. eigenvalues --    1.98861   2.01397   2.02717   2.04732   2.08704
 Alpha virt. eigenvalues --    2.10116   2.12266   2.13528   2.13946   2.14989
 Alpha virt. eigenvalues --    2.15883   2.18822   2.22934   2.27383   2.27994
 Alpha virt. eigenvalues --    2.30093   2.36046   2.39003   2.40549   2.42230
 Alpha virt. eigenvalues --    2.48794   2.49908   2.54968   2.58600   2.61108
 Alpha virt. eigenvalues --    2.65043   2.68283   2.76667   2.79101   2.81364
 Alpha virt. eigenvalues --    2.83253   2.85832   2.88012   2.89981   2.96971
 Alpha virt. eigenvalues --    2.99194   3.05783   3.26916   3.38101   3.41100
 Alpha virt. eigenvalues --    3.43069   3.56654   3.58051   3.68250   3.69102
 Alpha virt. eigenvalues --    4.15957   4.21429
          Condensed to atoms (all electrons):
 Mulliken charges:
               1
     1  C    0.153778
     2  C   -0.023975
     3  C   -0.056276
     4  C    0.561687
     5  C    0.491634
     6  O   -0.422449
     7  H    0.056633
     8  H    0.072320
     9  H    0.051931
    10  H   -0.273370
    11  H   -0.263090
    12  H   -0.267698
    13  H   -0.270289
    14  H    0.189165
 Sum of Mulliken charges =  -0.00000
 Mulliken charges with hydrogens summed into heavy atoms:
               1
     1  C    0.334662
     2  C   -0.023975
     3  C   -0.056276
     4  C    0.025226
     5  C   -0.046353
     6  O   -0.233284
 Electronic spatial extent (au):  <R**2>=            952.1414
 Charge=             -0.0000 electrons
 Dipole moment (field-independent basis, Debye):
    X=              0.9840    Y=             -2.1444    Z=             -0.0335  Tot=              2.3596

 Test job not archived.
 1\1\GINC-SE455\SP\RHF\Aug-CC-pVDZ\C5H8O1\OHZDE\09-Apr-2025\0\\#t hf au
 g-cc-pvdz iop(5/13=1,5/36=2,99/5=2) pseudo=read geom=check guess=(read
 ,tcheck) scf=(maxcycle=1)\\title\\0,1\C,0,2.83411622,0.26621073,-0.472
 42411\C,0,1.56020789,0.76135071,0.05214429\C,0,0.51026238,1.18385865,0
 .50463043\C,0,-1.53258158,-1.13817609,-0.20479641\C,0,-2.68349596,-0.6
 0094663,0.23562311\O,0,-0.60725494,1.67457279,1.00138561\H,0,3.5973951
 7,0.19309083,0.31805143\H,0,2.71703845,-0.7382914,-0.90854982\H,0,3.23
 23569,0.92234747,-1.26205277\H,0,-1.14415803,-0.92677099,-1.20102566\H
 ,0,-0.92852855,-1.79413217,0.42263014\H,0,-3.29507741,0.04203865,-0.40
 020057\H,0,-3.0758654,-0.82282155,1.22972336\H,0,-1.32031615,1.004865,
 0.83541497\\Version=ES64L-G16RevC.01\State=1-A\HF=-268.8668498\RMSD=5.
 905e-03\Dipole=-0.2497199,-0.8239432,-0.3472739\Quadrupole=4.4606933,-
 3.5185149,-0.9421784,-0.9991785,-1.6930245,-1.4241085\PG=C01 [X(C5H8O1
 )]\\@


 ... UNTIL SCIENCE IS MIXED WITH EMOTION AND APPEALS TO THE HEART AND
 IMAGINATION , IT IS LIKE DEAD INORGANIC MATTER; AND WHEN IT IS SO MIXED
 AND SO TRANSFORMED IT IS LITERATURE.

                                  -- JOHN BURROUGHS
 Job cpu time:       0 days  0 hours  0 minutes 42.4 seconds.
 Elapsed time:       0 days  0 hours  0 minutes  3.4 seconds.
 File lengths (MBytes):  RWF=     10 Int=      0 D2E=      0 Chk=      6 Scr=      1
 Normal termination of Gaussian 16 at Wed Apr  9 03:15:04 2025.
