 Entering Gaussian System, Link 0=g16
 Input=Grambow2020_wb97xd3_008238_reverse_mol1.gjf
 Output=Grambow2020_wb97xd3_008238_reverse_mol1.log
 Initial command:
 /arc/software/Gaussian/g16.c01/l1.exe "/tmp/slurm/4868030/Gau-2270337.inp" -scrdir="/tmp/slurm/4868030/"
 Entering Link 1 = /arc/software/Gaussian/g16.c01/l1.exe PID=   2270338.
  
 Copyright (c) 1988-2019, Gaussian, Inc.  All Rights Reserved.
  
 This is part of the Gaussian(R) 16 program.  It is based on
 the Gaussian(R) 09 system (copyright 2009, Gaussian, Inc.),
 the Gaussian(R) 03 system (copyright 2003, Gaussian, Inc.),
 the Gaussian(R) 98 system (copyright 1998, Gaussian, Inc.),
 the Gaussian(R) 94 system (copyright 1995, Gaussian, Inc.),
 the Gaussian 92(TM) system (copyright 1992, Gaussian, Inc.),
 the Gaussian 90(TM) system (copyright 1990, Gaussian, Inc.),
 the Gaussian 88(TM) system (copyright 1988, Gaussian, Inc.),
 the Gaussian 86(TM) system (copyright 1986, Carnegie Mellon
 University), and the Gaussian 82(TM) system (copyright 1983,
 Carnegie Mellon University). Gaussian is a federally registered
 trademark of Gaussian, Inc.
  
 This software contains proprietary and confidential information,
 including trade secrets, belonging to Gaussian, Inc.
  
 This software is provided under written license and may be
 used, copied, transmitted, or stored only in accord with that
 written license.
  
 The following legend is applicable only to US Government
 contracts under FAR:
  
                    RESTRICTED RIGHTS LEGEND
  
 Use, reproduction and disclosure by the US Government is
 subject to restrictions as set forth in subparagraphs (a)
 and (c) of the Commercial Computer Software - Restricted
 Rights clause in FAR 52.227-19.
  
 Gaussian, Inc.
 340 Quinnipiac St., Bldg. 40, Wallingford CT 06492
  
  
 ---------------------------------------------------------------
 Warning -- This program may not be used in any manner that
 competes with the business of Gaussian, Inc. or will provide
 assistance to any competitor of Gaussian, Inc.  The licensee
 of this program is prohibited from giving any competitor of
 Gaussian, Inc. access to this program.  By using this program,
 the user acknowledges that Gaussian, Inc. is engaged in the
 business of creating and licensing software in the field of
 computational chemistry and represents and warrants to the
 licensee that it is not a competitor of Gaussian, Inc. and that
 it will not use this program in any manner prohibited above.
 ---------------------------------------------------------------
  

 Cite this work as:
 Gaussian 16, Revision C.01,
 M. J. Frisch, G. W. Trucks, H. B. Schlegel, G. E. Scuseria, 
 M. A. Robb, J. R. Cheeseman, G. Scalmani, V. Barone, 
 G. A. Petersson, H. Nakatsuji, X. Li, M. Caricato, A. V. Marenich, 
 J. Bloino, B. G. Janesko, R. Gomperts, B. Mennucci, H. P. Hratchian, 
 J. V. Ortiz, A. F. Izmaylov, J. L. Sonnenberg, D. Williams-Young, 
 F. Ding, F. Lipparini, F. Egidi, J. Goings, B. Peng, A. Petrone, 
 T. Henderson, D. Ranasinghe, V. G. Zakrzewski, J. Gao, N. Rega, 
 G. Zheng, W. Liang, M. Hada, M. Ehara, K. Toyota, R. Fukuda, 
 J. Hasegawa, M. Ishida, T. Nakajima, Y. Honda, O. Kitao, H. Nakai, 
 T. Vreven, K. Throssell, J. A. Montgomery, Jr., J. E. Peralta, 
 F. Ogliaro, M. J. Bearpark, J. J. Heyd, E. N. Brothers, K. N. Kudin, 
 V. N. Staroverov, T. A. Keith, R. Kobayashi, J. Normand, 
 K. Raghavachari, A. P. Rendell, J. C. Burant, S. S. Iyengar, 
 J. Tomasi, M. Cossi, J. M. Millam, M. Klene, C. Adamo, R. Cammi, 
 J. W. Ochterski, R. L. Martin, K. Morokuma, O. Farkas, 
 J. B. Foresman, and D. J. Fox, Gaussian, Inc., Wallingford CT, 2019.
 
 ******************************************
 Gaussian 16:  ES64L-G16RevC.01  3-Jul-2019
                 9-Apr-2025 
 ******************************************
 %nprocs=16
 Will use up to   16 processors via shared memory.
 %mem=30GB
 %chk=Grambow2020_wb97xd3_008238_reverse_mol1.chk
 ----------------------------------------------------------------------
 #t hf aug-cc-pvdz symm=none int=(grid=ultrafine) guess=(read,tcheck) s
 table=(opt,rrhf)
 ----------------------------------------------------------------------
 -----
 title
 -----
 Symbolic Z-matrix:
 Charge =  0 Multiplicity = 1
 C                    -1.81258  -0.17309  -1.0068 
 C                    -1.09142   0.84473  -0.12991 
 C                    -0.37814   0.23249   1.06082 
 N                     1.83313  -0.26605   1.96566 
 C                     1.31156   0.40414   0.91874 
 O                     1.60375   1.57597   0.58368 
 C                     1.59152  -0.62536  -0.3572 
 H                    -2.31133   0.32078  -1.84212 
 H                    -1.12535  -0.91176  -1.42469 
 H                    -2.57418  -0.71552  -0.44177 
 H                    -0.37169   1.4309   -0.70649 
 H                    -1.81098   1.57537   0.24792 
 H                    -0.56314   0.77227   1.98432 
 H                    -0.60276  -0.82344   1.20198 
 H                     1.4121   -1.19276   1.99175 
 H                     1.10039  -0.13383  -1.18999 
 H                     1.20601  -1.62521  -0.18164 
 H                     2.66753  -0.6274   -0.49221 
 
                    Distance matrix (angstroms):
                    1          2          3          4          5
     1  C    0.000000
     2  C    1.524784   0.000000
     3  C    2.548953   1.517057   0.000000
     4  N    4.704820   3.765404   2.440693   0.000000
     5  C    3.714979   2.658587   1.704320   1.348048   0.000000
     6  O    4.154532   2.882338   2.441407   2.314194   1.253328
     7  C    3.494909   3.067735   2.574147   2.362869   1.663205
     8  H    1.091069   2.166647   3.488853   5.658634   4.555721
     9  H    1.092035   2.182403   2.836444   4.545773   3.627915
    10  H    1.092483   2.174909   2.824737   5.042043   4.266566
    11  H    2.176954   1.092718   2.135322   3.857623   2.555177
    12  H    2.152083   1.092870   2.125368   4.429564   3.401771
    13  H    3.376620   2.180436   1.085557   2.611627   2.187576
    14  H    2.601016   2.189869   1.088751   2.612946   2.291678
    15  H    4.519902   3.862698   2.470407   1.018209   1.926536
    16  H    2.918989   2.624001   2.717788   3.242296   2.186482
    17  H    3.449839   3.373647   2.739396   2.617537   2.310892
    18  H    4.532387   4.053162   3.525248   2.620666   2.212122
                    6          7          8          9         10
     6  O    0.000000
     7  C    2.394002   0.000000
     8  H    4.773667   4.281640   0.000000
     9  H    4.203616   2.933082   1.760672   0.000000
    10  H    4.874178   4.167538   1.761805   1.761744   0.000000
    11  H    2.363888   2.864337   2.506837   2.563573   3.086769
    12  H    3.431204   4.097124   2.488495   3.074665   2.511241
    13  H    2.702436   3.475435   4.231029   3.843615   3.484783
    14  H    3.317855   2.699102   3.673550   2.679604   2.569059
    15  H    3.112112   2.423157   5.554573   4.264934   4.694703
    16  H    2.514490   1.084593   3.503119   2.369437   3.794827
    17  H    3.315339   1.085887   4.349229   2.736684   3.896803
    18  H    2.672822   1.084446   5.245035   3.916165   5.242695
                   11         12         13         14         15
    11  H    0.000000
    12  H    1.733008   0.000000
    13  H    2.776846   2.284109   0.000000
    14  H    2.962716   2.850321   1.777615   0.000000
    15  H    4.164852   4.592577   2.786214   2.195405   0.000000
    16  H    2.202089   3.669478   3.696563   3.016257   3.367778
    17  H    3.479146   4.419335   3.683639   2.414309   2.225554
    18  H    3.676874   5.045500   4.304589   3.688292   2.840028
                   16         17         18
    16  H    0.000000
    17  H    1.803373   0.000000
    18  H    1.785055   1.796698   0.000000
 Symmetry turned off by external request.
 Rotational constants (GHZ):           4.3295188           1.6885421           1.6269740
   260 basis functions,   422 primitive gaussians,   274 cartesian basis functions
    28 alpha electrons       28 beta electrons
       nuclear repulsion energy       320.6522534808 Hartrees.
 NAtoms=   18 NActive=   18 NUniq=   18 SFac= 1.00D+00 NAtFMM=   60 NAOKFM=F Big=F
 ExpMin= 2.97D-02 ExpMax= 1.17D+04 ExpMxC= 4.01D+02 IAcc=3 IRadAn=         5 AccDes= 0.00D+00
 Harris functional with IExCor=  205 and IRadAn=       5 diagonalized for initial guess.
 HarFok:  IExCor=  205 AccDes= 0.00D+00 IRadAn=         5 IDoV= 1 UseB2=F ITyADJ=14
 ICtDFT=  3500011 ScaDFX=  1.000000  1.000000  1.000000  1.000000
 FoFCou: FMM=F IPFlag=           0 FMFlag=      100000 FMFlg1=           0
         NFxFlg=           0 DoJE=T BraDBF=F KetDBF=T FulRan=T
         wScrn=  0.000000 ICntrl=       500 IOpCl=  0 I1Cent=   200000004 NGrid=           0
         NMat0=    1 NMatS0=      1 NMatT0=    0 NMatD0=    1 NMtDS0=    0 NMtDT0=    0
 Symmetry not used in FoFCou.
 SCF Done:  E(RHF) =  -324.890476797     A.U. after   18 cycles
            NFock= 18  Conv=0.68D-08     -V/T= 2.0010

 **********************************************************************

            Population analysis using the SCF Density.

 **********************************************************************

 Alpha  occ. eigenvalues --  -20.48012 -15.64030 -11.33284 -11.29576 -11.29560
 Alpha  occ. eigenvalues --  -11.24169 -11.23694  -1.34349  -1.20393  -1.08386
 Alpha  occ. eigenvalues --   -0.98712  -0.95416  -0.83076  -0.76900  -0.68615
 Alpha  occ. eigenvalues --   -0.64704  -0.62871  -0.62487  -0.59525  -0.58705
 Alpha  occ. eigenvalues --   -0.56614  -0.53996  -0.52561  -0.50470  -0.48734
 Alpha  occ. eigenvalues --   -0.45772  -0.37629  -0.34514
 Alpha virt. eigenvalues --   -0.02703   0.02555   0.03821   0.04340   0.05012
 Alpha virt. eigenvalues --    0.05911   0.06314   0.06394   0.07122   0.08686
 Alpha virt. eigenvalues --    0.09109   0.09383   0.11699   0.13312   0.13497
 Alpha virt. eigenvalues --    0.14173   0.14548   0.15102   0.15648   0.16113
 Alpha virt. eigenvalues --    0.16973   0.17076   0.17844   0.18187   0.18700
 Alpha virt. eigenvalues --    0.18846   0.19049   0.20827   0.21878   0.22243
 Alpha virt. eigenvalues --    0.23037   0.23448   0.25128   0.26046   0.26612
 Alpha virt. eigenvalues --    0.28899   0.30677   0.31446   0.31886   0.32521
 Alpha virt. eigenvalues --    0.33029   0.34084   0.35039   0.36677   0.36941
 Alpha virt. eigenvalues --    0.37776   0.38541   0.39111   0.39773   0.40899
 Alpha virt. eigenvalues --    0.42142   0.42268   0.43552   0.44318   0.44590
 Alpha virt. eigenvalues --    0.44956   0.45823   0.46758   0.46880   0.48064
 Alpha virt. eigenvalues --    0.48646   0.49418   0.50108   0.50735   0.52199
 Alpha virt. eigenvalues --    0.53655   0.54804   0.55416   0.56020   0.56817
 Alpha virt. eigenvalues --    0.57948   0.59198   0.59923   0.60648   0.61154
 Alpha virt. eigenvalues --    0.61836   0.63168   0.63789   0.64272   0.64849
 Alpha virt. eigenvalues --    0.65920   0.66708   0.68144   0.68742   0.68822
 Alpha virt. eigenvalues --    0.70183   0.71337   0.71947   0.72689   0.73801
 Alpha virt. eigenvalues --    0.74928   0.76318   0.76857   0.77528   0.79051
 Alpha virt. eigenvalues --    0.79770   0.81146   0.81796   0.82566   0.83050
 Alpha virt. eigenvalues --    0.84215   0.85035   0.85942   0.86699   0.86897
 Alpha virt. eigenvalues --    0.89630   0.90548   0.91681   0.93501   0.94704
 Alpha virt. eigenvalues --    0.95168   0.96841   0.98602   1.00168   1.01052
 Alpha virt. eigenvalues --    1.04038   1.06431   1.07393   1.08407   1.10003
 Alpha virt. eigenvalues --    1.10431   1.12769   1.13941   1.18359   1.19825
 Alpha virt. eigenvalues --    1.21614   1.23325   1.26028   1.28180   1.30625
 Alpha virt. eigenvalues --    1.31948   1.33576   1.35757   1.37605   1.39306
 Alpha virt. eigenvalues --    1.40627   1.41412   1.44710   1.46494   1.48156
 Alpha virt. eigenvalues --    1.51132   1.54015   1.57411   1.59468   1.60857
 Alpha virt. eigenvalues --    1.62190   1.65087   1.67552   1.70523   1.72373
 Alpha virt. eigenvalues --    1.75344   1.76221   1.78041   1.79600   1.83805
 Alpha virt. eigenvalues --    1.85269   1.86768   1.88670   1.89061   1.91323
 Alpha virt. eigenvalues --    1.92841   1.94299   1.96541   1.98374   1.98727
 Alpha virt. eigenvalues --    1.99973   2.00821   2.04718   2.07414   2.10538
 Alpha virt. eigenvalues --    2.11814   2.13462   2.15753   2.16041   2.16810
 Alpha virt. eigenvalues --    2.19751   2.20441   2.22127   2.23538   2.26969
 Alpha virt. eigenvalues --    2.27762   2.29644   2.31806   2.32591   2.34210
 Alpha virt. eigenvalues --    2.37644   2.37850   2.40569   2.43144   2.45273
 Alpha virt. eigenvalues --    2.48540   2.50069   2.50743   2.54084   2.57162
 Alpha virt. eigenvalues --    2.57885   2.59401   2.61101   2.64623   2.65906
 Alpha virt. eigenvalues --    2.67831   2.68649   2.72315   2.74311   2.79173
 Alpha virt. eigenvalues --    2.80899   2.83881   2.85094   2.87816   2.91259
 Alpha virt. eigenvalues --    2.92569   2.93174   3.01260   3.02994   3.04827
 Alpha virt. eigenvalues --    3.05870   3.06919   3.12940   3.15346   3.19704
 Alpha virt. eigenvalues --    3.23381   3.24975   3.31830   3.41111   3.55210
 Alpha virt. eigenvalues --    3.69095   3.82242   3.92490   3.96543   3.96897
 Alpha virt. eigenvalues --    4.01367   4.25853
          Condensed to atoms (all electrons):
 Mulliken charges:
               1
     1  C    0.421156
     2  C    0.393224
     3  C    0.549437
     4  N   -0.458841
     5  C    0.417706
     6  O   -1.065892
     7  C    0.749165
     8  H   -0.102144
     9  H   -0.126126
    10  H   -0.067252
    11  H   -0.102527
    12  H   -0.133868
    13  H   -0.116617
    14  H   -0.304244
    15  H    0.163427
    16  H    0.008233
    17  H   -0.150832
    18  H   -0.074006
 Sum of Mulliken charges =  -0.00000
 Mulliken charges with hydrogens summed into heavy atoms:
               1
     1  C    0.125635
     2  C    0.156830
     3  C    0.128575
     4  N   -0.295414
     5  C    0.417706
     6  O   -1.065892
     7  C    0.532560
 Electronic spatial extent (au):  <R**2>=            938.5569
 Charge=             -0.0000 electrons
 Dipole moment (field-independent basis, Debye):
    X=             -3.2323    Y=             -4.8556    Z=             -0.9416  Tot=              5.9086
 NROrb=    260 NOA=    28 NOB=    28 NVA=   232 NVB=   232

 **** Warning!!: The largest alpha MO coefficient is  0.42918827D+02

    12 initial guesses have been made.
 Iteration     1 Dimension    12 NMult     0 NNew     12
 New state      1 was old state      2
 Iteration     2 Dimension    24 NMult    12 NNew     12
 Iteration     3 Dimension    27 NMult    24 NNew      3
 Iteration     4 Dimension    30 NMult    27 NNew      3
 Iteration     5 Dimension    33 NMult    30 NNew      3
 Iteration     6 Dimension    36 NMult    33 NNew      3
 Iteration     7 Dimension    39 NMult    36 NNew      3
 ***********************************************************************
 Stability analysis using <AA,BB:AA,BB> singles matrix:
 ***********************************************************************
 Ground to excited state transition densities written to RWF  633

 Eigenvectors of the stability matrix:
 
 Excited state symmetry could not be determined.
 Eigenvector   1:      Singlet-?Sym  Eigenvalue= 0.0730364  <S**2>=0.000
      26 -> 29        -0.14478
      27 -> 29         0.63123
 The wavefunction is stable under the perturbations considered.
 The wavefunction is already stable.

 **********************************************************************

            Population analysis using the SCF Density.

 **********************************************************************

 Alpha  occ. eigenvalues --  -20.48012 -15.64030 -11.33284 -11.29576 -11.29560
 Alpha  occ. eigenvalues --  -11.24169 -11.23694  -1.34349  -1.20393  -1.08386
 Alpha  occ. eigenvalues --   -0.98712  -0.95416  -0.83076  -0.76900  -0.68615
 Alpha  occ. eigenvalues --   -0.64704  -0.62871  -0.62487  -0.59525  -0.58705
 Alpha  occ. eigenvalues --   -0.56614  -0.53996  -0.52561  -0.50470  -0.48734
 Alpha  occ. eigenvalues --   -0.45772  -0.37629  -0.34514
 Alpha virt. eigenvalues --   -0.02703   0.02555   0.03821   0.04340   0.05012
 Alpha virt. eigenvalues --    0.05911   0.06314   0.06394   0.07122   0.08686
 Alpha virt. eigenvalues --    0.09109   0.09383   0.11699   0.13312   0.13497
 Alpha virt. eigenvalues --    0.14173   0.14548   0.15102   0.15648   0.16113
 Alpha virt. eigenvalues --    0.16973   0.17076   0.17844   0.18187   0.18700
 Alpha virt. eigenvalues --    0.18846   0.19049   0.20827   0.21878   0.22243
 Alpha virt. eigenvalues --    0.23037   0.23448   0.25128   0.26046   0.26612
 Alpha virt. eigenvalues --    0.28899   0.30677   0.31446   0.31886   0.32521
 Alpha virt. eigenvalues --    0.33029   0.34084   0.35039   0.36677   0.36941
 Alpha virt. eigenvalues --    0.37776   0.38541   0.39111   0.39773   0.40899
 Alpha virt. eigenvalues --    0.42142   0.42268   0.43552   0.44318   0.44590
 Alpha virt. eigenvalues --    0.44956   0.45823   0.46758   0.46880   0.48064
 Alpha virt. eigenvalues --    0.48646   0.49418   0.50108   0.50735   0.52199
 Alpha virt. eigenvalues --    0.53655   0.54804   0.55416   0.56020   0.56817
 Alpha virt. eigenvalues --    0.57948   0.59198   0.59923   0.60648   0.61154
 Alpha virt. eigenvalues --    0.61836   0.63168   0.63789   0.64272   0.64849
 Alpha virt. eigenvalues --    0.65920   0.66708   0.68144   0.68742   0.68822
 Alpha virt. eigenvalues --    0.70183   0.71337   0.71947   0.72689   0.73801
 Alpha virt. eigenvalues --    0.74928   0.76318   0.76857   0.77528   0.79051
 Alpha virt. eigenvalues --    0.79770   0.81146   0.81796   0.82566   0.83050
 Alpha virt. eigenvalues --    0.84215   0.85035   0.85942   0.86699   0.86897
 Alpha virt. eigenvalues --    0.89630   0.90548   0.91681   0.93501   0.94704
 Alpha virt. eigenvalues --    0.95168   0.96841   0.98602   1.00168   1.01052
 Alpha virt. eigenvalues --    1.04038   1.06431   1.07393   1.08407   1.10003
 Alpha virt. eigenvalues --    1.10431   1.12769   1.13941   1.18359   1.19825
 Alpha virt. eigenvalues --    1.21614   1.23325   1.26028   1.28180   1.30625
 Alpha virt. eigenvalues --    1.31948   1.33576   1.35757   1.37605   1.39306
 Alpha virt. eigenvalues --    1.40627   1.41412   1.44710   1.46494   1.48156
 Alpha virt. eigenvalues --    1.51132   1.54015   1.57411   1.59468   1.60857
 Alpha virt. eigenvalues --    1.62190   1.65087   1.67552   1.70523   1.72373
 Alpha virt. eigenvalues --    1.75344   1.76221   1.78041   1.79600   1.83805
 Alpha virt. eigenvalues --    1.85269   1.86768   1.88670   1.89061   1.91323
 Alpha virt. eigenvalues --    1.92841   1.94299   1.96541   1.98374   1.98727
 Alpha virt. eigenvalues --    1.99973   2.00821   2.04718   2.07414   2.10538
 Alpha virt. eigenvalues --    2.11814   2.13462   2.15753   2.16041   2.16810
 Alpha virt. eigenvalues --    2.19751   2.20441   2.22127   2.23538   2.26969
 Alpha virt. eigenvalues --    2.27762   2.29644   2.31806   2.32591   2.34210
 Alpha virt. eigenvalues --    2.37644   2.37850   2.40569   2.43144   2.45273
 Alpha virt. eigenvalues --    2.48540   2.50069   2.50743   2.54084   2.57162
 Alpha virt. eigenvalues --    2.57885   2.59401   2.61101   2.64623   2.65906
 Alpha virt. eigenvalues --    2.67831   2.68649   2.72315   2.74311   2.79173
 Alpha virt. eigenvalues --    2.80899   2.83881   2.85094   2.87816   2.91259
 Alpha virt. eigenvalues --    2.92569   2.93174   3.01260   3.02994   3.04827
 Alpha virt. eigenvalues --    3.05870   3.06919   3.12940   3.15346   3.19704
 Alpha virt. eigenvalues --    3.23381   3.24975   3.31830   3.41111   3.55210
 Alpha virt. eigenvalues --    3.69095   3.82242   3.92490   3.96543   3.96897
 Alpha virt. eigenvalues --    4.01367   4.25853
          Condensed to atoms (all electrons):
 Mulliken charges:
               1
     1  C    0.421156
     2  C    0.393224
     3  C    0.549437
     4  N   -0.458841
     5  C    0.417706
     6  O   -1.065892
     7  C    0.749165
     8  H   -0.102144
     9  H   -0.126126
    10  H   -0.067252
    11  H   -0.102527
    12  H   -0.133868
    13  H   -0.116617
    14  H   -0.304244
    15  H    0.163427
    16  H    0.008233
    17  H   -0.150832
    18  H   -0.074006
 Sum of Mulliken charges =  -0.00000
 Mulliken charges with hydrogens summed into heavy atoms:
               1
     1  C    0.125635
     2  C    0.156830
     3  C    0.128575
     4  N   -0.295414
     5  C    0.417706
     6  O   -1.065892
     7  C    0.532560
 Electronic spatial extent (au):  <R**2>=            938.5569
 Charge=             -0.0000 electrons
 Dipole moment (field-independent basis, Debye):
    X=             -3.2323    Y=             -4.8556    Z=             -0.9416  Tot=              5.9086
 Unable to Open any file for archive entry.
 1\1\GINC-SE097\Stability\RHF\Aug-CC-pVDZ\C5H11N1O1\OHZDE\09-Apr-2025\0
 \\#t hf aug-cc-pvdz symm=none int=(grid=ultrafine) guess=(read,tcheck)
  stable=(opt,rrhf)\\title\\0,1\C,0,-1.81257512,-0.17309403,-1.00679814
 \C,0,-1.091419,0.84473458,-0.12991461\C,0,-0.37813529,0.2324936,1.0608
 1998\N,0,1.8331328,-0.26604641,1.96565888\C,0,1.31155616,0.40413583,0.
 91873589\O,0,1.60375362,1.5759677,0.58368013\C,0,1.59152061,-0.6253592
 6,-0.35719928\H,0,-2.31133477,0.32078108,-1.8421168\H,0,-1.12535403,-0
 .91176493,-1.42468875\H,0,-2.57418351,-0.71551566,-0.4417747\H,0,-0.37
 169393,1.43090239,-0.7064867\H,0,-1.81098307,1.57537451,0.24791938\H,0
 ,-0.56314408,0.77227089,1.98431698\H,0,-0.60276356,-0.82343937,1.20197
 776\H,0,1.41209794,-1.19276079,1.9917477\H,0,1.10039496,-0.13382739,-1
 .18998612\H,0,1.20600857,-1.62521377,-0.18163752\H,0,2.66752869,-0.627
 40096,-0.49220506\\Version=ES64L-G16RevC.01\HF=-324.8904768\RMSD=6.766
 e-09\Dipole=-1.2716871,-1.9103488,-0.3704507\Quadrupole=-1.4323425,-0.
 9728018,2.4051443,-7.4566969,-4.2956388,-2.9570545\PG=Unknown\\@
 The archive entry for this job was punched.


 ...THE PHYSICISTS HAVE MADE THEIR UNIVERSE, AND IF YOU DO NOT LIKE
 IT, YOU MUST MAKE YOUR OWN.
                               -- E. R. HARRISON IN "COSMOLOGY" (1980)
 Job cpu time:       0 days  0 hours 13 minutes 53.9 seconds.
 Elapsed time:       0 days  0 hours  1 minutes  0.0 seconds.
 File lengths (MBytes):  RWF=    283 Int=      0 D2E=      0 Chk=      9 Scr=      1
 Normal termination of Gaussian 16 at Wed Apr  9 03:52:05 2025.
 Initial command:
 /arc/software/Gaussian/g16.c01/l1.exe "/tmp/slurm/4868030/Gau-2270337.inp" -scrdir="/tmp/slurm/4868030/"
 Entering Link 1 = /arc/software/Gaussian/g16.c01/l1.exe PID=   2270561.
  
 Copyright (c) 1988-2019, Gaussian, Inc.  All Rights Reserved.
  
 This is part of the Gaussian(R) 16 program.  It is based on
 the Gaussian(R) 09 system (copyright 2009, Gaussian, Inc.),
 the Gaussian(R) 03 system (copyright 2003, Gaussian, Inc.),
 the Gaussian(R) 98 system (copyright 1998, Gaussian, Inc.),
 the Gaussian(R) 94 system (copyright 1995, Gaussian, Inc.),
 the Gaussian 92(TM) system (copyright 1992, Gaussian, Inc.),
 the Gaussian 90(TM) system (copyright 1990, Gaussian, Inc.),
 the Gaussian 88(TM) system (copyright 1988, Gaussian, Inc.),
 the Gaussian 86(TM) system (copyright 1986, Carnegie Mellon
 University), and the Gaussian 82(TM) system (copyright 1983,
 Carnegie Mellon University). Gaussian is a federally registered
 trademark of Gaussian, Inc.
  
 This software contains proprietary and confidential information,
 including trade secrets, belonging to Gaussian, Inc.
  
 This software is provided under written license and may be
 used, copied, transmitted, or stored only in accord with that
 written license.
  
 The following legend is applicable only to US Government
 contracts under FAR:
  
                    RESTRICTED RIGHTS LEGEND
  
 Use, reproduction and disclosure by the US Government is
 subject to restrictions as set forth in subparagraphs (a)
 and (c) of the Commercial Computer Software - Restricted
 Rights clause in FAR 52.227-19.
  
 Gaussian, Inc.
 340 Quinnipiac St., Bldg. 40, Wallingford CT 06492
  
  
 ---------------------------------------------------------------
 Warning -- This program may not be used in any manner that
 competes with the business of Gaussian, Inc. or will provide
 assistance to any competitor of Gaussian, Inc.  The licensee
 of this program is prohibited from giving any competitor of
 Gaussian, Inc. access to this program.  By using this program,
 the user acknowledges that Gaussian, Inc. is engaged in the
 business of creating and licensing software in the field of
 computational chemistry and represents and warrants to the
 licensee that it is not a competitor of Gaussian, Inc. and that
 it will not use this program in any manner prohibited above.
 ---------------------------------------------------------------
  

 Cite this work as:
 Gaussian 16, Revision C.01,
 M. J. Frisch, G. W. Trucks, H. B. Schlegel, G. E. Scuseria, 
 M. A. Robb, J. R. Cheeseman, G. Scalmani, V. Barone, 
 G. A. Petersson, H. Nakatsuji, X. Li, M. Caricato, A. V. Marenich, 
 J. Bloino, B. G. Janesko, R. Gomperts, B. Mennucci, H. P. Hratchian, 
 J. V. Ortiz, A. F. Izmaylov, J. L. Sonnenberg, D. Williams-Young, 
 F. Ding, F. Lipparini, F. Egidi, J. Goings, B. Peng, A. Petrone, 
 T. Henderson, D. Ranasinghe, V. G. Zakrzewski, J. Gao, N. Rega, 
 G. Zheng, W. Liang, M. Hada, M. Ehara, K. Toyota, R. Fukuda, 
 J. Hasegawa, M. Ishida, T. Nakajima, Y. Honda, O. Kitao, H. Nakai, 
 T. Vreven, K. Throssell, J. A. Montgomery, Jr., J. E. Peralta, 
 F. Ogliaro, M. J. Bearpark, J. J. Heyd, E. N. Brothers, K. N. Kudin, 
 V. N. Staroverov, T. A. Keith, R. Kobayashi, J. Normand, 
 K. Raghavachari, A. P. Rendell, J. C. Burant, S. S. Iyengar, 
 J. Tomasi, M. Cossi, J. M. Millam, M. Klene, C. Adamo, R. Cammi, 
 J. W. Ochterski, R. L. Martin, K. Morokuma, O. Farkas, 
 J. B. Foresman, and D. J. Fox, Gaussian, Inc., Wallingford CT, 2019.
 
 ******************************************
 Gaussian 16:  ES64L-G16RevC.01  3-Jul-2019
                 9-Apr-2025 
 ******************************************
 %nprocs=16
 Will use up to   16 processors via shared memory.
 %mem=30GB
 %chk=Grambow2020_wb97xd3_008238_reverse_mol1.chk
 ----------------------------------------------------------------------
 #t hf aug-cc-pvdz iop(5/13=1,5/36=2,99/5=2) pseudo=read geom=check gue
 ss=(read,tcheck) scf=(maxcycle=1)
 ----------------------------------------------------------------------
 -----
 title
 -----
 Structure from the checkpoint file:  "Grambow2020_wb97xd3_008238_reverse_mol1.chk"
 Charge =  0 Multiplicity = 1
 Z-Matrix found in chk file.
 C,0,-1.81257512,-0.17309403,-1.00679814
 C,0,-1.091419,0.84473458,-0.12991461
 C,0,-0.37813529,0.2324936,1.06081998
 N,0,1.8331328,-0.26604641,1.96565888
 C,0,1.31155616,0.40413583,0.91873589
 O,0,1.60375362,1.5759677,0.58368013
 C,0,1.59152061,-0.62535926,-0.35719928
 H,0,-2.31133477,0.32078108,-1.8421168
 H,0,-1.12535403,-0.91176493,-1.42468875
 H,0,-2.57418351,-0.71551566,-0.4417747
 H,0,-0.37169393,1.43090239,-0.7064867
 H,0,-1.81098307,1.57537451,0.24791938
 H,0,-0.56314408,0.77227089,1.98431698
 H,0,-0.60276356,-0.82343937,1.20197776
 H,0,1.41209794,-1.19276079,1.9917477
 H,0,1.10039496,-0.13382739,-1.18998612
 H,0,1.20600857,-1.62521377,-0.18163752
 H,0,2.66752869,-0.62740096,-0.49220506
 Recover connectivity data from disk.
                    Distance matrix (angstroms):
                    1          2          3          4          5
     1  C    0.000000
     2  C    1.524784   0.000000
     3  C    2.548953   1.517057   0.000000
     4  N    4.704820   3.765404   2.440693   0.000000
     5  C    3.714979   2.658587   1.704320   1.348048   0.000000
     6  O    4.154532   2.882338   2.441407   2.314194   1.253328
     7  C    3.494909   3.067735   2.574147   2.362869   1.663205
     8  H    1.091069   2.166647   3.488853   5.658634   4.555721
     9  H    1.092035   2.182403   2.836444   4.545773   3.627915
    10  H    1.092483   2.174909   2.824737   5.042043   4.266566
    11  H    2.176954   1.092718   2.135322   3.857623   2.555177
    12  H    2.152083   1.092870   2.125368   4.429564   3.401771
    13  H    3.376620   2.180436   1.085557   2.611627   2.187576
    14  H    2.601016   2.189869   1.088751   2.612946   2.291678
    15  H    4.519902   3.862698   2.470407   1.018209   1.926536
    16  H    2.918989   2.624001   2.717788   3.242296   2.186482
    17  H    3.449839   3.373647   2.739396   2.617537   2.310892
    18  H    4.532387   4.053162   3.525248   2.620666   2.212122
                    6          7          8          9         10
     6  O    0.000000
     7  C    2.394002   0.000000
     8  H    4.773667   4.281640   0.000000
     9  H    4.203616   2.933082   1.760672   0.000000
    10  H    4.874178   4.167538   1.761805   1.761744   0.000000
    11  H    2.363888   2.864337   2.506837   2.563573   3.086769
    12  H    3.431204   4.097124   2.488495   3.074665   2.511241
    13  H    2.702436   3.475435   4.231029   3.843615   3.484783
    14  H    3.317855   2.699102   3.673550   2.679604   2.569059
    15  H    3.112112   2.423157   5.554573   4.264934   4.694703
    16  H    2.514490   1.084593   3.503119   2.369437   3.794827
    17  H    3.315339   1.085887   4.349229   2.736684   3.896803
    18  H    2.672822   1.084446   5.245035   3.916165   5.242695
                   11         12         13         14         15
    11  H    0.000000
    12  H    1.733008   0.000000
    13  H    2.776846   2.284109   0.000000
    14  H    2.962716   2.850321   1.777615   0.000000
    15  H    4.164852   4.592577   2.786214   2.195405   0.000000
    16  H    2.202089   3.669478   3.696563   3.016257   3.367778
    17  H    3.479146   4.419335   3.683639   2.414309   2.225554
    18  H    3.676874   5.045500   4.304589   3.688292   2.840028
                   16         17         18
    16  H    0.000000
    17  H    1.803373   0.000000
    18  H    1.785055   1.796698   0.000000
 Framework group  C1[X(C5H11NO)]
 Deg. of freedom    48
                         Standard orientation:                         
 ---------------------------------------------------------------------
 Center     Atomic      Atomic             Coordinates (Angstroms)
 Number     Number       Type             X           Y           Z
 ---------------------------------------------------------------------
      1          6           0        2.566433    0.439062    0.087766
      2          6           0        1.518140   -0.626132   -0.214573
      3          6           0        0.337630   -0.612888    0.738151
      4          7           0       -2.039756   -0.082399    0.891773
      5          6           0       -1.095912   -0.164497   -0.067212
      6          8           0       -1.204437   -0.793225   -1.145987
      7          6           0       -0.751111    1.431106   -0.385665
      8          1           0        3.392914    0.380587   -0.622123
      9          1           0        2.152620    1.447880    0.027897
     10          1           0        2.982801    0.313628    1.089976
     11          1           0        1.144098   -0.540356   -1.237689
     12          1           0        1.979171   -1.615786   -0.165580
     13          1           0        0.073169   -1.604117    1.093061
     14          1           0        0.475392    0.055636    1.586370
     15          1           0       -1.675104    0.493021    1.648523
     16          1           0        0.067437    1.375277   -1.095033
     17          1           0       -0.486756    1.989314    0.507459
     18          1           0       -1.643036    1.827611   -0.858188
 ---------------------------------------------------------------------
 Rotational constants (GHZ):           4.3295188           1.6885421           1.6269740
 ======================================================================================================
                                       Pseudopotential Parameters
 ======================================================================================================
  Center     Atomic      Valence      Angular      Power
  Number     Number     Electrons     Momentum     of R      Exponent        Coefficient   SO-Coeffient
 ======================================================================================================
    1          6            6
                                      G and up 
                                                     0        0.0000010       -0.00011185    0.00000000
                                                     2        0.1200000       -0.02301220    0.00000000
                                                     2        0.1400000        0.13317600    0.00000000
                                                     2        0.1600000       -0.19690668    0.00000000
                                                     2        0.2200000        0.23163694    0.00000000
                                                     2        0.3000000       -0.36920489    0.00000000
                                                     2        0.4000000        0.36389709    0.00000000
                                                     2        0.7000000       -0.38862160    0.00000000
                                                     2        1.3000000        0.80803421    0.00000000
                                      S - G
                                                     0        0.0000010        0.00312304    0.00000000
                                                     2        0.1200000       -0.00632892    0.00000000
                                                     2        0.2200000       -0.03780897    0.00000000
                                                     2        0.4000000        0.26269560    0.00000000
                                                     2        0.9000000       -0.28209514    0.00000000
                                                     2        1.5000000       -0.72686737    0.00000000
                                      P - G
                                                     0        0.0000010       -0.01465594    0.00000000
                                                     2        0.1200000        0.07908409    0.00000000
                                                     2        0.1800000       -0.30615861    0.00000000
                                                     2        0.2600000        0.41506950    0.00000000
                                                     2        0.5000000       -0.36252345    0.00000000
                                                     2        0.9000000        0.15124193    0.00000000
                                                     2        3.0000000       -0.80425677    0.00000000
                                      D - G
                                                     0        0.0000010        0.01149631    0.00000000
                                                     2        0.1200000       -0.04713561    0.00000000
                                                     2        0.1600000        0.10865096    0.00000000
                                                     2        0.2800000       -0.15816701    0.00000000
                                                     2        0.7000000        0.65478804    0.00000000
                                                     2        1.3000000       -1.73816624    0.00000000
                                      F - G
                                                     0        0.0000010        0.00481868    0.00000000
                                                     2        0.1200000       -0.04746842    0.00000000
                                                     2        0.1600000        0.09327889    0.00000000
                                                     2        0.4000000       -0.19693326    0.00000000
                                                     2        0.9000000        0.34938253    0.00000000
    2          6            6
                                      G and up 
                                                     0        0.0000010       -0.00011185    0.00000000
                                                     2        0.1200000       -0.02301220    0.00000000
                                                     2        0.1400000        0.13317600    0.00000000
                                                     2        0.1600000       -0.19690668    0.00000000
                                                     2        0.2200000        0.23163694    0.00000000
                                                     2        0.3000000       -0.36920489    0.00000000
                                                     2        0.4000000        0.36389709    0.00000000
                                                     2        0.7000000       -0.38862160    0.00000000
                                                     2        1.3000000        0.80803421    0.00000000
                                      S - G
                                                     0        0.0000010        0.00312304    0.00000000
                                                     2        0.1200000       -0.00632892    0.00000000
                                                     2        0.2200000       -0.03780897    0.00000000
                                                     2        0.4000000        0.26269560    0.00000000
                                                     2        0.9000000       -0.28209514    0.00000000
                                                     2        1.5000000       -0.72686737    0.00000000
                                      P - G
                                                     0        0.0000010       -0.01465594    0.00000000
                                                     2        0.1200000        0.07908409    0.00000000
                                                     2        0.1800000       -0.30615861    0.00000000
                                                     2        0.2600000        0.41506950    0.00000000
                                                     2        0.5000000       -0.36252345    0.00000000
                                                     2        0.9000000        0.15124193    0.00000000
                                                     2        3.0000000       -0.80425677    0.00000000
                                      D - G
                                                     0        0.0000010        0.01149631    0.00000000
                                                     2        0.1200000       -0.04713561    0.00000000
                                                     2        0.1600000        0.10865096    0.00000000
                                                     2        0.2800000       -0.15816701    0.00000000
                                                     2        0.7000000        0.65478804    0.00000000
                                                     2        1.3000000       -1.73816624    0.00000000
                                      F - G
                                                     0        0.0000010        0.00481868    0.00000000
                                                     2        0.1200000       -0.04746842    0.00000000
                                                     2        0.1600000        0.09327889    0.00000000
                                                     2        0.4000000       -0.19693326    0.00000000
                                                     2        0.9000000        0.34938253    0.00000000
    3          6            6
                                      G and up 
                                                     0        0.0000010       -0.00011185    0.00000000
                                                     2        0.1200000       -0.02301220    0.00000000
                                                     2        0.1400000        0.13317600    0.00000000
                                                     2        0.1600000       -0.19690668    0.00000000
                                                     2        0.2200000        0.23163694    0.00000000
                                                     2        0.3000000       -0.36920489    0.00000000
                                                     2        0.4000000        0.36389709    0.00000000
                                                     2        0.7000000       -0.38862160    0.00000000
                                                     2        1.3000000        0.80803421    0.00000000
                                      S - G
                                                     0        0.0000010        0.00312304    0.00000000
                                                     2        0.1200000       -0.00632892    0.00000000
                                                     2        0.2200000       -0.03780897    0.00000000
                                                     2        0.4000000        0.26269560    0.00000000
                                                     2        0.9000000       -0.28209514    0.00000000
                                                     2        1.5000000       -0.72686737    0.00000000
                                      P - G
                                                     0        0.0000010       -0.01465594    0.00000000
                                                     2        0.1200000        0.07908409    0.00000000
                                                     2        0.1800000       -0.30615861    0.00000000
                                                     2        0.2600000        0.41506950    0.00000000
                                                     2        0.5000000       -0.36252345    0.00000000
                                                     2        0.9000000        0.15124193    0.00000000
                                                     2        3.0000000       -0.80425677    0.00000000
                                      D - G
                                                     0        0.0000010        0.01149631    0.00000000
                                                     2        0.1200000       -0.04713561    0.00000000
                                                     2        0.1600000        0.10865096    0.00000000
                                                     2        0.2800000       -0.15816701    0.00000000
                                                     2        0.7000000        0.65478804    0.00000000
                                                     2        1.3000000       -1.73816624    0.00000000
                                      F - G
                                                     0        0.0000010        0.00481868    0.00000000
                                                     2        0.1200000       -0.04746842    0.00000000
                                                     2        0.1600000        0.09327889    0.00000000
                                                     2        0.4000000       -0.19693326    0.00000000
                                                     2        0.9000000        0.34938253    0.00000000
    4          7            7
                                      G and up 
                                                     0        0.0000010       -0.00000022    0.00000000
                                                     2        0.1200000       -0.00992020    0.00000000
                                                     2        0.1400000        0.02578711    0.00000000
                                                     2        0.2200000       -0.10543517    0.00000000
                                                     2        0.3000000        0.23013665    0.00000000
                                                     2        0.5000000       -0.60834094    0.00000000
                                                     2        0.8000000        1.81436815    0.00000000
                                                     2        1.2000000       -3.87539738    0.00000000
                                                     2        2.0000000        2.94656640    0.00000000
                                      S - G
                                                     0        0.0000010       -0.00223566    0.00000000
                                                     2        0.1200000        0.45247937    0.00000000
                                                     2        0.1600000       -0.78978304    0.00000000
                                                     2        0.4000000        0.84956595    0.00000000
                                                     2        3.0000000       -0.75910174    0.00000000
                                      P - G
                                                     0        0.0000010       -0.25576737    0.00000000
                                                     2        0.1200000       -0.19992277    0.00000000
                                                     2        0.1600000        0.88518512    0.00000000
                                                     2        0.2400000       -1.33293917    0.00000000
                                                     2        0.4000000        1.33451776    0.00000000
                                                     2        0.9000000       -0.55709210    0.00000000
                                                     2        2.5000000        2.48506502    0.00000000
                                      D - G
                                                     0        0.0000010        0.26143746    0.00000000
                                                     2        0.1200000       -0.04492212    0.00000000
                                                     2        0.1400000       -0.18274021    0.00000000
                                                     2        0.2400000        0.53490004    0.00000000
                                                     2        0.4000000       -0.74136473    0.00000000
                                                     2        1.3000000        1.71401021    0.00000000
                                      F - G
                                                     0        0.0000010       -0.07169988    0.00000000
                                                     2        0.1200000        0.04480029    0.00000000
                                                     2        0.2600000       -0.08050831    0.00000000
                                                     2        0.5000000        0.31290809    0.00000000
                                                     2        1.0000000       -0.45253098    0.00000000
    5          6            6
                                      G and up 
                                                     0        0.0000010       -0.00011185    0.00000000
                                                     2        0.1200000       -0.02301220    0.00000000
                                                     2        0.1400000        0.13317600    0.00000000
                                                     2        0.1600000       -0.19690668    0.00000000
                                                     2        0.2200000        0.23163694    0.00000000
                                                     2        0.3000000       -0.36920489    0.00000000
                                                     2        0.4000000        0.36389709    0.00000000
                                                     2        0.7000000       -0.38862160    0.00000000
                                                     2        1.3000000        0.80803421    0.00000000
                                      S - G
                                                     0        0.0000010        0.00312304    0.00000000
                                                     2        0.1200000       -0.00632892    0.00000000
                                                     2        0.2200000       -0.03780897    0.00000000
                                                     2        0.4000000        0.26269560    0.00000000
                                                     2        0.9000000       -0.28209514    0.00000000
                                                     2        1.5000000       -0.72686737    0.00000000
                                      P - G
                                                     0        0.0000010       -0.01465594    0.00000000
                                                     2        0.1200000        0.07908409    0.00000000
                                                     2        0.1800000       -0.30615861    0.00000000
                                                     2        0.2600000        0.41506950    0.00000000
                                                     2        0.5000000       -0.36252345    0.00000000
                                                     2        0.9000000        0.15124193    0.00000000
                                                     2        3.0000000       -0.80425677    0.00000000
                                      D - G
                                                     0        0.0000010        0.01149631    0.00000000
                                                     2        0.1200000       -0.04713561    0.00000000
                                                     2        0.1600000        0.10865096    0.00000000
                                                     2        0.2800000       -0.15816701    0.00000000
                                                     2        0.7000000        0.65478804    0.00000000
                                                     2        1.3000000       -1.73816624    0.00000000
                                      F - G
                                                     0        0.0000010        0.00481868    0.00000000
                                                     2        0.1200000       -0.04746842    0.00000000
                                                     2        0.1600000        0.09327889    0.00000000
                                                     2        0.4000000       -0.19693326    0.00000000
                                                     2        0.9000000        0.34938253    0.00000000
    6          8            8
                                      G and up 
                                                     0        0.0000010        0.00001165    0.00000000
                                                     2        0.1200000       -0.01744018    0.00000000
                                                     2        0.1400000        0.05401326    0.00000000
                                                     2        0.1800000       -0.08231208    0.00000000
                                                     2        0.2600000        0.11570222    0.00000000
                                                     2        0.4000000       -0.20630360    0.00000000
                                                     2        0.7000000        0.38074319    0.00000000
                                                     2        1.2000000       -0.17045091    0.00000000
                                                     2        2.0000000       -1.45433187    0.00000000
                                      S - G
                                                     0        0.0000010       -0.00117944    0.00000000
                                                     2        0.1400000        0.04368312    0.00000000
                                                     2        0.3000000       -0.33477926    0.00000000
                                                     2        0.6000000        1.52630657    0.00000000
                                                     2        1.5000000       -2.50804716    0.00000000
                                                     2        3.0000000        2.89751681    0.00000000
                                      P - G
                                                     0        0.0000010        0.06576007    0.00000000
                                                     2        0.1200000       -0.10329304    0.00000000
                                                     2        0.2000000        0.24891756    0.00000000
                                                     2        0.4000000       -0.50800022    0.00000000
                                                     2        0.9000000        0.81480796    0.00000000
                                      D - G
                                                     0        0.0000010       -0.14101855    0.00000000
                                                     2        0.1200000        0.22105937    0.00000000
                                                     2        0.1800000       -0.45814988    0.00000000
                                                     2        0.3000000        0.46029282    0.00000000
                                      F - G
                                                     0        0.0000010        0.07483044    0.00000000
                                                     2        0.1200000       -0.09134252    0.00000000
                                                     2        0.1400000        0.04125459    0.00000000
                                                     2        0.3000000        0.37914837    0.00000000
                                                     2        0.5000000       -0.86881279    0.00000000
    7          6            6
                                      G and up 
                                                     0        0.0000010       -0.00011185    0.00000000
                                                     2        0.1200000       -0.02301220    0.00000000
                                                     2        0.1400000        0.13317600    0.00000000
                                                     2        0.1600000       -0.19690668    0.00000000
                                                     2        0.2200000        0.23163694    0.00000000
                                                     2        0.3000000       -0.36920489    0.00000000
                                                     2        0.4000000        0.36389709    0.00000000
                                                     2        0.7000000       -0.38862160    0.00000000
                                                     2        1.3000000        0.80803421    0.00000000
                                      S - G
                                                     0        0.0000010        0.00312304    0.00000000
                                                     2        0.1200000       -0.00632892    0.00000000
                                                     2        0.2200000       -0.03780897    0.00000000
                                                     2        0.4000000        0.26269560    0.00000000
                                                     2        0.9000000       -0.28209514    0.00000000
                                                     2        1.5000000       -0.72686737    0.00000000
                                      P - G
                                                     0        0.0000010       -0.01465594    0.00000000
                                                     2        0.1200000        0.07908409    0.00000000
                                                     2        0.1800000       -0.30615861    0.00000000
                                                     2        0.2600000        0.41506950    0.00000000
                                                     2        0.5000000       -0.36252345    0.00000000
                                                     2        0.9000000        0.15124193    0.00000000
                                                     2        3.0000000       -0.80425677    0.00000000
                                      D - G
                                                     0        0.0000010        0.01149631    0.00000000
                                                     2        0.1200000       -0.04713561    0.00000000
                                                     2        0.1600000        0.10865096    0.00000000
                                                     2        0.2800000       -0.15816701    0.00000000
                                                     2        0.7000000        0.65478804    0.00000000
                                                     2        1.3000000       -1.73816624    0.00000000
                                      F - G
                                                     0        0.0000010        0.00481868    0.00000000
                                                     2        0.1200000       -0.04746842    0.00000000
                                                     2        0.1600000        0.09327889    0.00000000
                                                     2        0.4000000       -0.19693326    0.00000000
                                                     2        0.9000000        0.34938253    0.00000000
    8          1            1
                                      F and up 
                                                     0        0.0000010       -0.00000699    0.00000000
                                                     2        0.1200000        0.00123686    0.00000000
                                                     2        0.1800000       -0.00752022    0.00000000
                                                     2        0.2600000        0.02503380    0.00000000
                                                     2        0.4000000       -0.08702670    0.00000000
                                                     2        0.6000000        0.30134159    0.00000000
                                                     2        0.8000000       -0.50204959    0.00000000
                                                     2        1.2000000        0.52208372    0.00000000
                                      S - F
                                                     0        0.0000010       -0.01618346    0.00000000
                                                     2        0.1200000       -0.07880581    0.00000000
                                                     2        0.1600000        0.32040539    0.00000000
                                                     2        0.2400000       -0.47500956    0.00000000
                                                     2        0.5000000        0.54013668    0.00000000
                                                     2        1.5000000       -1.40434292    0.00000000
                                                     2        3.0000000        1.46283806    0.00000000
                                      P - F
                                                     0        0.0000010        0.00612970    0.00000000
                                                     2        0.1200000        0.02254406    0.00000000
                                                     2        0.1800000       -0.13874529    0.00000000
                                                     2        0.3000000        0.38299049    0.00000000
                                                     2        0.5000000       -0.57923512    0.00000000
                                                     2        1.0000000        0.63021625    0.00000000
                                                     2        2.0000000       -0.79201034    0.00000000
                                      D - F
                                                     0        0.0000010       -0.00296226    0.00000000
                                                     2        0.1200000       -0.00547344    0.00000000
                                                     2        0.1400000        0.01837884    0.00000000
                                                     2        0.2400000       -0.05565704    0.00000000
                                                     2        0.4000000        0.15376597    0.00000000
                                                     2        0.8000000       -0.32464795    0.00000000
    9          1            1
                                      F and up 
                                                     0        0.0000010       -0.00000699    0.00000000
                                                     2        0.1200000        0.00123686    0.00000000
                                                     2        0.1800000       -0.00752022    0.00000000
                                                     2        0.2600000        0.02503380    0.00000000
                                                     2        0.4000000       -0.08702670    0.00000000
                                                     2        0.6000000        0.30134159    0.00000000
                                                     2        0.8000000       -0.50204959    0.00000000
                                                     2        1.2000000        0.52208372    0.00000000
                                      S - F
                                                     0        0.0000010       -0.01618346    0.00000000
                                                     2        0.1200000       -0.07880581    0.00000000
                                                     2        0.1600000        0.32040539    0.00000000
                                                     2        0.2400000       -0.47500956    0.00000000
                                                     2        0.5000000        0.54013668    0.00000000
                                                     2        1.5000000       -1.40434292    0.00000000
                                                     2        3.0000000        1.46283806    0.00000000
                                      P - F
                                                     0        0.0000010        0.00612970    0.00000000
                                                     2        0.1200000        0.02254406    0.00000000
                                                     2        0.1800000       -0.13874529    0.00000000
                                                     2        0.3000000        0.38299049    0.00000000
                                                     2        0.5000000       -0.57923512    0.00000000
                                                     2        1.0000000        0.63021625    0.00000000
                                                     2        2.0000000       -0.79201034    0.00000000
                                      D - F
                                                     0        0.0000010       -0.00296226    0.00000000
                                                     2        0.1200000       -0.00547344    0.00000000
                                                     2        0.1400000        0.01837884    0.00000000
                                                     2        0.2400000       -0.05565704    0.00000000
                                                     2        0.4000000        0.15376597    0.00000000
                                                     2        0.8000000       -0.32464795    0.00000000
   10          1            1
                                      F and up 
                                                     0        0.0000010       -0.00000699    0.00000000
                                                     2        0.1200000        0.00123686    0.00000000
                                                     2        0.1800000       -0.00752022    0.00000000
                                                     2        0.2600000        0.02503380    0.00000000
                                                     2        0.4000000       -0.08702670    0.00000000
                                                     2        0.6000000        0.30134159    0.00000000
                                                     2        0.8000000       -0.50204959    0.00000000
                                                     2        1.2000000        0.52208372    0.00000000
                                      S - F
                                                     0        0.0000010       -0.01618346    0.00000000
                                                     2        0.1200000       -0.07880581    0.00000000
                                                     2        0.1600000        0.32040539    0.00000000
                                                     2        0.2400000       -0.47500956    0.00000000
                                                     2        0.5000000        0.54013668    0.00000000
                                                     2        1.5000000       -1.40434292    0.00000000
                                                     2        3.0000000        1.46283806    0.00000000
                                      P - F
                                                     0        0.0000010        0.00612970    0.00000000
                                                     2        0.1200000        0.02254406    0.00000000
                                                     2        0.1800000       -0.13874529    0.00000000
                                                     2        0.3000000        0.38299049    0.00000000
                                                     2        0.5000000       -0.57923512    0.00000000
                                                     2        1.0000000        0.63021625    0.00000000
                                                     2        2.0000000       -0.79201034    0.00000000
                                      D - F
                                                     0        0.0000010       -0.00296226    0.00000000
                                                     2        0.1200000       -0.00547344    0.00000000
                                                     2        0.1400000        0.01837884    0.00000000
                                                     2        0.2400000       -0.05565704    0.00000000
                                                     2        0.4000000        0.15376597    0.00000000
                                                     2        0.8000000       -0.32464795    0.00000000
   11          1            1
                                      F and up 
                                                     0        0.0000010       -0.00000699    0.00000000
                                                     2        0.1200000        0.00123686    0.00000000
                                                     2        0.1800000       -0.00752022    0.00000000
                                                     2        0.2600000        0.02503380    0.00000000
                                                     2        0.4000000       -0.08702670    0.00000000
                                                     2        0.6000000        0.30134159    0.00000000
                                                     2        0.8000000       -0.50204959    0.00000000
                                                     2        1.2000000        0.52208372    0.00000000
                                      S - F
                                                     0        0.0000010       -0.01618346    0.00000000
                                                     2        0.1200000       -0.07880581    0.00000000
                                                     2        0.1600000        0.32040539    0.00000000
                                                     2        0.2400000       -0.47500956    0.00000000
                                                     2        0.5000000        0.54013668    0.00000000
                                                     2        1.5000000       -1.40434292    0.00000000
                                                     2        3.0000000        1.46283806    0.00000000
                                      P - F
                                                     0        0.0000010        0.00612970    0.00000000
                                                     2        0.1200000        0.02254406    0.00000000
                                                     2        0.1800000       -0.13874529    0.00000000
                                                     2        0.3000000        0.38299049    0.00000000
                                                     2        0.5000000       -0.57923512    0.00000000
                                                     2        1.0000000        0.63021625    0.00000000
                                                     2        2.0000000       -0.79201034    0.00000000
                                      D - F
                                                     0        0.0000010       -0.00296226    0.00000000
                                                     2        0.1200000       -0.00547344    0.00000000
                                                     2        0.1400000        0.01837884    0.00000000
                                                     2        0.2400000       -0.05565704    0.00000000
                                                     2        0.4000000        0.15376597    0.00000000
                                                     2        0.8000000       -0.32464795    0.00000000
   12          1            1
                                      F and up 
                                                     0        0.0000010       -0.00000699    0.00000000
                                                     2        0.1200000        0.00123686    0.00000000
                                                     2        0.1800000       -0.00752022    0.00000000
                                                     2        0.2600000        0.02503380    0.00000000
                                                     2        0.4000000       -0.08702670    0.00000000
                                                     2        0.6000000        0.30134159    0.00000000
                                                     2        0.8000000       -0.50204959    0.00000000
                                                     2        1.2000000        0.52208372    0.00000000
                                      S - F
                                                     0        0.0000010       -0.01618346    0.00000000
                                                     2        0.1200000       -0.07880581    0.00000000
                                                     2        0.1600000        0.32040539    0.00000000
                                                     2        0.2400000       -0.47500956    0.00000000
                                                     2        0.5000000        0.54013668    0.00000000
                                                     2        1.5000000       -1.40434292    0.00000000
                                                     2        3.0000000        1.46283806    0.00000000
                                      P - F
                                                     0        0.0000010        0.00612970    0.00000000
                                                     2        0.1200000        0.02254406    0.00000000
                                                     2        0.1800000       -0.13874529    0.00000000
                                                     2        0.3000000        0.38299049    0.00000000
                                                     2        0.5000000       -0.57923512    0.00000000
                                                     2        1.0000000        0.63021625    0.00000000
                                                     2        2.0000000       -0.79201034    0.00000000
                                      D - F
                                                     0        0.0000010       -0.00296226    0.00000000
                                                     2        0.1200000       -0.00547344    0.00000000
                                                     2        0.1400000        0.01837884    0.00000000
                                                     2        0.2400000       -0.05565704    0.00000000
                                                     2        0.4000000        0.15376597    0.00000000
                                                     2        0.8000000       -0.32464795    0.00000000
   13          1            1
                                      F and up 
                                                     0        0.0000010       -0.00000699    0.00000000
                                                     2        0.1200000        0.00123686    0.00000000
                                                     2        0.1800000       -0.00752022    0.00000000
                                                     2        0.2600000        0.02503380    0.00000000
                                                     2        0.4000000       -0.08702670    0.00000000
                                                     2        0.6000000        0.30134159    0.00000000
                                                     2        0.8000000       -0.50204959    0.00000000
                                                     2        1.2000000        0.52208372    0.00000000
                                      S - F
                                                     0        0.0000010       -0.01618346    0.00000000
                                                     2        0.1200000       -0.07880581    0.00000000
                                                     2        0.1600000        0.32040539    0.00000000
                                                     2        0.2400000       -0.47500956    0.00000000
                                                     2        0.5000000        0.54013668    0.00000000
                                                     2        1.5000000       -1.40434292    0.00000000
                                                     2        3.0000000        1.46283806    0.00000000
                                      P - F
                                                     0        0.0000010        0.00612970    0.00000000
                                                     2        0.1200000        0.02254406    0.00000000
                                                     2        0.1800000       -0.13874529    0.00000000
                                                     2        0.3000000        0.38299049    0.00000000
                                                     2        0.5000000       -0.57923512    0.00000000
                                                     2        1.0000000        0.63021625    0.00000000
                                                     2        2.0000000       -0.79201034    0.00000000
                                      D - F
                                                     0        0.0000010       -0.00296226    0.00000000
                                                     2        0.1200000       -0.00547344    0.00000000
                                                     2        0.1400000        0.01837884    0.00000000
                                                     2        0.2400000       -0.05565704    0.00000000
                                                     2        0.4000000        0.15376597    0.00000000
                                                     2        0.8000000       -0.32464795    0.00000000
   14          1            1
                                      F and up 
                                                     0        0.0000010       -0.00000699    0.00000000
                                                     2        0.1200000        0.00123686    0.00000000
                                                     2        0.1800000       -0.00752022    0.00000000
                                                     2        0.2600000        0.02503380    0.00000000
                                                     2        0.4000000       -0.08702670    0.00000000
                                                     2        0.6000000        0.30134159    0.00000000
                                                     2        0.8000000       -0.50204959    0.00000000
                                                     2        1.2000000        0.52208372    0.00000000
                                      S - F
                                                     0        0.0000010       -0.01618346    0.00000000
                                                     2        0.1200000       -0.07880581    0.00000000
                                                     2        0.1600000        0.32040539    0.00000000
                                                     2        0.2400000       -0.47500956    0.00000000
                                                     2        0.5000000        0.54013668    0.00000000
                                                     2        1.5000000       -1.40434292    0.00000000
                                                     2        3.0000000        1.46283806    0.00000000
                                      P - F
                                                     0        0.0000010        0.00612970    0.00000000
                                                     2        0.1200000        0.02254406    0.00000000
                                                     2        0.1800000       -0.13874529    0.00000000
                                                     2        0.3000000        0.38299049    0.00000000
                                                     2        0.5000000       -0.57923512    0.00000000
                                                     2        1.0000000        0.63021625    0.00000000
                                                     2        2.0000000       -0.79201034    0.00000000
                                      D - F
                                                     0        0.0000010       -0.00296226    0.00000000
                                                     2        0.1200000       -0.00547344    0.00000000
                                                     2        0.1400000        0.01837884    0.00000000
                                                     2        0.2400000       -0.05565704    0.00000000
                                                     2        0.4000000        0.15376597    0.00000000
                                                     2        0.8000000       -0.32464795    0.00000000
   15          1            1
                                      F and up 
                                                     0        0.0000010       -0.00000699    0.00000000
                                                     2        0.1200000        0.00123686    0.00000000
                                                     2        0.1800000       -0.00752022    0.00000000
[...]
                                                     2        0.1200000        0.02254406    0.00000000
                                                     2        0.1800000       -0.13874529    0.00000000
                                                     2        0.3000000        0.38299049    0.00000000
                                                     2        0.5000000       -0.57923512    0.00000000
                                                     2        1.0000000        0.63021625    0.00000000
                                                     2        2.0000000       -0.79201034    0.00000000
                                      D - F
                                                     0        0.0000010       -0.00296226    0.00000000
                                                     2        0.1200000       -0.00547344    0.00000000
                                                     2        0.1400000        0.01837884    0.00000000
                                                     2        0.2400000       -0.05565704    0.00000000
                                                     2        0.4000000        0.15376597    0.00000000
                                                     2        0.8000000       -0.32464795    0.00000000
   16          1            1
                                      F and up 
                                                     0        0.0000010       -0.00000699    0.00000000
                                                     2        0.1200000        0.00123686    0.00000000
                                                     2        0.1800000       -0.00752022    0.00000000
                                                     2        0.2600000        0.02503380    0.00000000
                                                     2        0.4000000       -0.08702670    0.00000000
                                                     2        0.6000000        0.30134159    0.00000000
                                                     2        0.8000000       -0.50204959    0.00000000
                                                     2        1.2000000        0.52208372    0.00000000
                                      S - F
                                                     0        0.0000010       -0.01618346    0.00000000
                                                     2        0.1200000       -0.07880581    0.00000000
                                                     2        0.1600000        0.32040539    0.00000000
                                                     2        0.2400000       -0.47500956    0.00000000
                                                     2        0.5000000        0.54013668    0.00000000
                                                     2        1.5000000       -1.40434292    0.00000000
                                                     2        3.0000000        1.46283806    0.00000000
                                      P - F
                                                     0        0.0000010        0.00612970    0.00000000
                                                     2        0.1200000        0.02254406    0.00000000
                                                     2        0.1800000       -0.13874529    0.00000000
                                                     2        0.3000000        0.38299049    0.00000000
                                                     2        0.5000000       -0.57923512    0.00000000
                                                     2        1.0000000        0.63021625    0.00000000
                                                     2        2.0000000       -0.79201034    0.00000000
                                      D - F
                                                     0        0.0000010       -0.00296226    0.00000000
                                                     2        0.1200000       -0.00547344    0.00000000
                                                     2        0.1400000        0.01837884    0.00000000
                                                     2        0.2400000       -0.05565704    0.00000000
                                                     2        0.4000000        0.15376597    0.00000000
                                                     2        0.8000000       -0.32464795    0.00000000
   17          1            1
                                      F and up 
                                                     0        0.0000010       -0.00000699    0.00000000
                                                     2        0.1200000        0.00123686    0.00000000
                                                     2        0.1800000       -0.00752022    0.00000000
                                                     2        0.2600000        0.02503380    0.00000000
                                                     2        0.4000000       -0.08702670    0.00000000
                                                     2        0.6000000        0.30134159    0.00000000
                                                     2        0.8000000       -0.50204959    0.00000000
                                                     2        1.2000000        0.52208372    0.00000000
                                      S - F
                                                     0        0.0000010       -0.01618346    0.00000000
                                                     2        0.1200000       -0.07880581    0.00000000
                                                     2        0.1600000        0.32040539    0.00000000
                                                     2        0.2400000       -0.47500956    0.00000000
                                                     2        0.5000000        0.54013668    0.00000000
                                                     2        1.5000000       -1.40434292    0.00000000
                                                     2        3.0000000        1.46283806    0.00000000
                                      P - F
                                                     0        0.0000010        0.00612970    0.00000000
                                                     2        0.1200000        0.02254406    0.00000000
                                                     2        0.1800000       -0.13874529    0.00000000
                                                     2        0.3000000        0.38299049    0.00000000
                                                     2        0.5000000       -0.57923512    0.00000000
                                                     2        1.0000000        0.63021625    0.00000000
                                                     2        2.0000000       -0.79201034    0.00000000
                                      D - F
                                                     0        0.0000010       -0.00296226    0.00000000
                                                     2        0.1200000       -0.00547344    0.00000000
                                                     2        0.1400000        0.01837884    0.00000000
                                                     2        0.2400000       -0.05565704    0.00000000
                                                     2        0.4000000        0.15376597    0.00000000
                                                     2        0.8000000       -0.32464795    0.00000000
   18          1            1
                                      F and up 
                                                     0        0.0000010       -0.00000699    0.00000000
                                                     2        0.1200000        0.00123686    0.00000000
                                                     2        0.1800000       -0.00752022    0.00000000
                                                     2        0.2600000        0.02503380    0.00000000
                                                     2        0.4000000       -0.08702670    0.00000000
                                                     2        0.6000000        0.30134159    0.00000000
                                                     2        0.8000000       -0.50204959    0.00000000
                                                     2        1.2000000        0.52208372    0.00000000
                                      S - F
                                                     0        0.0000010       -0.01618346    0.00000000
                                                     2        0.1200000       -0.07880581    0.00000000
                                                     2        0.1600000        0.32040539    0.00000000
                                                     2        0.2400000       -0.47500956    0.00000000
                                                     2        0.5000000        0.54013668    0.00000000
                                                     2        1.5000000       -1.40434292    0.00000000
                                                     2        3.0000000        1.46283806    0.00000000
                                      P - F
                                                     0        0.0000010        0.00612970    0.00000000
                                                     2        0.1200000        0.02254406    0.00000000
                                                     2        0.1800000       -0.13874529    0.00000000
                                                     2        0.3000000        0.38299049    0.00000000
                                                     2        0.5000000       -0.57923512    0.00000000
                                                     2        1.0000000        0.63021625    0.00000000
                                                     2        2.0000000       -0.79201034    0.00000000
                                      D - F
                                                     0        0.0000010       -0.00296226    0.00000000
                                                     2        0.1200000       -0.00547344    0.00000000
                                                     2        0.1400000        0.01837884    0.00000000
                                                     2        0.2400000       -0.05565704    0.00000000
                                                     2        0.4000000        0.15376597    0.00000000
                                                     2        0.8000000       -0.32464795    0.00000000
 ======================================================================================================
   260 basis functions,   422 primitive gaussians,   274 cartesian basis functions
    28 alpha electrons       28 beta electrons
       nuclear repulsion energy       320.6522534808 Hartrees.
 NAtoms=   18 NActive=   18 NUniq=   18 SFac= 1.00D+00 NAtFMM=   60 NAOKFM=F Big=F
   1 Symmetry operations used in ECPInt.
 ECPInt:  NShTT=    7021 NPrTT=   28789 LenC2=    7016 LenP2D=   23196.
 LDataN:  DoStor=T MaxTD1= 6 Len=  172
 Initial guess from the checkpoint file:  "Grambow2020_wb97xd3_008238_reverse_mol1.chk"
 B after Tr=     0.931930    0.521287    0.047583
         Rot=   -0.082016   -0.223223   -0.327959    0.914269 Ang=-189.41 deg.
 >>>>>>>>>> Convergence criterion not met.
 SCF Done:  E(RHF) =  -324.990853331     A.U. after    2 cycles
            NFock=  1  Conv=0.41D-02     -V/T= 2.0001

 **********************************************************************

            Population analysis using the SCF Density.

 **********************************************************************

 Orbital symmetries:
       Occupied  (A) (A) (A) (A) (A) (A) (A) (A) (A) (A) (A) (A)
                 (A) (A) (A) (A) (A) (A) (A) (A) (A) (A) (A) (A)
                 (A) (A) (A) (A)
       Virtual   (A) (A) (A) (A) (A) (A) (A) (A) (A) (A) (A) (A)
                 (A) (A) (A) (A) (A) (A) (A) (A) (A) (A) (A) (A)
                 (A) (A) (A) (A) (A) (A) (A) (A) (A) (A) (A) (A)
                 (A) (A) (A) (A) (A) (A) (A) (A) (A) (A) (A) (A)
                 (A) (A) (A) (A) (A) (A) (A) (A) (A) (A) (A) (A)
                 (A) (A) (A) (A) (A) (A) (A) (A) (A) (A) (A) (A)
                 (A) (A) (A) (A) (A) (A) (A) (A) (A) (A) (A) (A)
                 (A) (A) (A) (A) (A) (A) (A) (A) (A) (A) (A) (A)
                 (A) (A) (A) (A) (A) (A) (A) (A) (A) (A) (A) (A)
                 (A) (A) (A) (A) (A) (A) (A) (A) (A) (A) (A) (A)
                 (A) (A) (A) (A) (A) (A) (A) (A) (A) (A) (A) (A)
                 (A) (A) (A) (A) (A) (A) (A) (A) (A) (A) (A) (A)
                 (A) (A) (A) (A) (A) (A) (A) (A) (A) (A) (A) (A)
                 (A) (A) (A) (A) (A) (A) (A) (A) (A) (A) (A) (A)
                 (A) (A) (A) (A) (A) (A) (A) (A) (A) (A) (A) (A)
                 (A) (A) (A) (A) (A) (A) (A) (A) (A) (A) (A) (A)
                 (A) (A) (A) (A) (A) (A) (A) (A) (A) (A) (A) (A)
                 (A) (A) (A) (A) (A) (A) (A) (A) (A) (A) (A) (A)
                 (A) (A) (A) (A) (A) (A) (A) (A) (A) (A) (A) (A)
                 (A) (A) (A) (A)
 The electronic state is 1-A.
 Alpha  occ. eigenvalues --  -20.48476 -15.69690 -11.33814 -11.29920 -11.29905
 Alpha  occ. eigenvalues --  -11.24520 -11.24041  -1.30486  -1.17084  -1.07448
 Alpha  occ. eigenvalues --   -0.98050  -0.95009  -0.82967  -0.76630  -0.68955
 Alpha  occ. eigenvalues --   -0.65096  -0.63344  -0.62573  -0.59959  -0.59064
 Alpha  occ. eigenvalues --   -0.57421  -0.54528  -0.52723  -0.50837  -0.49101
 Alpha  occ. eigenvalues --   -0.46249  -0.38860  -0.35511
 Alpha virt. eigenvalues --   -0.02799   0.02423   0.03743   0.04225   0.05030
 Alpha virt. eigenvalues --    0.05904   0.06278   0.06441   0.07143   0.08662
 Alpha virt. eigenvalues --    0.09180   0.09433   0.11748   0.13296   0.13442
 Alpha virt. eigenvalues --    0.14176   0.14604   0.15088   0.15562   0.16119
 Alpha virt. eigenvalues --    0.16908   0.17031   0.17823   0.18252   0.18628
 Alpha virt. eigenvalues --    0.18851   0.19016   0.20861   0.21875   0.22269
 Alpha virt. eigenvalues --    0.23026   0.23385   0.25022   0.25932   0.26593
 Alpha virt. eigenvalues --    0.28833   0.30614   0.31374   0.31819   0.32499
 Alpha virt. eigenvalues --    0.32995   0.34069   0.34971   0.36653   0.36880
 Alpha virt. eigenvalues --    0.37608   0.38464   0.39011   0.39722   0.40796
 Alpha virt. eigenvalues --    0.42010   0.42093   0.43461   0.44086   0.44491
 Alpha virt. eigenvalues --    0.44915   0.45702   0.46676   0.46786   0.48008
 Alpha virt. eigenvalues --    0.48514   0.49328   0.50015   0.50698   0.52138
 Alpha virt. eigenvalues --    0.53609   0.54797   0.55422   0.55978   0.56824
 Alpha virt. eigenvalues --    0.57832   0.59169   0.59864   0.60537   0.61096
 Alpha virt. eigenvalues --    0.61730   0.63116   0.63779   0.64288   0.64855
 Alpha virt. eigenvalues --    0.65852   0.66661   0.68107   0.68688   0.68832
 Alpha virt. eigenvalues --    0.70099   0.71350   0.71953   0.72645   0.73687
 Alpha virt. eigenvalues --    0.74859   0.76320   0.76799   0.77432   0.79037
 Alpha virt. eigenvalues --    0.79759   0.81095   0.81684   0.82503   0.83009
 Alpha virt. eigenvalues --    0.84219   0.84958   0.85796   0.86623   0.86804
 Alpha virt. eigenvalues --    0.89598   0.90489   0.91626   0.93329   0.94633
 Alpha virt. eigenvalues --    0.95059   0.96876   0.98467   1.00150   1.01024
 Alpha virt. eigenvalues --    1.03852   1.06339   1.07281   1.08307   1.09801
 Alpha virt. eigenvalues --    1.10184   1.12376   1.13662   1.18218   1.19596
 Alpha virt. eigenvalues --    1.21255   1.23094   1.25750   1.27930   1.30162
 Alpha virt. eigenvalues --    1.31365   1.33184   1.35381   1.37349   1.38964
 Alpha virt. eigenvalues --    1.40587   1.41194   1.43769   1.46092   1.48074
 Alpha virt. eigenvalues --    1.50621   1.53863   1.56828   1.58962   1.60472
 Alpha virt. eigenvalues --    1.61685   1.64555   1.67008   1.69958   1.71881
 Alpha virt. eigenvalues --    1.74658   1.75503   1.77379   1.79014   1.82932
 Alpha virt. eigenvalues --    1.84531   1.85985   1.87696   1.88071   1.90218
 Alpha virt. eigenvalues --    1.92713   1.93430   1.95572   1.97412   1.97835
 Alpha virt. eigenvalues --    1.99381   2.00033   2.03783   2.06726   2.09851
 Alpha virt. eigenvalues --    2.10798   2.12758   2.14764   2.15383   2.15960
 Alpha virt. eigenvalues --    2.18954   2.19420   2.21221   2.23093   2.26209
 Alpha virt. eigenvalues --    2.27248   2.28717   2.31089   2.32054   2.33520
 Alpha virt. eigenvalues --    2.36705   2.37147   2.39320   2.43809   2.46230
 Alpha virt. eigenvalues --    2.47718   2.49470   2.50761   2.53452   2.56872
 Alpha virt. eigenvalues --    2.57775   2.58497   2.60767   2.64233   2.66024
 Alpha virt. eigenvalues --    2.66999   2.68655   2.71536   2.74221   2.78517
 Alpha virt. eigenvalues --    2.80923   2.86291   2.87763   2.89993   2.91622
 Alpha virt. eigenvalues --    2.93510   2.97114   3.01276   3.02947   3.03866
 Alpha virt. eigenvalues --    3.05514   3.06835   3.13296   3.14569   3.18846
 Alpha virt. eigenvalues --    3.23191   3.25832   3.31603   3.45378   3.60363
 Alpha virt. eigenvalues --    3.70746   3.74557   3.79902   3.82171   3.84845
 Alpha virt. eigenvalues --    3.88890   4.13298
          Condensed to atoms (all electrons):
 Mulliken charges:
               1
     1  C    0.416212
     2  C    0.316579
     3  C    0.520209
     4  N   -0.273660
     5  C   -0.033813
     6  O   -0.777418
     7  C    0.749492
     8  H   -0.091579
     9  H   -0.119804
    10  H   -0.067373
    11  H   -0.094731
    12  H   -0.092657
    13  H   -0.091670
    14  H   -0.293224
    15  H    0.153091
    16  H   -0.014368
    17  H   -0.144246
    18  H   -0.061039
 Sum of Mulliken charges =  -0.00000
 Mulliken charges with hydrogens summed into heavy atoms:
               1
     1  C    0.137456
     2  C    0.129191
     3  C    0.135315
     4  N   -0.120569
     5  C   -0.033813
     6  O   -0.777418
     7  C    0.529838
 Electronic spatial extent (au):  <R**2>=            869.7476
 Charge=             -0.0000 electrons
 Dipole moment (field-independent basis, Debye):
    X=              3.1748    Y=              3.4342    Z=              3.9261  Tot=              6.1063

 Test job not archived.
 1\1\GINC-SE097\SP\RHF\Aug-CC-pVDZ\C5H11N1O1\OHZDE\09-Apr-2025\0\\#t hf
  aug-cc-pvdz iop(5/13=1,5/36=2,99/5=2) pseudo=read geom=check guess=(r
 ead,tcheck) scf=(maxcycle=1)\\title\\0,1\C,0,-1.81257512,-0.17309403,-
 1.00679814\C,0,-1.091419,0.84473458,-0.12991461\C,0,-0.37813529,0.2324
 936,1.06081998\N,0,1.8331328,-0.26604641,1.96565888\C,0,1.31155616,0.4
 0413583,0.91873589\O,0,1.60375362,1.5759677,0.58368013\C,0,1.59152061,
 -0.62535926,-0.35719928\H,0,-2.31133477,0.32078108,-1.8421168\H,0,-1.1
 2535403,-0.91176493,-1.42468875\H,0,-2.57418351,-0.71551566,-0.4417747
 \H,0,-0.37169393,1.43090239,-0.7064867\H,0,-1.81098307,1.57537451,0.24
 791938\H,0,-0.56314408,0.77227089,1.98431698\H,0,-0.60276356,-0.823439
 37,1.20197776\H,0,1.41209794,-1.19276079,1.9917477\H,0,1.10039496,-0.1
 3382739,-1.18998612\H,0,1.20600857,-1.62521377,-0.18163752\H,0,2.66752
 869,-0.62740096,-0.49220506\\Version=ES64L-G16RevC.01\State=1-A\HF=-32
 4.9908533\RMSD=4.143e-03\Dipole=-1.2547138,-2.0295945,-0.2793398\Quadr
 upole=-0.9716061,-0.8880417,1.8596478,-5.8824541,-2.8990986,-1.5980091
 \PG=C01 [X(C5H11N1O1)]\\@


 IF YOU DON'T HAVE THE LAW - ARGUE THE FACTS.
 IF YOU DON'T HAVE THE FACTS - ARGUE THE LAW.
 IF YOU DON'T HAVE EITHER - POUND THE TABLE.
 Job cpu time:       0 days  0 hours  1 minutes 29.9 seconds.
 Elapsed time:       0 days  0 hours  0 minutes  6.6 seconds.
 File lengths (MBytes):  RWF=     14 Int=      0 D2E=      0 Chk=      9 Scr=      1
 Normal termination of Gaussian 16 at Wed Apr  9 03:52:12 2025.
