 Entering Gaussian System, Link 0=g16
 Input=Grambow2020_wb97xd3_006167_reverse_mol2.gjf
 Output=Grambow2020_wb97xd3_006167_reverse_mol2.log
 Initial command:
 /arc/software/Gaussian/g16.c01/l1.exe "/tmp/slurm/4863021/Gau-4126645.inp" -scrdir="/tmp/slurm/4863021/"
 Entering Link 1 = /arc/software/Gaussian/g16.c01/l1.exe PID=   4126646.
  
 Copyright (c) 1988-2019, Gaussian, Inc.  All Rights Reserved.
  
 This is part of the Gaussian(R) 16 program.  It is based on
 the Gaussian(R) 09 system (copyright 2009, Gaussian, Inc.),
 the Gaussian(R) 03 system (copyright 2003, Gaussian, Inc.),
 the Gaussian(R) 98 system (copyright 1998, Gaussian, Inc.),
 the Gaussian(R) 94 system (copyright 1995, Gaussian, Inc.),
 the Gaussian 92(TM) system (copyright 1992, Gaussian, Inc.),
 the Gaussian 90(TM) system (copyright 1990, Gaussian, Inc.),
 the Gaussian 88(TM) system (copyright 1988, Gaussian, Inc.),
 the Gaussian 86(TM) system (copyright 1986, Carnegie Mellon
 University), and the Gaussian 82(TM) system (copyright 1983,
 Carnegie Mellon University). Gaussian is a federally registered
 trademark of Gaussian, Inc.
  
 This software contains proprietary and confidential information,
 including trade secrets, belonging to Gaussian, Inc.
  
 This software is provided under written license and may be
 used, copied, transmitted, or stored only in accord with that
 written license.
  
 The following legend is applicable only to US Government
 contracts under FAR:
  
                    RESTRICTED RIGHTS LEGEND
  
 Use, reproduction and disclosure by the US Government is
 subject to restrictions as set forth in subparagraphs (a)
 and (c) of the Commercial Computer Software - Restricted
 Rights clause in FAR 52.227-19.
  
 Gaussian, Inc.
 340 Quinnipiac St., Bldg. 40, Wallingford CT 06492
  
  
 ---------------------------------------------------------------
 Warning -- This program may not be used in any manner that
 competes with the business of Gaussian, Inc. or will provide
 assistance to any competitor of Gaussian, Inc.  The licensee
 of this program is prohibited from giving any competitor of
 Gaussian, Inc. access to this program.  By using this program,
 the user acknowledges that Gaussian, Inc. is engaged in the
 business of creating and licensing software in the field of
 computational chemistry and represents and warrants to the
 licensee that it is not a competitor of Gaussian, Inc. and that
 it will not use this program in any manner prohibited above.
 ---------------------------------------------------------------
  

 Cite this work as:
 Gaussian 16, Revision C.01,
 M. J. Frisch, G. W. Trucks, H. B. Schlegel, G. E. Scuseria, 
 M. A. Robb, J. R. Cheeseman, G. Scalmani, V. Barone, 
 G. A. Petersson, H. Nakatsuji, X. Li, M. Caricato, A. V. Marenich, 
 J. Bloino, B. G. Janesko, R. Gomperts, B. Mennucci, H. P. Hratchian, 
 J. V. Ortiz, A. F. Izmaylov, J. L. Sonnenberg, D. Williams-Young, 
 F. Ding, F. Lipparini, F. Egidi, J. Goings, B. Peng, A. Petrone, 
 T. Henderson, D. Ranasinghe, V. G. Zakrzewski, J. Gao, N. Rega, 
 G. Zheng, W. Liang, M. Hada, M. Ehara, K. Toyota, R. Fukuda, 
 J. Hasegawa, M. Ishida, T. Nakajima, Y. Honda, O. Kitao, H. Nakai, 
 T. Vreven, K. Throssell, J. A. Montgomery, Jr., J. E. Peralta, 
 F. Ogliaro, M. J. Bearpark, J. J. Heyd, E. N. Brothers, K. N. Kudin, 
 V. N. Staroverov, T. A. Keith, R. Kobayashi, J. Normand, 
 K. Raghavachari, A. P. Rendell, J. C. Burant, S. S. Iyengar, 
 J. Tomasi, M. Cossi, J. M. Millam, M. Klene, C. Adamo, R. Cammi, 
 J. W. Ochterski, R. L. Martin, K. Morokuma, O. Farkas, 
 J. B. Foresman, and D. J. Fox, Gaussian, Inc., Wallingford CT, 2019.
 
 ******************************************
 Gaussian 16:  ES64L-G16RevC.01  3-Jul-2019
                 9-Apr-2025 
 ******************************************
 %nprocs=16
 Will use up to   16 processors via shared memory.
 %mem=30GB
 %chk=Grambow2020_wb97xd3_006167_reverse_mol2.chk
 ----------------------------------------------------------------------
 #t hf aug-cc-pvdz symm=none int=(grid=ultrafine) guess=(read,tcheck) s
 table=(opt,rrhf)
 ----------------------------------------------------------------------
 -----
 title
 -----
 Symbolic Z-matrix:
 Charge =  0 Multiplicity = 1
 C                     1.29826   0.47302   0.07846 
 C                     0.20396  -0.43731  -0.46927 
 C                    -0.56196  -1.16157   0.6877 
 C                    -0.93768   0.16492  -1.15886 
 C                    -1.33439   1.43165  -0.72856 
 N                    -1.75465   2.48255  -0.46672 
 H                     1.79177   1.01699  -0.72809 
 H                     2.05642  -0.11627   0.59777 
 H                     0.89026   1.20373   0.77974 
 H                     0.62753  -1.22919  -1.09145 
 H                    -1.02166  -0.44386   1.36818 
 H                     0.18175  -1.73525   1.24153 
 H                    -1.32494  -1.8431    0.31537 
 
                    Distance matrix (angstroms):
                    1          2          3          4          5
     1  C    0.000000
     2  C    1.525187   0.000000
     3  C    2.550195   1.565181   0.000000
     4  C    2.573961   1.463400   2.304455   0.000000
     5  C    2.915659   2.434494   3.054056   1.395404   0.000000
     6  N    3.695358   3.515928   4.004351   2.553024   1.161710
     7  H    1.090862   2.168667   3.505806   2.891621   3.153537
     8  H    1.091681   2.161770   2.820758   3.482732   3.956363
     9  H    1.091876   2.173486   2.777060   2.859830   2.697399
    10  H    2.171650   1.092513   2.141227   2.097130   3.325791
    11  H    2.808219   2.208721   1.090639   2.600691   2.830492
    12  H    2.734191   2.147554   1.090382   3.259692   4.026064
    13  H    3.507377   2.220235   1.088685   2.521002   3.437135
                    6          7          8          9         10
     6  N    0.000000
     7  H    3.846203   0.000000
     8  H    4.734057   1.764153   0.000000
     9  H    3.191329   1.766677   1.770723   0.000000
    10  H    4.454446   2.555933   2.476640   3.080494   0.000000
    11  H    3.531006   3.800508   3.189900   2.591573   3.063721
    12  H    4.945461   3.747856   2.559281   3.058241   2.428499
    13  H    4.416738   4.356926   3.807263   3.795508   2.483582
                   11         12         13
    11  H    0.000000
    12  H    1.769726   0.000000
    13  H    1.777150   1.771859   0.000000
 Symmetry turned off by external request.
 Rotational constants (GHZ):           6.1462069           2.5788706           2.2094261
   201 basis functions,   335 primitive gaussians,   213 cartesian basis functions
    22 alpha electrons       22 beta electrons
       nuclear repulsion energy       204.8772371879 Hartrees.
 NAtoms=   13 NActive=   13 NUniq=   13 SFac= 1.00D+00 NAtFMM=   60 NAOKFM=F Big=F
 ExpMin= 2.97D-02 ExpMax= 9.05D+03 ExpMxC= 3.09D+02 IAcc=3 IRadAn=         5 AccDes= 0.00D+00
 Harris functional with IExCor=  205 and IRadAn=       5 diagonalized for initial guess.
 HarFok:  IExCor=  205 AccDes= 0.00D+00 IRadAn=         5 IDoV= 1 UseB2=F ITyADJ=14
 ICtDFT=  3500011 ScaDFX=  1.000000  1.000000  1.000000  1.000000
 FoFCou: FMM=F IPFlag=           0 FMFlag=      100000 FMFlg1=           0
         NFxFlg=           0 DoJE=T BraDBF=F KetDBF=T FulRan=T
         wScrn=  0.000000 ICntrl=       500 IOpCl=  0 I1Cent=   200000004 NGrid=           0
         NMat0=    1 NMatS0=      1 NMatT0=    0 NMatD0=    1 NMtDS0=    0 NMtDT0=    0
 Symmetry not used in FoFCou.
 SCF Done:  E(RHF) =  -247.766984207     A.U. after   17 cycles
            NFock= 17  Conv=0.50D-08     -V/T= 2.0009

 **********************************************************************

            Population analysis using the SCF Density.

 **********************************************************************

 Alpha  occ. eigenvalues --  -15.61138 -11.31725 -11.29341 -11.27697 -11.26317
 Alpha  occ. eigenvalues --  -11.24586  -1.24408  -1.13748  -0.97577  -0.96336
 Alpha  occ. eigenvalues --   -0.83626  -0.67190  -0.64809  -0.59589  -0.58702
 Alpha  occ. eigenvalues --   -0.57200  -0.54454  -0.52699  -0.51607  -0.50504
 Alpha  occ. eigenvalues --   -0.48365  -0.37425
 Alpha virt. eigenvalues --    0.01182   0.02947   0.04445   0.04532   0.05467
 Alpha virt. eigenvalues --    0.06859   0.06971   0.07646   0.09026   0.09972
 Alpha virt. eigenvalues --    0.12187   0.13963   0.14303   0.14765   0.15113
 Alpha virt. eigenvalues --    0.15368   0.15982   0.16048   0.16609   0.16856
 Alpha virt. eigenvalues --    0.18576   0.18832   0.19407   0.19773   0.21078
 Alpha virt. eigenvalues --    0.22265   0.23265   0.23549   0.25374   0.26527
 Alpha virt. eigenvalues --    0.27655   0.28745   0.30450   0.31221   0.32319
 Alpha virt. eigenvalues --    0.32793   0.34463   0.35880   0.36567   0.38722
 Alpha virt. eigenvalues --    0.38992   0.40274   0.41055   0.42843   0.44535
 Alpha virt. eigenvalues --    0.45047   0.45701   0.45945   0.46831   0.47556
 Alpha virt. eigenvalues --    0.48533   0.49469   0.49687   0.51300   0.53507
 Alpha virt. eigenvalues --    0.55977   0.56575   0.57665   0.58581   0.58681
 Alpha virt. eigenvalues --    0.59257   0.60467   0.61065   0.61591   0.62465
 Alpha virt. eigenvalues --    0.64470   0.64750   0.65475   0.67060   0.68335
 Alpha virt. eigenvalues --    0.69515   0.70271   0.71854   0.72692   0.74410
 Alpha virt. eigenvalues --    0.74931   0.75651   0.76440   0.78090   0.78763
 Alpha virt. eigenvalues --    0.79645   0.81627   0.83099   0.85297   0.87491
 Alpha virt. eigenvalues --    0.88150   0.90430   0.91658   0.92816   0.94760
 Alpha virt. eigenvalues --    0.95005   0.97270   0.97661   1.00535   1.02221
 Alpha virt. eigenvalues --    1.02911   1.06078   1.06689   1.10287   1.11186
 Alpha virt. eigenvalues --    1.13820   1.18843   1.19741   1.25199   1.25960
 Alpha virt. eigenvalues --    1.28579   1.29742   1.33400   1.33812   1.37419
 Alpha virt. eigenvalues --    1.39137   1.42134   1.45478   1.47557   1.53068
 Alpha virt. eigenvalues --    1.56154   1.57936   1.59986   1.62626   1.67599
 Alpha virt. eigenvalues --    1.69516   1.71115   1.73031   1.74153   1.77649
 Alpha virt. eigenvalues --    1.79218   1.81234   1.82310   1.87581   1.89547
 Alpha virt. eigenvalues --    1.90332   1.92845   1.96915   1.97778   2.00168
 Alpha virt. eigenvalues --    2.03173   2.05249   2.09554   2.10592   2.12651
 Alpha virt. eigenvalues --    2.15270   2.16320   2.20655   2.23606   2.24788
 Alpha virt. eigenvalues --    2.26536   2.28314   2.31130   2.32510   2.35667
 Alpha virt. eigenvalues --    2.39572   2.41952   2.44874   2.46510   2.51311
 Alpha virt. eigenvalues --    2.53029   2.55198   2.60732   2.62865   2.65416
 Alpha virt. eigenvalues --    2.68417   2.70864   2.72281   2.76693   2.81276
 Alpha virt. eigenvalues --    2.86401   2.88114   2.91433   2.95879   2.98473
 Alpha virt. eigenvalues --    3.02475   3.09834   3.12779   3.14059   3.22626
 Alpha virt. eigenvalues --    3.25119   3.34841   3.44968   3.55578
          Condensed to atoms (all electrons):
 Mulliken charges:
               1
     1  C    0.718023
     2  C   -0.561059
     3  C    0.626221
     4  C   -0.111932
     5  C    0.124107
     6  N   -0.389449
     7  H   -0.026144
     8  H   -0.047395
     9  H   -0.007211
    10  H   -0.129518
    11  H   -0.065628
    12  H   -0.061907
    13  H   -0.068110
 Sum of Mulliken charges =  -0.00000
 Mulliken charges with hydrogens summed into heavy atoms:
               1
     1  C    0.637274
     2  C   -0.690576
     3  C    0.430576
     4  C   -0.111932
     5  C    0.124107
     6  N   -0.389449
 Electronic spatial extent (au):  <R**2>=            669.1214
 Charge=             -0.0000 electrons
 Dipole moment (field-independent basis, Debye):
    X=              2.7210    Y=             -2.8925    Z=              1.2402  Tot=              4.1604
 NROrb=    201 NOA=    22 NOB=    22 NVA=   179 NVB=   179

 **** Warning!!: The largest alpha MO coefficient is  0.56570756D+02

    12 initial guesses have been made.
 Iteration     1 Dimension    12 NMult     0 NNew     12
 Iteration     2 Dimension    24 NMult    12 NNew     12
 Iteration     3 Dimension    27 NMult    24 NNew      3
 Iteration     4 Dimension    30 NMult    27 NNew      3
 Iteration     5 Dimension    33 NMult    30 NNew      3
 Iteration     6 Dimension    36 NMult    33 NNew      3
 ***********************************************************************
 Stability analysis using <AA,BB:AA,BB> singles matrix:
 ***********************************************************************
 Ground to excited state transition densities written to RWF  633

 Eigenvectors of the stability matrix:
 
 Excited state symmetry could not be determined.
 Eigenvector   1:      Singlet-?Sym  Eigenvalue= 0.0688305  <S**2>=0.000
      22 -> 23         0.64335
      22 -> 25        -0.12247
 The wavefunction is stable under the perturbations considered.
 The wavefunction is already stable.

 **********************************************************************

            Population analysis using the SCF Density.

 **********************************************************************

 Alpha  occ. eigenvalues --  -15.61138 -11.31725 -11.29341 -11.27697 -11.26317
 Alpha  occ. eigenvalues --  -11.24586  -1.24408  -1.13748  -0.97577  -0.96336
 Alpha  occ. eigenvalues --   -0.83626  -0.67190  -0.64809  -0.59589  -0.58702
 Alpha  occ. eigenvalues --   -0.57200  -0.54454  -0.52699  -0.51607  -0.50504
 Alpha  occ. eigenvalues --   -0.48365  -0.37425
 Alpha virt. eigenvalues --    0.01182   0.02947   0.04445   0.04532   0.05467
 Alpha virt. eigenvalues --    0.06859   0.06971   0.07646   0.09026   0.09972
 Alpha virt. eigenvalues --    0.12187   0.13963   0.14303   0.14765   0.15113
 Alpha virt. eigenvalues --    0.15368   0.15982   0.16048   0.16609   0.16856
 Alpha virt. eigenvalues --    0.18576   0.18832   0.19407   0.19773   0.21078
 Alpha virt. eigenvalues --    0.22265   0.23265   0.23549   0.25374   0.26527
 Alpha virt. eigenvalues --    0.27655   0.28745   0.30450   0.31221   0.32319
 Alpha virt. eigenvalues --    0.32793   0.34463   0.35880   0.36567   0.38722
 Alpha virt. eigenvalues --    0.38992   0.40274   0.41055   0.42843   0.44535
 Alpha virt. eigenvalues --    0.45047   0.45701   0.45945   0.46831   0.47556
 Alpha virt. eigenvalues --    0.48533   0.49469   0.49687   0.51300   0.53507
 Alpha virt. eigenvalues --    0.55977   0.56575   0.57665   0.58581   0.58681
 Alpha virt. eigenvalues --    0.59257   0.60467   0.61065   0.61591   0.62465
 Alpha virt. eigenvalues --    0.64470   0.64750   0.65475   0.67060   0.68335
 Alpha virt. eigenvalues --    0.69515   0.70271   0.71854   0.72692   0.74410
 Alpha virt. eigenvalues --    0.74931   0.75651   0.76440   0.78090   0.78763
 Alpha virt. eigenvalues --    0.79645   0.81627   0.83099   0.85297   0.87491
 Alpha virt. eigenvalues --    0.88150   0.90430   0.91658   0.92816   0.94760
 Alpha virt. eigenvalues --    0.95005   0.97270   0.97661   1.00535   1.02221
 Alpha virt. eigenvalues --    1.02911   1.06078   1.06689   1.10287   1.11186
 Alpha virt. eigenvalues --    1.13820   1.18843   1.19741   1.25199   1.25960
 Alpha virt. eigenvalues --    1.28579   1.29742   1.33400   1.33812   1.37419
 Alpha virt. eigenvalues --    1.39137   1.42134   1.45478   1.47557   1.53068
 Alpha virt. eigenvalues --    1.56154   1.57936   1.59986   1.62626   1.67599
 Alpha virt. eigenvalues --    1.69516   1.71115   1.73031   1.74153   1.77649
 Alpha virt. eigenvalues --    1.79218   1.81234   1.82310   1.87581   1.89547
 Alpha virt. eigenvalues --    1.90332   1.92845   1.96915   1.97778   2.00168
 Alpha virt. eigenvalues --    2.03173   2.05249   2.09554   2.10592   2.12651
 Alpha virt. eigenvalues --    2.15270   2.16320   2.20655   2.23606   2.24788
 Alpha virt. eigenvalues --    2.26536   2.28314   2.31130   2.32510   2.35667
 Alpha virt. eigenvalues --    2.39572   2.41952   2.44874   2.46510   2.51311
 Alpha virt. eigenvalues --    2.53029   2.55198   2.60732   2.62865   2.65416
 Alpha virt. eigenvalues --    2.68417   2.70864   2.72281   2.76693   2.81276
 Alpha virt. eigenvalues --    2.86401   2.88114   2.91433   2.95879   2.98473
 Alpha virt. eigenvalues --    3.02475   3.09834   3.12779   3.14059   3.22626
 Alpha virt. eigenvalues --    3.25119   3.34841   3.44968   3.55578
          Condensed to atoms (all electrons):
 Mulliken charges:
               1
     1  C    0.718023
     2  C   -0.561059
     3  C    0.626221
     4  C   -0.111932
     5  C    0.124107
     6  N   -0.389449
     7  H   -0.026144
     8  H   -0.047395
     9  H   -0.007211
    10  H   -0.129518
    11  H   -0.065628
    12  H   -0.061907
    13  H   -0.068110
 Sum of Mulliken charges =  -0.00000
 Mulliken charges with hydrogens summed into heavy atoms:
               1
     1  C    0.637274
     2  C   -0.690576
     3  C    0.430576
     4  C   -0.111932
     5  C    0.124107
     6  N   -0.389449
 Electronic spatial extent (au):  <R**2>=            669.1214
 Charge=             -0.0000 electrons
 Dipole moment (field-independent basis, Debye):
    X=              2.7210    Y=             -2.8925    Z=              1.2402  Tot=              4.1604
 Unable to Open any file for archive entry.
 1\1\GINC-SE045\Stability\RHF\Aug-CC-pVDZ\C5H7N1\OHZDE\09-Apr-2025\0\\#
 t hf aug-cc-pvdz symm=none int=(grid=ultrafine) guess=(read,tcheck) st
 able=(opt,rrhf)\\title\\0,1\C,0,1.29825632,0.47302139,0.07845641\C,0,0
 .20396025,-0.43731003,-0.46927406\C,0,-0.56196323,-1.16157302,0.687702
 74\C,0,-0.93767866,0.1649153,-1.15885629\C,0,-1.33438766,1.43165193,-0
 .72856177\N,0,-1.75465259,2.48254966,-0.46671739\H,0,1.79176831,1.0169
 9231,-0.72809289\H,0,2.05642127,-0.11627423,0.59776644\H,0,0.8902566,1
 .2037286,0.77973789\H,0,0.62753333,-1.22918755,-1.09144831\H,0,-1.0216
 6313,-0.44385884,1.36818471\H,0,0.18174641,-1.73525092,1.24152875\H,0,
 -1.32493621,-1.84310061,0.31537477\\Version=ES64L-G16RevC.01\HF=-247.7
 669842\RMSD=4.986e-09\Dipole=1.0705393,-1.1379928,0.4879458\Quadrupole
 =0.1644679,-2.2122404,2.0477725,3.8856089,-2.5425714,-0.4244865\PG=Unk
 nown\\@
 The archive entry for this job was punched.


 NOT WHAT WE DID SHALL BE THE TEST
 WHEN ACT AND WILL ARE DONE,
 BUT WHAT OUR LORD INFERS WE WOULD-
 HAD WE DIVINER BEEN.
           EMILY DICKINSON  POEMS NO. CLXXV
 Job cpu time:       0 days  0 hours  5 minutes 36.3 seconds.
 Elapsed time:       0 days  0 hours  0 minutes 25.2 seconds.
 File lengths (MBytes):  RWF=    184 Int=      0 D2E=      0 Chk=      6 Scr=      1
 Normal termination of Gaussian 16 at Wed Apr  9 03:21:41 2025.
 Initial command:
 /arc/software/Gaussian/g16.c01/l1.exe "/tmp/slurm/4863021/Gau-4126645.inp" -scrdir="/tmp/slurm/4863021/"
 Entering Link 1 = /arc/software/Gaussian/g16.c01/l1.exe PID=   4126891.
  
 Copyright (c) 1988-2019, Gaussian, Inc.  All Rights Reserved.
  
 This is part of the Gaussian(R) 16 program.  It is based on
 the Gaussian(R) 09 system (copyright 2009, Gaussian, Inc.),
 the Gaussian(R) 03 system (copyright 2003, Gaussian, Inc.),
 the Gaussian(R) 98 system (copyright 1998, Gaussian, Inc.),
 the Gaussian(R) 94 system (copyright 1995, Gaussian, Inc.),
 the Gaussian 92(TM) system (copyright 1992, Gaussian, Inc.),
 the Gaussian 90(TM) system (copyright 1990, Gaussian, Inc.),
 the Gaussian 88(TM) system (copyright 1988, Gaussian, Inc.),
 the Gaussian 86(TM) system (copyright 1986, Carnegie Mellon
 University), and the Gaussian 82(TM) system (copyright 1983,
 Carnegie Mellon University). Gaussian is a federally registered
 trademark of Gaussian, Inc.
  
 This software contains proprietary and confidential information,
 including trade secrets, belonging to Gaussian, Inc.
  
 This software is provided under written license and may be
 used, copied, transmitted, or stored only in accord with that
 written license.
  
 The following legend is applicable only to US Government
 contracts under FAR:
  
                    RESTRICTED RIGHTS LEGEND
  
 Use, reproduction and disclosure by the US Government is
 subject to restrictions as set forth in subparagraphs (a)
 and (c) of the Commercial Computer Software - Restricted
 Rights clause in FAR 52.227-19.
  
 Gaussian, Inc.
 340 Quinnipiac St., Bldg. 40, Wallingford CT 06492
  
  
 ---------------------------------------------------------------
 Warning -- This program may not be used in any manner that
 competes with the business of Gaussian, Inc. or will provide
 assistance to any competitor of Gaussian, Inc.  The licensee
 of this program is prohibited from giving any competitor of
 Gaussian, Inc. access to this program.  By using this program,
 the user acknowledges that Gaussian, Inc. is engaged in the
 business of creating and licensing software in the field of
 computational chemistry and represents and warrants to the
 licensee that it is not a competitor of Gaussian, Inc. and that
 it will not use this program in any manner prohibited above.
 ---------------------------------------------------------------
  

 Cite this work as:
 Gaussian 16, Revision C.01,
 M. J. Frisch, G. W. Trucks, H. B. Schlegel, G. E. Scuseria, 
 M. A. Robb, J. R. Cheeseman, G. Scalmani, V. Barone, 
 G. A. Petersson, H. Nakatsuji, X. Li, M. Caricato, A. V. Marenich, 
 J. Bloino, B. G. Janesko, R. Gomperts, B. Mennucci, H. P. Hratchian, 
 J. V. Ortiz, A. F. Izmaylov, J. L. Sonnenberg, D. Williams-Young, 
 F. Ding, F. Lipparini, F. Egidi, J. Goings, B. Peng, A. Petrone, 
 T. Henderson, D. Ranasinghe, V. G. Zakrzewski, J. Gao, N. Rega, 
 G. Zheng, W. Liang, M. Hada, M. Ehara, K. Toyota, R. Fukuda, 
 J. Hasegawa, M. Ishida, T. Nakajima, Y. Honda, O. Kitao, H. Nakai, 
 T. Vreven, K. Throssell, J. A. Montgomery, Jr., J. E. Peralta, 
 F. Ogliaro, M. J. Bearpark, J. J. Heyd, E. N. Brothers, K. N. Kudin, 
 V. N. Staroverov, T. A. Keith, R. Kobayashi, J. Normand, 
 K. Raghavachari, A. P. Rendell, J. C. Burant, S. S. Iyengar, 
 J. Tomasi, M. Cossi, J. M. Millam, M. Klene, C. Adamo, R. Cammi, 
 J. W. Ochterski, R. L. Martin, K. Morokuma, O. Farkas, 
 J. B. Foresman, and D. J. Fox, Gaussian, Inc., Wallingford CT, 2019.
 
 ******************************************
 Gaussian 16:  ES64L-G16RevC.01  3-Jul-2019
                 9-Apr-2025 
 ******************************************
 %nprocs=16
 Will use up to   16 processors via shared memory.
 %mem=30GB
 %chk=Grambow2020_wb97xd3_006167_reverse_mol2.chk
 ----------------------------------------------------------------------
 #t hf aug-cc-pvdz iop(5/13=1,5/36=2,99/5=2) pseudo=read geom=check gue
 ss=(read,tcheck) scf=(maxcycle=1)
 ----------------------------------------------------------------------
 -----
 title
 -----
 Structure from the checkpoint file:  "Grambow2020_wb97xd3_006167_reverse_mol2.chk"
 Charge =  0 Multiplicity = 1
 Z-Matrix found in chk file.
 C,0,1.29825632,0.47302139,0.07845641
 C,0,0.20396025,-0.43731003,-0.46927406
 C,0,-0.56196323,-1.16157302,0.68770274
 C,0,-0.93767866,0.1649153,-1.15885629
 C,0,-1.33438766,1.43165193,-0.72856177
 N,0,-1.75465259,2.48254966,-0.46671739
 H,0,1.79176831,1.01699231,-0.72809289
 H,0,2.05642127,-0.11627423,0.59776644
 H,0,0.8902566,1.2037286,0.77973789
 H,0,0.62753333,-1.22918755,-1.09144831
 H,0,-1.02166313,-0.44385884,1.36818471
 H,0,0.18174641,-1.73525092,1.24152875
 H,0,-1.32493621,-1.84310061,0.31537477
 Recover connectivity data from disk.
                    Distance matrix (angstroms):
                    1          2          3          4          5
     1  C    0.000000
     2  C    1.525187   0.000000
     3  C    2.550195   1.565181   0.000000
     4  C    2.573961   1.463400   2.304455   0.000000
     5  C    2.915659   2.434494   3.054056   1.395404   0.000000
     6  N    3.695358   3.515928   4.004351   2.553024   1.161710
     7  H    1.090862   2.168667   3.505806   2.891621   3.153537
     8  H    1.091681   2.161770   2.820758   3.482732   3.956363
     9  H    1.091876   2.173486   2.777060   2.859830   2.697399
    10  H    2.171650   1.092513   2.141227   2.097130   3.325791
    11  H    2.808219   2.208721   1.090639   2.600691   2.830492
    12  H    2.734191   2.147554   1.090382   3.259692   4.026064
    13  H    3.507377   2.220235   1.088685   2.521002   3.437135
                    6          7          8          9         10
     6  N    0.000000
     7  H    3.846203   0.000000
     8  H    4.734057   1.764153   0.000000
     9  H    3.191329   1.766677   1.770723   0.000000
    10  H    4.454446   2.555933   2.476640   3.080494   0.000000
    11  H    3.531006   3.800508   3.189900   2.591573   3.063721
    12  H    4.945461   3.747856   2.559281   3.058241   2.428499
    13  H    4.416738   4.356926   3.807263   3.795508   2.483582
                   11         12         13
    11  H    0.000000
    12  H    1.769726   0.000000
    13  H    1.777150   1.771859   0.000000
 Framework group  C1[X(C5H7N)]
 Deg. of freedom    33
                         Standard orientation:                         
 ---------------------------------------------------------------------
 Center     Atomic      Atomic             Coordinates (Angstroms)
 Number     Number       Type             X           Y           Z
 ---------------------------------------------------------------------
      1          6           0       -0.966790    1.408601   -0.173240
      2          6           0       -0.920117    0.034984    0.487966
      3          6           0       -1.354122   -1.089313   -0.510726
      4          6           0        0.375104   -0.509127    0.897703
      5          6           0        1.480441   -0.147773    0.126466
      6          7           0        2.473546    0.084246   -0.429845
      7          1           0       -0.610782    2.181368    0.509452
      8          1           0       -1.991184    1.658026   -0.456385
      9          1           0       -0.345155    1.436705   -1.070442
     10          1           0       -1.618941   -0.020868    1.325887
     11          1           0       -0.708077   -1.109456   -1.389198
     12          1           0       -2.367040   -0.845430   -0.832366
     13          1           0       -1.360738   -2.074296   -0.047045
 ---------------------------------------------------------------------
 Rotational constants (GHZ):           6.1462069           2.5788706           2.2094261
 ======================================================================================================
                                       Pseudopotential Parameters
 ======================================================================================================
  Center     Atomic      Valence      Angular      Power
  Number     Number     Electrons     Momentum     of R      Exponent        Coefficient   SO-Coeffient
 ======================================================================================================
    1          6            6
                                      G and up 
                                                     0        0.0000010       -0.00011185    0.00000000
                                                     2        0.1200000       -0.02301220    0.00000000
                                                     2        0.1400000        0.13317600    0.00000000
                                                     2        0.1600000       -0.19690668    0.00000000
                                                     2        0.2200000        0.23163694    0.00000000
                                                     2        0.3000000       -0.36920489    0.00000000
                                                     2        0.4000000        0.36389709    0.00000000
                                                     2        0.7000000       -0.38862160    0.00000000
                                                     2        1.3000000        0.80803421    0.00000000
                                      S - G
                                                     0        0.0000010        0.00312304    0.00000000
                                                     2        0.1200000       -0.00632892    0.00000000
                                                     2        0.2200000       -0.03780897    0.00000000
                                                     2        0.4000000        0.26269560    0.00000000
                                                     2        0.9000000       -0.28209514    0.00000000
                                                     2        1.5000000       -0.72686737    0.00000000
                                      P - G
                                                     0        0.0000010       -0.01465594    0.00000000
                                                     2        0.1200000        0.07908409    0.00000000
                                                     2        0.1800000       -0.30615861    0.00000000
                                                     2        0.2600000        0.41506950    0.00000000
                                                     2        0.5000000       -0.36252345    0.00000000
                                                     2        0.9000000        0.15124193    0.00000000
                                                     2        3.0000000       -0.80425677    0.00000000
                                      D - G
                                                     0        0.0000010        0.01149631    0.00000000
                                                     2        0.1200000       -0.04713561    0.00000000
                                                     2        0.1600000        0.10865096    0.00000000
                                                     2        0.2800000       -0.15816701    0.00000000
                                                     2        0.7000000        0.65478804    0.00000000
                                                     2        1.3000000       -1.73816624    0.00000000
                                      F - G
                                                     0        0.0000010        0.00481868    0.00000000
                                                     2        0.1200000       -0.04746842    0.00000000
                                                     2        0.1600000        0.09327889    0.00000000
                                                     2        0.4000000       -0.19693326    0.00000000
                                                     2        0.9000000        0.34938253    0.00000000
    2          6            6
                                      G and up 
                                                     0        0.0000010       -0.00011185    0.00000000
                                                     2        0.1200000       -0.02301220    0.00000000
                                                     2        0.1400000        0.13317600    0.00000000
                                                     2        0.1600000       -0.19690668    0.00000000
                                                     2        0.2200000        0.23163694    0.00000000
                                                     2        0.3000000       -0.36920489    0.00000000
                                                     2        0.4000000        0.36389709    0.00000000
                                                     2        0.7000000       -0.38862160    0.00000000
                                                     2        1.3000000        0.80803421    0.00000000
                                      S - G
                                                     0        0.0000010        0.00312304    0.00000000
                                                     2        0.1200000       -0.00632892    0.00000000
                                                     2        0.2200000       -0.03780897    0.00000000
                                                     2        0.4000000        0.26269560    0.00000000
                                                     2        0.9000000       -0.28209514    0.00000000
                                                     2        1.5000000       -0.72686737    0.00000000
                                      P - G
                                                     0        0.0000010       -0.01465594    0.00000000
                                                     2        0.1200000        0.07908409    0.00000000
                                                     2        0.1800000       -0.30615861    0.00000000
                                                     2        0.2600000        0.41506950    0.00000000
                                                     2        0.5000000       -0.36252345    0.00000000
                                                     2        0.9000000        0.15124193    0.00000000
                                                     2        3.0000000       -0.80425677    0.00000000
                                      D - G
                                                     0        0.0000010        0.01149631    0.00000000
                                                     2        0.1200000       -0.04713561    0.00000000
                                                     2        0.1600000        0.10865096    0.00000000
                                                     2        0.2800000       -0.15816701    0.00000000
                                                     2        0.7000000        0.65478804    0.00000000
                                                     2        1.3000000       -1.73816624    0.00000000
                                      F - G
                                                     0        0.0000010        0.00481868    0.00000000
                                                     2        0.1200000       -0.04746842    0.00000000
                                                     2        0.1600000        0.09327889    0.00000000
                                                     2        0.4000000       -0.19693326    0.00000000
                                                     2        0.9000000        0.34938253    0.00000000
    3          6            6
                                      G and up 
                                                     0        0.0000010       -0.00011185    0.00000000
                                                     2        0.1200000       -0.02301220    0.00000000
                                                     2        0.1400000        0.13317600    0.00000000
                                                     2        0.1600000       -0.19690668    0.00000000
                                                     2        0.2200000        0.23163694    0.00000000
                                                     2        0.3000000       -0.36920489    0.00000000
                                                     2        0.4000000        0.36389709    0.00000000
                                                     2        0.7000000       -0.38862160    0.00000000
                                                     2        1.3000000        0.80803421    0.00000000
                                      S - G
                                                     0        0.0000010        0.00312304    0.00000000
                                                     2        0.1200000       -0.00632892    0.00000000
                                                     2        0.2200000       -0.03780897    0.00000000
                                                     2        0.4000000        0.26269560    0.00000000
                                                     2        0.9000000       -0.28209514    0.00000000
                                                     2        1.5000000       -0.72686737    0.00000000
                                      P - G
                                                     0        0.0000010       -0.01465594    0.00000000
                                                     2        0.1200000        0.07908409    0.00000000
                                                     2        0.1800000       -0.30615861    0.00000000
                                                     2        0.2600000        0.41506950    0.00000000
                                                     2        0.5000000       -0.36252345    0.00000000
                                                     2        0.9000000        0.15124193    0.00000000
                                                     2        3.0000000       -0.80425677    0.00000000
                                      D - G
                                                     0        0.0000010        0.01149631    0.00000000
                                                     2        0.1200000       -0.04713561    0.00000000
                                                     2        0.1600000        0.10865096    0.00000000
                                                     2        0.2800000       -0.15816701    0.00000000
                                                     2        0.7000000        0.65478804    0.00000000
                                                     2        1.3000000       -1.73816624    0.00000000
                                      F - G
                                                     0        0.0000010        0.00481868    0.00000000
                                                     2        0.1200000       -0.04746842    0.00000000
                                                     2        0.1600000        0.09327889    0.00000000
                                                     2        0.4000000       -0.19693326    0.00000000
                                                     2        0.9000000        0.34938253    0.00000000
    4          6            6
                                      G and up 
                                                     0        0.0000010       -0.00011185    0.00000000
                                                     2        0.1200000       -0.02301220    0.00000000
                                                     2        0.1400000        0.13317600    0.00000000
                                                     2        0.1600000       -0.19690668    0.00000000
                                                     2        0.2200000        0.23163694    0.00000000
                                                     2        0.3000000       -0.36920489    0.00000000
                                                     2        0.4000000        0.36389709    0.00000000
                                                     2        0.7000000       -0.38862160    0.00000000
                                                     2        1.3000000        0.80803421    0.00000000
                                      S - G
                                                     0        0.0000010        0.00312304    0.00000000
                                                     2        0.1200000       -0.00632892    0.00000000
                                                     2        0.2200000       -0.03780897    0.00000000
                                                     2        0.4000000        0.26269560    0.00000000
                                                     2        0.9000000       -0.28209514    0.00000000
                                                     2        1.5000000       -0.72686737    0.00000000
                                      P - G
                                                     0        0.0000010       -0.01465594    0.00000000
                                                     2        0.1200000        0.07908409    0.00000000
                                                     2        0.1800000       -0.30615861    0.00000000
                                                     2        0.2600000        0.41506950    0.00000000
                                                     2        0.5000000       -0.36252345    0.00000000
                                                     2        0.9000000        0.15124193    0.00000000
                                                     2        3.0000000       -0.80425677    0.00000000
                                      D - G
                                                     0        0.0000010        0.01149631    0.00000000
                                                     2        0.1200000       -0.04713561    0.00000000
                                                     2        0.1600000        0.10865096    0.00000000
                                                     2        0.2800000       -0.15816701    0.00000000
                                                     2        0.7000000        0.65478804    0.00000000
                                                     2        1.3000000       -1.73816624    0.00000000
                                      F - G
                                                     0        0.0000010        0.00481868    0.00000000
                                                     2        0.1200000       -0.04746842    0.00000000
                                                     2        0.1600000        0.09327889    0.00000000
                                                     2        0.4000000       -0.19693326    0.00000000
                                                     2        0.9000000        0.34938253    0.00000000
    5          6            6
                                      G and up 
                                                     0        0.0000010       -0.00011185    0.00000000
                                                     2        0.1200000       -0.02301220    0.00000000
                                                     2        0.1400000        0.13317600    0.00000000
                                                     2        0.1600000       -0.19690668    0.00000000
                                                     2        0.2200000        0.23163694    0.00000000
                                                     2        0.3000000       -0.36920489    0.00000000
                                                     2        0.4000000        0.36389709    0.00000000
                                                     2        0.7000000       -0.38862160    0.00000000
                                                     2        1.3000000        0.80803421    0.00000000
                                      S - G
                                                     0        0.0000010        0.00312304    0.00000000
                                                     2        0.1200000       -0.00632892    0.00000000
                                                     2        0.2200000       -0.03780897    0.00000000
                                                     2        0.4000000        0.26269560    0.00000000
                                                     2        0.9000000       -0.28209514    0.00000000
                                                     2        1.5000000       -0.72686737    0.00000000
                                      P - G
                                                     0        0.0000010       -0.01465594    0.00000000
                                                     2        0.1200000        0.07908409    0.00000000
                                                     2        0.1800000       -0.30615861    0.00000000
                                                     2        0.2600000        0.41506950    0.00000000
                                                     2        0.5000000       -0.36252345    0.00000000
                                                     2        0.9000000        0.15124193    0.00000000
                                                     2        3.0000000       -0.80425677    0.00000000
                                      D - G
                                                     0        0.0000010        0.01149631    0.00000000
                                                     2        0.1200000       -0.04713561    0.00000000
                                                     2        0.1600000        0.10865096    0.00000000
                                                     2        0.2800000       -0.15816701    0.00000000
                                                     2        0.7000000        0.65478804    0.00000000
                                                     2        1.3000000       -1.73816624    0.00000000
                                      F - G
                                                     0        0.0000010        0.00481868    0.00000000
                                                     2        0.1200000       -0.04746842    0.00000000
                                                     2        0.1600000        0.09327889    0.00000000
                                                     2        0.4000000       -0.19693326    0.00000000
                                                     2        0.9000000        0.34938253    0.00000000
    6          7            7
                                      G and up 
                                                     0        0.0000010       -0.00000022    0.00000000
                                                     2        0.1200000       -0.00992020    0.00000000
                                                     2        0.1400000        0.02578711    0.00000000
                                                     2        0.2200000       -0.10543517    0.00000000
                                                     2        0.3000000        0.23013665    0.00000000
                                                     2        0.5000000       -0.60834094    0.00000000
                                                     2        0.8000000        1.81436815    0.00000000
                                                     2        1.2000000       -3.87539738    0.00000000
                                                     2        2.0000000        2.94656640    0.00000000
                                      S - G
                                                     0        0.0000010       -0.00223566    0.00000000
                                                     2        0.1200000        0.45247937    0.00000000
                                                     2        0.1600000       -0.78978304    0.00000000
                                                     2        0.4000000        0.84956595    0.00000000
                                                     2        3.0000000       -0.75910174    0.00000000
                                      P - G
                                                     0        0.0000010       -0.25576737    0.00000000
                                                     2        0.1200000       -0.19992277    0.00000000
                                                     2        0.1600000        0.88518512    0.00000000
                                                     2        0.2400000       -1.33293917    0.00000000
                                                     2        0.4000000        1.33451776    0.00000000
                                                     2        0.9000000       -0.55709210    0.00000000
                                                     2        2.5000000        2.48506502    0.00000000
                                      D - G
                                                     0        0.0000010        0.26143746    0.00000000
                                                     2        0.1200000       -0.04492212    0.00000000
                                                     2        0.1400000       -0.18274021    0.00000000
                                                     2        0.2400000        0.53490004    0.00000000
                                                     2        0.4000000       -0.74136473    0.00000000
                                                     2        1.3000000        1.71401021    0.00000000
                                      F - G
                                                     0        0.0000010       -0.07169988    0.00000000
                                                     2        0.1200000        0.04480029    0.00000000
                                                     2        0.2600000       -0.08050831    0.00000000
                                                     2        0.5000000        0.31290809    0.00000000
                                                     2        1.0000000       -0.45253098    0.00000000
    7          1            1
                                      F and up 
                                                     0        0.0000010       -0.00000699    0.00000000
                                                     2        0.1200000        0.00123686    0.00000000
                                                     2        0.1800000       -0.00752022    0.00000000
                                                     2        0.2600000        0.02503380    0.00000000
                                                     2        0.4000000       -0.08702670    0.00000000
                                                     2        0.6000000        0.30134159    0.00000000
                                                     2        0.8000000       -0.50204959    0.00000000
                                                     2        1.2000000        0.52208372    0.00000000
                                      S - F
                                                     0        0.0000010       -0.01618346    0.00000000
                                                     2        0.1200000       -0.07880581    0.00000000
                                                     2        0.1600000        0.32040539    0.00000000
                                                     2        0.2400000       -0.47500956    0.00000000
                                                     2        0.5000000        0.54013668    0.00000000
                                                     2        1.5000000       -1.40434292    0.00000000
                                                     2        3.0000000        1.46283806    0.00000000
                                      P - F
                                                     0        0.0000010        0.00612970    0.00000000
                                                     2        0.1200000        0.02254406    0.00000000
                                                     2        0.1800000       -0.13874529    0.00000000
                                                     2        0.3000000        0.38299049    0.00000000
                                                     2        0.5000000       -0.57923512    0.00000000
                                                     2        1.0000000        0.63021625    0.00000000
                                                     2        2.0000000       -0.79201034    0.00000000
                                      D - F
                                                     0        0.0000010       -0.00296226    0.00000000
                                                     2        0.1200000       -0.00547344    0.00000000
                                                     2        0.1400000        0.01837884    0.00000000
                                                     2        0.2400000       -0.05565704    0.00000000
                                                     2        0.4000000        0.15376597    0.00000000
                                                     2        0.8000000       -0.32464795    0.00000000
    8          1            1
                                      F and up 
                                                     0        0.0000010       -0.00000699    0.00000000
                                                     2        0.1200000        0.00123686    0.00000000
                                                     2        0.1800000       -0.00752022    0.00000000
                                                     2        0.2600000        0.02503380    0.00000000
                                                     2        0.4000000       -0.08702670    0.00000000
                                                     2        0.6000000        0.30134159    0.00000000
                                                     2        0.8000000       -0.50204959    0.00000000
                                                     2        1.2000000        0.52208372    0.00000000
                                      S - F
                                                     0        0.0000010       -0.01618346    0.00000000
                                                     2        0.1200000       -0.07880581    0.00000000
                                                     2        0.1600000        0.32040539    0.00000000
                                                     2        0.2400000       -0.47500956    0.00000000
                                                     2        0.5000000        0.54013668    0.00000000
                                                     2        1.5000000       -1.40434292    0.00000000
                                                     2        3.0000000        1.46283806    0.00000000
                                      P - F
                                                     0        0.0000010        0.00612970    0.00000000
                                                     2        0.1200000        0.02254406    0.00000000
                                                     2        0.1800000       -0.13874529    0.00000000
                                                     2        0.3000000        0.38299049    0.00000000
                                                     2        0.5000000       -0.57923512    0.00000000
                                                     2        1.0000000        0.63021625    0.00000000
                                                     2        2.0000000       -0.79201034    0.00000000
                                      D - F
                                                     0        0.0000010       -0.00296226    0.00000000
                                                     2        0.1200000       -0.00547344    0.00000000
                                                     2        0.1400000        0.01837884    0.00000000
                                                     2        0.2400000       -0.05565704    0.00000000
                                                     2        0.4000000        0.15376597    0.00000000
                                                     2        0.8000000       -0.32464795    0.00000000
    9          1            1
                                      F and up 
                                                     0        0.0000010       -0.00000699    0.00000000
                                                     2        0.1200000        0.00123686    0.00000000
                                                     2        0.1800000       -0.00752022    0.00000000
                                                     2        0.2600000        0.02503380    0.00000000
                                                     2        0.4000000       -0.08702670    0.00000000
                                                     2        0.6000000        0.30134159    0.00000000
                                                     2        0.8000000       -0.50204959    0.00000000
                                                     2        1.2000000        0.52208372    0.00000000
                                      S - F
                                                     0        0.0000010       -0.01618346    0.00000000
                                                     2        0.1200000       -0.07880581    0.00000000
                                                     2        0.1600000        0.32040539    0.00000000
                                                     2        0.2400000       -0.47500956    0.00000000
                                                     2        0.5000000        0.54013668    0.00000000
                                                     2        1.5000000       -1.40434292    0.00000000
                                                     2        3.0000000        1.46283806    0.00000000
                                      P - F
                                                     0        0.0000010        0.00612970    0.00000000
                                                     2        0.1200000        0.02254406    0.00000000
                                                     2        0.1800000       -0.13874529    0.00000000
                                                     2        0.3000000        0.38299049    0.00000000
                                                     2        0.5000000       -0.57923512    0.00000000
                                                     2        1.0000000        0.63021625    0.00000000
                                                     2        2.0000000       -0.79201034    0.00000000
                                      D - F
                                                     0        0.0000010       -0.00296226    0.00000000
                                                     2        0.1200000       -0.00547344    0.00000000
                                                     2        0.1400000        0.01837884    0.00000000
                                                     2        0.2400000       -0.05565704    0.00000000
                                                     2        0.4000000        0.15376597    0.00000000
                                                     2        0.8000000       -0.32464795    0.00000000
   10          1            1
                                      F and up 
                                                     0        0.0000010       -0.00000699    0.00000000
                                                     2        0.1200000        0.00123686    0.00000000
                                                     2        0.1800000       -0.00752022    0.00000000
                                                     2        0.2600000        0.02503380    0.00000000
                                                     2        0.4000000       -0.08702670    0.00000000
                                                     2        0.6000000        0.30134159    0.00000000
                                                     2        0.8000000       -0.50204959    0.00000000
                                                     2        1.2000000        0.52208372    0.00000000
                                      S - F
                                                     0        0.0000010       -0.01618346    0.00000000
                                                     2        0.1200000       -0.07880581    0.00000000
                                                     2        0.1600000        0.32040539    0.00000000
                                                     2        0.2400000       -0.47500956    0.00000000
                                                     2        0.5000000        0.54013668    0.00000000
                                                     2        1.5000000       -1.40434292    0.00000000
                                                     2        3.0000000        1.46283806    0.00000000
                                      P - F
                                                     0        0.0000010        0.00612970    0.00000000
                                                     2        0.1200000        0.02254406    0.00000000
                                                     2        0.1800000       -0.13874529    0.00000000
                                                     2        0.3000000        0.38299049    0.00000000
                                                     2        0.5000000       -0.57923512    0.00000000
                                                     2        1.0000000        0.63021625    0.00000000
                                                     2        2.0000000       -0.79201034    0.00000000
                                      D - F
                                                     0        0.0000010       -0.00296226    0.00000000
                                                     2        0.1200000       -0.00547344    0.00000000
                                                     2        0.1400000        0.01837884    0.00000000
                                                     2        0.2400000       -0.05565704    0.00000000
                                                     2        0.4000000        0.15376597    0.00000000
                                                     2        0.8000000       -0.32464795    0.00000000
   11          1            1
                                      F and up 
                                                     0        0.0000010       -0.00000699    0.00000000
                                                     2        0.1200000        0.00123686    0.00000000
                                                     2        0.1800000       -0.00752022    0.00000000
                                                     2        0.2600000        0.02503380    0.00000000
                                                     2        0.4000000       -0.08702670    0.00000000
                                                     2        0.6000000        0.30134159    0.00000000
                                                     2        0.8000000       -0.50204959    0.00000000
                                                     2        1.2000000        0.52208372    0.00000000
                                      S - F
                                                     0        0.0000010       -0.01618346    0.00000000
                                                     2        0.1200000       -0.07880581    0.00000000
                                                     2        0.1600000        0.32040539    0.00000000
                                                     2        0.2400000       -0.47500956    0.00000000
                                                     2        0.5000000        0.54013668    0.00000000
                                                     2        1.5000000       -1.40434292    0.00000000
                                                     2        3.0000000        1.46283806    0.00000000
                                      P - F
                                                     0        0.0000010        0.00612970    0.00000000
                                                     2        0.1200000        0.02254406    0.00000000
                                                     2        0.1800000       -0.13874529    0.00000000
                                                     2        0.3000000        0.38299049    0.00000000
                                                     2        0.5000000       -0.57923512    0.00000000
                                                     2        1.0000000        0.63021625    0.00000000
                                                     2        2.0000000       -0.79201034    0.00000000
                                      D - F
                                                     0        0.0000010       -0.00296226    0.00000000
                                                     2        0.1200000       -0.00547344    0.00000000
                                                     2        0.1400000        0.01837884    0.00000000
                                                     2        0.2400000       -0.05565704    0.00000000
                                                     2        0.4000000        0.15376597    0.00000000
                                                     2        0.8000000       -0.32464795    0.00000000
   12          1            1
                                      F and up 
                                                     0        0.0000010       -0.00000699    0.00000000
                                                     2        0.1200000        0.00123686    0.00000000
                                                     2        0.1800000       -0.00752022    0.00000000
                                                     2        0.2600000        0.02503380    0.00000000
                                                     2        0.4000000       -0.08702670    0.00000000
                                                     2        0.6000000        0.30134159    0.00000000
                                                     2        0.8000000       -0.50204959    0.00000000
                                                     2        1.2000000        0.52208372    0.00000000
                                      S - F
                                                     0        0.0000010       -0.01618346    0.00000000
                                                     2        0.1200000       -0.07880581    0.00000000
                                                     2        0.1600000        0.32040539    0.00000000
                                                     2        0.2400000       -0.47500956    0.00000000
                                                     2        0.5000000        0.54013668    0.00000000
                                                     2        1.5000000       -1.40434292    0.00000000
                                                     2        3.0000000        1.46283806    0.00000000
                                      P - F
                                                     0        0.0000010        0.00612970    0.00000000
                                                     2        0.1200000        0.02254406    0.00000000
                                                     2        0.1800000       -0.13874529    0.00000000
                                                     2        0.3000000        0.38299049    0.00000000
                                                     2        0.5000000       -0.57923512    0.00000000
                                                     2        1.0000000        0.63021625    0.00000000
                                                     2        2.0000000       -0.79201034    0.00000000
                                      D - F
                                                     0        0.0000010       -0.00296226    0.00000000
                                                     2        0.1200000       -0.00547344    0.00000000
                                                     2        0.1400000        0.01837884    0.00000000
                                                     2        0.2400000       -0.05565704    0.00000000
                                                     2        0.4000000        0.15376597    0.00000000
                                                     2        0.8000000       -0.32464795    0.00000000
   13          1            1
                                      F and up 
                                                     0        0.0000010       -0.00000699    0.00000000
                                                     2        0.1200000        0.00123686    0.00000000
                                                     2        0.1800000       -0.00752022    0.00000000
                                                     2        0.2600000        0.02503380    0.00000000
                                                     2        0.4000000       -0.08702670    0.00000000
                                                     2        0.6000000        0.30134159    0.00000000
                                                     2        0.8000000       -0.50204959    0.00000000
                                                     2        1.2000000        0.52208372    0.00000000
                                      S - F
                                                     0        0.0000010       -0.01618346    0.00000000
                                                     2        0.1200000       -0.07880581    0.00000000
                                                     2        0.1600000        0.32040539    0.00000000
                                                     2        0.2400000       -0.47500956    0.00000000
                                                     2        0.5000000        0.54013668    0.00000000
                                                     2        1.5000000       -1.40434292    0.00000000
                                                     2        3.0000000        1.46283806    0.00000000
                                      P - F
                                                     0        0.0000010        0.00612970    0.00000000
                                                     2        0.1200000        0.02254406    0.00000000
                                                     2        0.1800000       -0.13874529    0.00000000
                                                     2        0.3000000        0.38299049    0.00000000
                                                     2        0.5000000       -0.57923512    0.00000000
                                                     2        1.0000000        0.63021625    0.00000000
                                                     2        2.0000000       -0.79201034    0.00000000
                                      D - F
                                                     0        0.0000010       -0.00296226    0.00000000
                                                     2        0.1200000       -0.00547344    0.00000000
                                                     2        0.1400000        0.01837884    0.00000000
                                                     2        0.2400000       -0.05565704    0.00000000
                                                     2        0.4000000        0.15376597    0.00000000
                                                     2        0.8000000       -0.32464795    0.00000000
 ======================================================================================================
   201 basis functions,   335 primitive gaussians,   213 cartesian basis functions
    22 alpha electrons       22 beta electrons
       nuclear repulsion energy       204.8772371879 Hartrees.
 NAtoms=   13 NActive=   13 NUniq=   13 SFac= 1.00D+00 NAtFMM=   60 NAOKFM=F Big=F
   1 Symmetry operations used in ECPInt.
 ECPInt:  NShTT=    4005 NPrTT=   17869 LenC2=    4003 LenP2D=   14415.
 LDataN:  DoStor=T MaxTD1= 6 Len=  172
 Initial guess from the checkpoint file:  "Grambow2020_wb97xd3_006167_reverse_mol2.chk"
 B after Tr=    -1.102898    0.153335   -0.176039
         Rot=    0.098801    0.455795    0.879675   -0.093063 Ang= 168.66 deg.
 >>>>>>>>>> Convergence criterion not met.
 SCF Done:  E(RHF) =  -247.841157202     A.U. after    2 cycles
            NFock=  1  Conv=0.45D-02     -V/T= 2.0016

 **********************************************************************

            Population analysis using the SCF Density.

 **********************************************************************

 Orbital symmetries:
       Occupied  (A) (A) (A) (A) (A) (A) (A) (A) (A) (A) (A) (A)
                 (A) (A) (A) (A) (A) (A) (A) (A) (A) (A)
       Virtual   (A) (A) (A) (A) (A) (A) (A) (A) (A) (A) (A) (A)
                 (A) (A) (A) (A) (A) (A) (A) (A) (A) (A) (A) (A)
                 (A) (A) (A) (A) (A) (A) (A) (A) (A) (A) (A) (A)
                 (A) (A) (A) (A) (A) (A) (A) (A) (A) (A) (A) (A)
                 (A) (A) (A) (A) (A) (A) (A) (A) (A) (A) (A) (A)
                 (A) (A) (A) (A) (A) (A) (A) (A) (A) (A) (A) (A)
                 (A) (A) (A) (A) (A) (A) (A) (A) (A) (A) (A) (A)
                 (A) (A) (A) (A) (A) (A) (A) (A) (A) (A) (A) (A)
                 (A) (A) (A) (A) (A) (A) (A) (A) (A) (A) (A) (A)
                 (A) (A) (A) (A) (A) (A) (A) (A) (A) (A) (A) (A)
                 (A) (A) (A) (A) (A) (A) (A) (A) (A) (A) (A) (A)
                 (A) (A) (A) (A) (A) (A) (A) (A) (A) (A) (A) (A)
                 (A) (A) (A) (A) (A) (A) (A) (A) (A) (A) (A) (A)
                 (A) (A) (A) (A) (A) (A) (A) (A) (A) (A) (A) (A)
                 (A) (A) (A) (A) (A) (A) (A) (A) (A) (A) (A)
 The electronic state is 1-A.
 Alpha  occ. eigenvalues --  -15.66886 -11.32062 -11.29799 -11.28061 -11.26661
 Alpha  occ. eigenvalues --  -11.24933  -1.21304  -1.12657  -0.97063  -0.95931
 Alpha  occ. eigenvalues --   -0.83620  -0.67490  -0.65143  -0.59916  -0.57784
 Alpha  occ. eigenvalues --   -0.57512  -0.54710  -0.52916  -0.51896  -0.50594
 Alpha  occ. eigenvalues --   -0.48446  -0.37559
 Alpha virt. eigenvalues --    0.01172   0.02828   0.04378   0.04496   0.05544
 Alpha virt. eigenvalues --    0.06933   0.06957   0.07644   0.09034   0.09953
 Alpha virt. eigenvalues --    0.12160   0.13862   0.14293   0.14782   0.14955
 Alpha virt. eigenvalues --    0.15379   0.15853   0.16078   0.16677   0.16777
 Alpha virt. eigenvalues --    0.18559   0.18837   0.19382   0.19820   0.21054
 Alpha virt. eigenvalues --    0.22266   0.23246   0.23483   0.25434   0.26543
 Alpha virt. eigenvalues --    0.27500   0.28669   0.30407   0.31175   0.32273
 Alpha virt. eigenvalues --    0.32772   0.34401   0.35823   0.36466   0.38635
 Alpha virt. eigenvalues --    0.38916   0.40265   0.40958   0.42746   0.44422
 Alpha virt. eigenvalues --    0.44954   0.45609   0.45863   0.46736   0.47498
 Alpha virt. eigenvalues --    0.48491   0.49449   0.49627   0.51206   0.53453
 Alpha virt. eigenvalues --    0.55943   0.56516   0.57626   0.58551   0.58617
 Alpha virt. eigenvalues --    0.59213   0.60458   0.61028   0.61515   0.62365
 Alpha virt. eigenvalues --    0.64458   0.64653   0.65406   0.67040   0.68292
 Alpha virt. eigenvalues --    0.69476   0.70264   0.71871   0.72656   0.74353
 Alpha virt. eigenvalues --    0.74910   0.75542   0.76436   0.77922   0.78744
 Alpha virt. eigenvalues --    0.79627   0.81544   0.83082   0.85244   0.87410
 Alpha virt. eigenvalues --    0.88096   0.90416   0.91590   0.92737   0.94711
 Alpha virt. eigenvalues --    0.94971   0.97167   0.97606   1.00500   1.02201
 Alpha virt. eigenvalues --    1.02735   1.06049   1.06441   1.10029   1.10781
 Alpha virt. eigenvalues --    1.13405   1.18448   1.19244   1.24799   1.25523
 Alpha virt. eigenvalues --    1.28050   1.28928   1.32802   1.33034   1.36853
 Alpha virt. eigenvalues --    1.38474   1.41495   1.44513   1.46633   1.52556
 Alpha virt. eigenvalues --    1.55539   1.57139   1.59436   1.62094   1.66564
 Alpha virt. eigenvalues --    1.68772   1.70132   1.72315   1.73349   1.77078
 Alpha virt. eigenvalues --    1.78412   1.80644   1.81703   1.86739   1.88877
 Alpha virt. eigenvalues --    1.89589   1.92526   1.96228   1.97248   1.99307
 Alpha virt. eigenvalues --    2.02651   2.04300   2.08963   2.09977   2.12317
 Alpha virt. eigenvalues --    2.13977   2.16075   2.20030   2.22946   2.23946
 Alpha virt. eigenvalues --    2.26046   2.27821   2.30626   2.31953   2.35053
 Alpha virt. eigenvalues --    2.38513   2.41212   2.43987   2.45840   2.50935
 Alpha virt. eigenvalues --    2.52480   2.54795   2.60343   2.66843   2.69141
 Alpha virt. eigenvalues --    2.71263   2.73682   2.76802   2.77932   2.81259
 Alpha virt. eigenvalues --    2.85832   2.87747   2.90638   2.95088   3.02591
 Alpha virt. eigenvalues --    3.04654   3.08755   3.12631   3.15527   3.23900
 Alpha virt. eigenvalues --    3.26046   3.34719   3.46518   3.58931
          Condensed to atoms (all electrons):
 Mulliken charges:
               1
     1  C    0.687909
     2  C   -0.562749
     3  C    0.576294
     4  C   -0.023018
     5  C   -0.039967
     6  N   -0.249910
     7  H   -0.026405
     8  H   -0.030828
     9  H   -0.022545
    10  H   -0.111366
    11  H   -0.080041
    12  H   -0.058497
    13  H   -0.058880
 Sum of Mulliken charges =  -0.00000
 Mulliken charges with hydrogens summed into heavy atoms:
               1
     1  C    0.608132
     2  C   -0.674115
     3  C    0.378877
     4  C   -0.023018
     5  C   -0.039967
     6  N   -0.249910
 Electronic spatial extent (au):  <R**2>=            608.9781
 Charge=              0.0000 electrons
 Dipole moment (field-independent basis, Debye):
    X=             -4.0122    Y=              0.5295    Z=             -0.2869  Tot=              4.0572

 Test job not archived.
 1\1\GINC-SE045\SP\RHF\Aug-CC-pVDZ\C5H7N1\OHZDE\09-Apr-2025\0\\#t hf au
 g-cc-pvdz iop(5/13=1,5/36=2,99/5=2) pseudo=read geom=check guess=(read
 ,tcheck) scf=(maxcycle=1)\\title\\0,1\C,0,1.29825632,0.47302139,0.0784
 5641\C,0,0.20396025,-0.43731003,-0.46927406\C,0,-0.56196323,-1.1615730
 2,0.68770274\C,0,-0.93767866,0.1649153,-1.15885629\C,0,-1.33438766,1.4
 3165193,-0.72856177\N,0,-1.75465259,2.48254966,-0.46671739\H,0,1.79176
 831,1.01699231,-0.72809289\H,0,2.05642127,-0.11627423,0.59776644\H,0,0
 .8902566,1.2037286,0.77973789\H,0,0.62753333,-1.22918755,-1.09144831\H
 ,0,-1.02166313,-0.44385884,1.36818471\H,0,0.18174641,-1.73525092,1.241
 52875\H,0,-1.32493621,-1.84310061,0.31537477\\Version=ES64L-G16RevC.01
 \State=1-A\HF=-247.8411572\RMSD=4.539e-03\Dipole=1.0526678,-1.0900029,
 0.5016701\Quadrupole=0.5039298,-1.6482539,1.144324,2.1380517,-1.710725
 4,-1.3036716\PG=C01 [X(C5H7N1)]\\@


 We're simply so accustomed to the marvels of everyday thought
 that we never wonder about it.
 -- Marvin Minsky in "Why people think computers are smart"
 Job cpu time:       0 days  0 hours  0 minutes 50.7 seconds.
 Elapsed time:       0 days  0 hours  0 minutes  4.2 seconds.
 File lengths (MBytes):  RWF=     10 Int=      0 D2E=      0 Chk=      6 Scr=      1
 Normal termination of Gaussian 16 at Wed Apr  9 03:21:45 2025.
