 Entering Gaussian System, Link 0=g16
 Input=HB300SPXx10_1093_4.13_0.90_Nmethylacetamide_dimethyldisulfide_dimer_mol1.gjf
 Output=HB300SPXx10_1093_4.13_0.90_Nmethylacetamide_dimethyldisulfide_dimer_mol1.log
 Initial command:
 /arc/software/Gaussian/g16.c01/l1.exe "/tmp/slurm/4879202/Gau-1825140.inp" -scrdir="/tmp/slurm/4879202/"
 Entering Link 1 = /arc/software/Gaussian/g16.c01/l1.exe PID=   1825141.
  
 Copyright (c) 1988-2019, Gaussian, Inc.  All Rights Reserved.
  
 This is part of the Gaussian(R) 16 program.  It is based on
 the Gaussian(R) 09 system (copyright 2009, Gaussian, Inc.),
 the Gaussian(R) 03 system (copyright 2003, Gaussian, Inc.),
 the Gaussian(R) 98 system (copyright 1998, Gaussian, Inc.),
 the Gaussian(R) 94 system (copyright 1995, Gaussian, Inc.),
 the Gaussian 92(TM) system (copyright 1992, Gaussian, Inc.),
 the Gaussian 90(TM) system (copyright 1990, Gaussian, Inc.),
 the Gaussian 88(TM) system (copyright 1988, Gaussian, Inc.),
 the Gaussian 86(TM) system (copyright 1986, Carnegie Mellon
 University), and the Gaussian 82(TM) system (copyright 1983,
 Carnegie Mellon University). Gaussian is a federally registered
 trademark of Gaussian, Inc.
  
 This software contains proprietary and confidential information,
 including trade secrets, belonging to Gaussian, Inc.
  
 This software is provided under written license and may be
 used, copied, transmitted, or stored only in accord with that
 written license.
  
 The following legend is applicable only to US Government
 contracts under FAR:
  
                    RESTRICTED RIGHTS LEGEND
  
 Use, reproduction and disclosure by the US Government is
 subject to restrictions as set forth in subparagraphs (a)
 and (c) of the Commercial Computer Software - Restricted
 Rights clause in FAR 52.227-19.
  
 Gaussian, Inc.
 340 Quinnipiac St., Bldg. 40, Wallingford CT 06492
  
  
 ---------------------------------------------------------------
 Warning -- This program may not be used in any manner that
 competes with the business of Gaussian, Inc. or will provide
 assistance to any competitor of Gaussian, Inc.  The licensee
 of this program is prohibited from giving any competitor of
 Gaussian, Inc. access to this program.  By using this program,
 the user acknowledges that Gaussian, Inc. is engaged in the
 business of creating and licensing software in the field of
 computational chemistry and represents and warrants to the
 licensee that it is not a competitor of Gaussian, Inc. and that
 it will not use this program in any manner prohibited above.
 ---------------------------------------------------------------
  

 Cite this work as:
 Gaussian 16, Revision C.01,
 M. J. Frisch, G. W. Trucks, H. B. Schlegel, G. E. Scuseria, 
 M. A. Robb, J. R. Cheeseman, G. Scalmani, V. Barone, 
 G. A. Petersson, H. Nakatsuji, X. Li, M. Caricato, A. V. Marenich, 
 J. Bloino, B. G. Janesko, R. Gomperts, B. Mennucci, H. P. Hratchian, 
 J. V. Ortiz, A. F. Izmaylov, J. L. Sonnenberg, D. Williams-Young, 
 F. Ding, F. Lipparini, F. Egidi, J. Goings, B. Peng, A. Petrone, 
 T. Henderson, D. Ranasinghe, V. G. Zakrzewski, J. Gao, N. Rega, 
 G. Zheng, W. Liang, M. Hada, M. Ehara, K. Toyota, R. Fukuda, 
 J. Hasegawa, M. Ishida, T. Nakajima, Y. Honda, O. Kitao, H. Nakai, 
 T. Vreven, K. Throssell, J. A. Montgomery, Jr., J. E. Peralta, 
 F. Ogliaro, M. J. Bearpark, J. J. Heyd, E. N. Brothers, K. N. Kudin, 
 V. N. Staroverov, T. A. Keith, R. Kobayashi, J. Normand, 
 K. Raghavachari, A. P. Rendell, J. C. Burant, S. S. Iyengar, 
 J. Tomasi, M. Cossi, J. M. Millam, M. Klene, C. Adamo, R. Cammi, 
 J. W. Ochterski, R. L. Martin, K. Morokuma, O. Farkas, 
 J. B. Foresman, and D. J. Fox, Gaussian, Inc., Wallingford CT, 2019.
 
 ******************************************
 Gaussian 16:  ES64L-G16RevC.01  3-Jul-2019
                 9-Apr-2025 
 ******************************************
 %nprocs=16
 Will use up to   16 processors via shared memory.
 %mem=30GB
 %chk=HB300SPXx10_1093_4.13_0.90_Nmethylacetamide_dimethyldisulfide_dimer_mol1.ch
 k
 ----------------------------------------------------------------------
 #t hf aug-cc-pvdz symm=none int=(grid=ultrafine) guess=(read,tcheck) s
 table=(opt,rrhf)
 ----------------------------------------------------------------------
 -----
 title
 -----
 Symbolic Z-matrix:
 Charge =  0 Multiplicity = 1
 C                    -1.31056  -0.36191   2.17525 
 H                    -0.76311   0.57467   2.28149 
 H                    -0.5951   -1.17659   2.0813 
 H                    -1.9111   -0.50301   3.06969 
 C                    -2.23352  -0.244     0.97819 
 O                    -3.28056   0.37845   1.03391 
 N                    -1.80028  -0.87174  -0.14631 
 H                    -0.86874  -1.25332  -0.1444 
 C                    -2.47826  -0.73306  -1.41841 
 H                    -3.52176  -0.50262  -1.22773 
 H                    -2.04797   0.07228  -2.01753 
 H                    -2.41021  -1.6636   -1.97874 
 H                     1.7779    2.91989  -1.6002 
 H                     2.5008    1.44285  -2.27389 
 H                     2.94657   1.998    -0.63748 
 H                     1.52332  -0.43887   2.00584 
 H                     3.09622  -0.07672   1.24731 
 H                     2.60295  -1.76026   1.50541 
 C                     2.14489   1.92142  -1.36652 
 S                     0.72293   1.01342  -0.68359 
 S                     1.47756  -0.86902  -0.37914 
 C                     2.25046  -0.75797   1.26576 
 
                    Distance matrix (angstroms):
                    1          2          3          4          5
     1  C    0.000000
     2  H    1.090029   0.000000
     3  H    1.088305   1.770649   0.000000
     4  H    1.086544   1.760834   1.778335   0.000000
     5  C    1.516155   2.128598   2.184258   2.131999   0.000000
     6  O    2.394096   2.816472   3.275186   2.607063   1.219362
     7  N    2.426809   3.010320   2.551005   3.238963   1.358763
     8  H    2.524009   3.039350   2.243773   3.461196   2.035081
     9  C    3.796799   4.282657   3.998871   4.529636   2.458197
    10  H    4.060730   4.591881   4.468699   4.589340   2.567592
    11  H    4.279223   4.514960   4.524481   5.121476   3.018078
    12  H    4.489910   5.086487   4.473894   5.204105   3.284796
    13  H    5.879023   5.198497   5.997150   6.865342   5.722748
    14  H    6.130125   5.670826   5.950942   7.197571   5.986249
    15  H    5.621720   4.930307   5.478430   6.602657   5.871134
    16  H    2.839983   2.516148   2.244471   3.595995   3.899728
    17  H    4.512439   4.048240   3.940953   5.345659   5.339150
    18  H    4.209468   4.169476   3.301493   4.940073   5.095919
    19  C    5.449579   4.855739   5.384490   6.481429   5.418229
    20  S    3.768234   3.345520   3.765366   4.829574   3.617070
    21  S    3.815191   3.766135   3.231763   4.848857   4.000633
    22  C    3.696611   3.448081   2.989582   4.542886   4.522494
                    6          7          8          9         10
     6  O    0.000000
     7  N    2.268723   0.000000
     8  H    3.141332   1.006668   0.000000
     9  C    2.809444   1.448147   2.117625   0.000000
    10  H    2.439154   2.066212   2.962382   1.085521   0.000000
    11  H    3.305194   2.110453   2.580004   1.092098   1.768157
    12  H    3.742127   2.087310   2.430898   1.088353   1.774102
    13  H    6.243837   5.412367   5.151678   5.611780   6.319718
    14  H    6.745257   5.327587   4.812254   5.500678   6.414869
    15  H    6.647822   5.568592   5.036938   6.123504   6.959943
    16  H    4.968893   3.983142   3.317949   5.274908   5.992737
    17  H    6.396563   5.152665   4.363730   6.213832   7.078485
    18  H    6.277899   4.786024   3.877039   5.951681   6.823765
    19  C    6.130117   4.985488   4.544726   5.331280   6.164923
    20  S    4.402372   3.195170   2.821747   3.719919   4.540034
    21  S    5.117865   3.286099   2.389119   4.092320   5.084052
    22  C    5.651318   4.291316   3.458804   5.437482   6.292956
                   11         12         13         14         15
    11  H    0.000000
    12  H    1.773699   0.000000
    13  H    4.787522   6.220292   0.000000
    14  H    4.757670   5.818517   1.777101   0.000000
    15  H    5.527958   6.625811   1.772710   1.784584   0.000000
    16  H    5.403967   5.731446   4.934532   4.776225   3.866659
    17  H    6.094595   6.576198   4.338896   3.881040   2.807010
    18  H    6.115578   6.105763   5.677091   4.955139   4.339880
    19  C    4.628524   5.828910   1.089145   1.085824   1.086298
    20  S    3.216058   4.319775   2.363849   2.423689   2.432299
    21  S    3.999963   4.278414   3.992127   3.159402   3.231800
    22  C    5.472277   5.750548   4.686551   4.175568   3.420856
                   16         17         18         19         20
    16  H    0.000000
    17  H    1.783400   0.000000
    18  H    1.778230   1.773201   0.000000
    19  C    4.162943   3.424868   4.691755   0.000000
    20  S    3.159553   3.247970   4.002437   1.820121   0.000000
    21  S    2.423886   2.427581   2.369033   3.034276   2.050794
    22  C    1.085485   1.086163   1.089155   3.757551   3.044859
                   21         22
    21  S    0.000000
    22  C    1.820823   0.000000
 Symmetry turned off by external request.
 Rotational constants (GHZ):           1.4986591           0.6414041           0.5701488
   332 basis functions,   606 primitive gaussians,   350 cartesian basis functions
    45 alpha electrons       45 beta electrons
       nuclear repulsion energy       654.0047546253 Hartrees.
 NAtoms=   22 NActive=   22 NUniq=   22 SFac= 1.00D+00 NAtFMM=   60 NAOKFM=F Big=F
 ExpMin= 2.97D-02 ExpMax= 1.11D+05 ExpMxC= 1.07D+03 IAcc=3 IRadAn=         5 AccDes= 0.00D+00
 Harris functional with IExCor=  205 and IRadAn=       5 diagonalized for initial guess.
 HarFok:  IExCor=  205 AccDes= 0.00D+00 IRadAn=         5 IDoV= 1 UseB2=F ITyADJ=14
 ICtDFT=  3500011 ScaDFX=  1.000000  1.000000  1.000000  1.000000
 FoFCou: FMM=F IPFlag=           0 FMFlag=      100000 FMFlg1=           0
         NFxFlg=           0 DoJE=T BraDBF=F KetDBF=T FulRan=T
         wScrn=  0.000000 ICntrl=       500 IOpCl=  0 I1Cent=   200000004 NGrid=           0
         NMat0=    1 NMatS0=      1 NMatT0=    0 NMatD0=    1 NMtDS0=    0 NMtDT0=    0
 Symmetry not used in FoFCou.
 SCF Done:  E(RHF) =  -1121.33944798     A.U. after   13 cycles
            NFock= 13  Conv=0.89D-08     -V/T= 2.0003

 **********************************************************************

            Population analysis using the SCF Density.

 **********************************************************************

 Alpha  occ. eigenvalues --  -91.99259 -91.98800 -20.50949 -15.57174 -11.34125
 Alpha  occ. eigenvalues --  -11.27990 -11.27606 -11.24917 -11.23220  -8.99296
 Alpha  occ. eigenvalues --   -8.98843  -6.67494  -6.67308  -6.67122  -6.67035
 Alpha  occ. eigenvalues --   -6.66844  -6.66637  -1.36842  -1.21740  -1.10222
 Alpha  occ. eigenvalues --   -1.02457  -1.00728  -0.92300  -0.91856  -0.80317
 Alpha  occ. eigenvalues --   -0.77451  -0.67922  -0.64171  -0.62427  -0.62287
 Alpha  occ. eigenvalues --   -0.61322  -0.60892  -0.59282  -0.57516  -0.56720
 Alpha  occ. eigenvalues --   -0.54804  -0.53909  -0.53124  -0.50412  -0.49271
 Alpha  occ. eigenvalues --   -0.45282  -0.40788  -0.37795  -0.37203  -0.36332
 Alpha virt. eigenvalues --    0.02855   0.03628   0.04198   0.04655   0.05581
 Alpha virt. eigenvalues --    0.05856   0.06090   0.07032   0.07336   0.08337
 Alpha virt. eigenvalues --    0.08404   0.08915   0.09150   0.10969   0.11138
 Alpha virt. eigenvalues --    0.12438   0.13055   0.13496   0.14325   0.14439
 Alpha virt. eigenvalues --    0.14863   0.15577   0.16217   0.16642   0.16964
 Alpha virt. eigenvalues --    0.17225   0.17548   0.17837   0.17947   0.18513
 Alpha virt. eigenvalues --    0.19104   0.19686   0.20025   0.20227   0.20368
 Alpha virt. eigenvalues --    0.21267   0.21823   0.22267   0.23065   0.23942
 Alpha virt. eigenvalues --    0.24067   0.25372   0.25775   0.26924   0.27035
 Alpha virt. eigenvalues --    0.27563   0.28185   0.28784   0.30414   0.30588
 Alpha virt. eigenvalues --    0.31089   0.32225   0.33152   0.33359   0.34446
 Alpha virt. eigenvalues --    0.35300   0.36071   0.37222   0.37703   0.38512
 Alpha virt. eigenvalues --    0.38975   0.40002   0.40593   0.40966   0.41739
 Alpha virt. eigenvalues --    0.41960   0.43084   0.43493   0.43651   0.44156
 Alpha virt. eigenvalues --    0.44848   0.45514   0.45909   0.46440   0.46631
 Alpha virt. eigenvalues --    0.46967   0.47535   0.48389   0.49020   0.49870
 Alpha virt. eigenvalues --    0.50080   0.50895   0.51475   0.51912   0.52797
 Alpha virt. eigenvalues --    0.53046   0.54107   0.55159   0.55995   0.56308
 Alpha virt. eigenvalues --    0.56917   0.57661   0.58289   0.58449   0.58980
 Alpha virt. eigenvalues --    0.59453   0.60326   0.60839   0.61085   0.61870
 Alpha virt. eigenvalues --    0.62551   0.63670   0.64079   0.65079   0.65464
 Alpha virt. eigenvalues --    0.66026   0.66646   0.67311   0.67844   0.68823
 Alpha virt. eigenvalues --    0.69032   0.69147   0.69940   0.70140   0.71380
 Alpha virt. eigenvalues --    0.71708   0.72655   0.72951   0.74153   0.74789
 Alpha virt. eigenvalues --    0.75286   0.76811   0.77437   0.78080   0.78709
 Alpha virt. eigenvalues --    0.79280   0.79955   0.81331   0.81490   0.82996
 Alpha virt. eigenvalues --    0.83958   0.85048   0.85846   0.86624   0.87189
 Alpha virt. eigenvalues --    0.88558   0.89659   0.90231   0.91546   0.92324
 Alpha virt. eigenvalues --    0.93039   0.94213   0.97099   0.98608   1.00309
 Alpha virt. eigenvalues --    1.01859   1.03689   1.05635   1.06512   1.07189
 Alpha virt. eigenvalues --    1.07842   1.08082   1.10420   1.11459   1.12695
 Alpha virt. eigenvalues --    1.13092   1.13626   1.14184   1.15208   1.18019
 Alpha virt. eigenvalues --    1.19009   1.19822   1.21164   1.21764   1.22828
 Alpha virt. eigenvalues --    1.23026   1.25737   1.26818   1.27495   1.28545
 Alpha virt. eigenvalues --    1.30136   1.31387   1.32394   1.33758   1.35342
 Alpha virt. eigenvalues --    1.36738   1.38216   1.38733   1.39823   1.41431
 Alpha virt. eigenvalues --    1.42426   1.43612   1.45130   1.46339   1.46920
 Alpha virt. eigenvalues --    1.49209   1.49898   1.51764   1.52803   1.54607
 Alpha virt. eigenvalues --    1.55587   1.57341   1.59408   1.61060   1.63125
 Alpha virt. eigenvalues --    1.66765   1.68035   1.71264   1.75030   1.78767
 Alpha virt. eigenvalues --    1.80481   1.80661   1.83635   1.84087   1.86461
 Alpha virt. eigenvalues --    1.87624   1.88103   1.88742   1.91445   1.92206
 Alpha virt. eigenvalues --    1.93419   1.94502   1.95230   1.96665   2.00343
 Alpha virt. eigenvalues --    2.03432   2.04379   2.05430   2.06385   2.07727
 Alpha virt. eigenvalues --    2.08947   2.09397   2.12786   2.13375   2.15452
 Alpha virt. eigenvalues --    2.16864   2.19052   2.19872   2.21703   2.22591
 Alpha virt. eigenvalues --    2.23540   2.24264   2.24849   2.26306   2.26821
 Alpha virt. eigenvalues --    2.27921   2.29755   2.31717   2.34508   2.34920
 Alpha virt. eigenvalues --    2.36758   2.40314   2.42729   2.43111   2.45242
 Alpha virt. eigenvalues --    2.47835   2.50241   2.50656   2.51702   2.52814
 Alpha virt. eigenvalues --    2.54637   2.55860   2.56687   2.58528   2.60441
 Alpha virt. eigenvalues --    2.62237   2.66609   2.70467   2.73741   2.76204
 Alpha virt. eigenvalues --    2.78897   2.82977   2.84185   2.86310   2.90260
 Alpha virt. eigenvalues --    2.92462   2.95512   2.96591   2.97496   2.98042
 Alpha virt. eigenvalues --    2.98971   3.02351   3.03882   3.04576   3.07184
 Alpha virt. eigenvalues --    3.12558   3.17544   3.20245   3.32569   3.44751
 Alpha virt. eigenvalues --    3.59316   3.74537   3.83568   3.86462   3.92664
 Alpha virt. eigenvalues --    4.05523   4.23239
          Condensed to atoms (all electrons):
 Mulliken charges:
               1
     1  C    0.441532
     2  H    0.028690
     3  H   -0.085505
     4  H   -0.069708
     5  C    0.663421
     6  O   -0.885791
     7  N   -0.280682
     8  H   -0.024653
     9  C    0.789458
    10  H   -0.167539
    11  H   -0.068746
    12  H   -0.159628
    13  H   -0.068056
    14  H   -0.043990
    15  H   -0.081082
    16  H   -0.221542
    17  H   -0.117787
    18  H   -0.013022
    19  C    0.046936
    20  S    0.233556
    21  S   -0.116853
    22  C    0.200989
 Sum of Mulliken charges =  -0.00000
 Mulliken charges with hydrogens summed into heavy atoms:
               1
     1  C    0.315009
     5  C    0.663421
     6  O   -0.885791
     7  N   -0.305335
     9  C    0.393546
    19  C   -0.146191
    20  S    0.233556
    21  S   -0.116853
    22  C   -0.151361
 Electronic spatial extent (au):  <R**2>=           2203.2819
 Charge=             -0.0000 electrons
 Dipole moment (field-independent basis, Debye):
    X=              5.9737    Y=             -0.6968    Z=             -0.4034  Tot=              6.0277
 NROrb=    332 NOA=    45 NOB=    45 NVA=   287 NVB=   287

 **** Warning!!: The largest alpha MO coefficient is  0.40720236D+02

    12 initial guesses have been made.
 Iteration     1 Dimension    12 NMult     0 NNew     12
 Iteration     2 Dimension    24 NMult    12 NNew     12
 Iteration     3 Dimension    27 NMult    24 NNew      3
 Iteration     4 Dimension    30 NMult    27 NNew      3
 Iteration     5 Dimension    33 NMult    30 NNew      3
 Iteration     6 Dimension    36 NMult    33 NNew      3
 Iteration     7 Dimension    39 NMult    36 NNew      3
 ***********************************************************************
 Stability analysis using <AA,BB:AA,BB> singles matrix:
 ***********************************************************************
 Ground to excited state transition densities written to RWF  633

 Eigenvectors of the stability matrix:
 
 Excited state symmetry could not be determined.
 Eigenvector   1:      Singlet-?Sym  Eigenvalue= 0.2074125  <S**2>=0.000
      45 -> 47         0.13696
      45 -> 52         0.10926
      45 -> 57         0.25097
      45 -> 58         0.37342
      45 -> 59         0.12964
      45 -> 61        -0.21394
      45 -> 64        -0.11332
      45 -> 69        -0.18713
      45 -> 76         0.13995
 The wavefunction is stable under the perturbations considered.
 The wavefunction is already stable.

 **********************************************************************

            Population analysis using the SCF Density.

 **********************************************************************

 Alpha  occ. eigenvalues --  -91.99259 -91.98800 -20.50949 -15.57174 -11.34125
 Alpha  occ. eigenvalues --  -11.27990 -11.27606 -11.24917 -11.23220  -8.99296
 Alpha  occ. eigenvalues --   -8.98843  -6.67494  -6.67308  -6.67122  -6.67035
 Alpha  occ. eigenvalues --   -6.66844  -6.66637  -1.36842  -1.21740  -1.10222
 Alpha  occ. eigenvalues --   -1.02457  -1.00728  -0.92300  -0.91856  -0.80317
 Alpha  occ. eigenvalues --   -0.77451  -0.67922  -0.64171  -0.62427  -0.62287
 Alpha  occ. eigenvalues --   -0.61322  -0.60892  -0.59282  -0.57516  -0.56720
 Alpha  occ. eigenvalues --   -0.54804  -0.53909  -0.53124  -0.50412  -0.49271
 Alpha  occ. eigenvalues --   -0.45282  -0.40788  -0.37795  -0.37203  -0.36332
 Alpha virt. eigenvalues --    0.02855   0.03628   0.04198   0.04655   0.05581
 Alpha virt. eigenvalues --    0.05856   0.06090   0.07032   0.07336   0.08337
 Alpha virt. eigenvalues --    0.08404   0.08915   0.09150   0.10969   0.11138
 Alpha virt. eigenvalues --    0.12438   0.13055   0.13496   0.14325   0.14439
 Alpha virt. eigenvalues --    0.14863   0.15577   0.16217   0.16642   0.16964
 Alpha virt. eigenvalues --    0.17225   0.17548   0.17837   0.17947   0.18513
 Alpha virt. eigenvalues --    0.19104   0.19686   0.20025   0.20227   0.20368
 Alpha virt. eigenvalues --    0.21267   0.21823   0.22267   0.23065   0.23942
 Alpha virt. eigenvalues --    0.24067   0.25372   0.25775   0.26924   0.27035
 Alpha virt. eigenvalues --    0.27563   0.28185   0.28784   0.30414   0.30588
 Alpha virt. eigenvalues --    0.31089   0.32225   0.33152   0.33359   0.34446
 Alpha virt. eigenvalues --    0.35300   0.36071   0.37222   0.37703   0.38512
 Alpha virt. eigenvalues --    0.38975   0.40002   0.40593   0.40966   0.41739
 Alpha virt. eigenvalues --    0.41960   0.43084   0.43493   0.43651   0.44156
 Alpha virt. eigenvalues --    0.44848   0.45514   0.45909   0.46440   0.46631
 Alpha virt. eigenvalues --    0.46967   0.47535   0.48389   0.49020   0.49870
 Alpha virt. eigenvalues --    0.50080   0.50895   0.51475   0.51912   0.52797
 Alpha virt. eigenvalues --    0.53046   0.54107   0.55159   0.55995   0.56308
 Alpha virt. eigenvalues --    0.56917   0.57661   0.58289   0.58449   0.58980
 Alpha virt. eigenvalues --    0.59453   0.60326   0.60839   0.61085   0.61870
 Alpha virt. eigenvalues --    0.62551   0.63670   0.64079   0.65079   0.65464
 Alpha virt. eigenvalues --    0.66026   0.66646   0.67311   0.67844   0.68823
 Alpha virt. eigenvalues --    0.69032   0.69147   0.69940   0.70140   0.71380
 Alpha virt. eigenvalues --    0.71708   0.72655   0.72951   0.74153   0.74789
 Alpha virt. eigenvalues --    0.75286   0.76811   0.77437   0.78080   0.78709
 Alpha virt. eigenvalues --    0.79280   0.79955   0.81331   0.81490   0.82996
 Alpha virt. eigenvalues --    0.83958   0.85048   0.85846   0.86624   0.87189
 Alpha virt. eigenvalues --    0.88558   0.89659   0.90231   0.91546   0.92324
 Alpha virt. eigenvalues --    0.93039   0.94213   0.97099   0.98608   1.00309
 Alpha virt. eigenvalues --    1.01859   1.03689   1.05635   1.06512   1.07189
 Alpha virt. eigenvalues --    1.07842   1.08082   1.10420   1.11459   1.12695
 Alpha virt. eigenvalues --    1.13092   1.13626   1.14184   1.15208   1.18019
 Alpha virt. eigenvalues --    1.19009   1.19822   1.21164   1.21764   1.22828
 Alpha virt. eigenvalues --    1.23026   1.25737   1.26818   1.27495   1.28545
 Alpha virt. eigenvalues --    1.30136   1.31387   1.32394   1.33758   1.35342
 Alpha virt. eigenvalues --    1.36738   1.38216   1.38733   1.39823   1.41431
 Alpha virt. eigenvalues --    1.42426   1.43612   1.45130   1.46339   1.46920
 Alpha virt. eigenvalues --    1.49209   1.49898   1.51764   1.52803   1.54607
 Alpha virt. eigenvalues --    1.55587   1.57341   1.59408   1.61060   1.63125
 Alpha virt. eigenvalues --    1.66765   1.68035   1.71264   1.75030   1.78767
 Alpha virt. eigenvalues --    1.80481   1.80661   1.83635   1.84087   1.86461
 Alpha virt. eigenvalues --    1.87624   1.88103   1.88742   1.91445   1.92206
 Alpha virt. eigenvalues --    1.93419   1.94502   1.95230   1.96665   2.00343
 Alpha virt. eigenvalues --    2.03432   2.04379   2.05430   2.06385   2.07727
 Alpha virt. eigenvalues --    2.08947   2.09397   2.12786   2.13375   2.15452
 Alpha virt. eigenvalues --    2.16864   2.19052   2.19872   2.21703   2.22591
 Alpha virt. eigenvalues --    2.23540   2.24264   2.24849   2.26306   2.26821
 Alpha virt. eigenvalues --    2.27921   2.29755   2.31717   2.34508   2.34920
 Alpha virt. eigenvalues --    2.36758   2.40314   2.42729   2.43111   2.45242
 Alpha virt. eigenvalues --    2.47835   2.50241   2.50656   2.51702   2.52814
 Alpha virt. eigenvalues --    2.54637   2.55860   2.56687   2.58528   2.60441
 Alpha virt. eigenvalues --    2.62237   2.66609   2.70467   2.73741   2.76204
 Alpha virt. eigenvalues --    2.78897   2.82977   2.84185   2.86310   2.90260
 Alpha virt. eigenvalues --    2.92462   2.95512   2.96591   2.97496   2.98042
 Alpha virt. eigenvalues --    2.98971   3.02351   3.03882   3.04576   3.07184
 Alpha virt. eigenvalues --    3.12558   3.17544   3.20245   3.32569   3.44751
 Alpha virt. eigenvalues --    3.59316   3.74537   3.83568   3.86462   3.92664
 Alpha virt. eigenvalues --    4.05523   4.23239
          Condensed to atoms (all electrons):
 Mulliken charges:
               1
     1  C    0.441532
     2  H    0.028690
     3  H   -0.085505
     4  H   -0.069708
     5  C    0.663421
     6  O   -0.885791
     7  N   -0.280682
     8  H   -0.024653
     9  C    0.789458
    10  H   -0.167539
    11  H   -0.068746
    12  H   -0.159628
    13  H   -0.068056
    14  H   -0.043990
    15  H   -0.081082
    16  H   -0.221542
    17  H   -0.117787
    18  H   -0.013022
    19  C    0.046936
    20  S    0.233556
    21  S   -0.116853
    22  C    0.200989
 Sum of Mulliken charges =  -0.00000
 Mulliken charges with hydrogens summed into heavy atoms:
               1
     1  C    0.315009
     5  C    0.663421
     6  O   -0.885791
     7  N   -0.305335
     9  C    0.393546
    19  C   -0.146191
    20  S    0.233556
    21  S   -0.116853
    22  C   -0.151361
 Electronic spatial extent (au):  <R**2>=           2203.2819
 Charge=             -0.0000 electrons
 Dipole moment (field-independent basis, Debye):
    X=              5.9737    Y=             -0.6968    Z=             -0.4034  Tot=              6.0277
 Unable to Open any file for archive entry.
 1\1\GINC-SE229\Stability\RHF\Aug-CC-pVDZ\C5H13N1O1S2\OHZDE\09-Apr-2025
 \0\\#t hf aug-cc-pvdz symm=none int=(grid=ultrafine) guess=(read,tchec
 k) stable=(opt,rrhf)\\title\\0,1\C,0,-1.31055971,-0.36190707,2.1752547
 8\H,0,-0.76310857,0.57466921,2.28149083\H,0,-0.59510431,-1.17658722,2.
 08130356\H,0,-1.91110445,-0.50300543,3.06969011\C,0,-2.23351851,-0.244
 00233,0.97818704\O,0,-3.28055753,0.37845097,1.03390772\N,0,-1.80028089
 ,-0.8717422,-0.1463058\H,0,-0.86873727,-1.25332097,-0.14439963\C,0,-2.
 47826303,-0.73306099,-1.41840567\H,0,-3.52176476,-0.50262299,-1.227729
 18\H,0,-2.04796717,0.07227739,-2.01753243\H,0,-2.41021126,-1.66360327,
 -1.97873704\H,0,1.77790417,2.9198924,-1.60020417\H,0,2.50079667,1.4428
 4594,-2.27388668\H,0,2.94656596,1.99799884,-0.63747785\H,0,1.52332092,
 -0.43886779,2.00583528\H,0,3.09621966,-0.07672192,1.24731453\H,0,2.602
 94537,-1.76026299,1.50540684\C,0,2.14489445,1.92142015,-1.36652016\S,0
 ,0.72292851,1.01342408,-0.68358747\S,0,1.47755777,-0.86902165,-0.37913
 749\C,0,2.25046253,-0.75797428,1.26575897\\Version=ES64L-G16RevC.01\HF
 =-1121.339448\RMSD=8.886e-09\Dipole=2.3502189,-0.274123,-0.1587238\Qua
 drupole=-7.5777641,3.5439564,4.0338077,5.0171368,5.5457774,-3.5484657\
 PG=Unknown\\@
 The archive entry for this job was punched.


 ROSE IS A RED
 TY COBB IS BLUE
 'CAUSE PETE JUST HIT
 NO. 4592.
 Job cpu time:       0 days  0 hours 26 minutes 16.4 seconds.
 Elapsed time:       0 days  0 hours  1 minutes 48.7 seconds.
 File lengths (MBytes):  RWF=    530 Int=      0 D2E=      0 Chk=     15 Scr=      1
 Normal termination of Gaussian 16 at Wed Apr  9 17:34:50 2025.
 Initial command:
 /arc/software/Gaussian/g16.c01/l1.exe "/tmp/slurm/4879202/Gau-1825140.inp" -scrdir="/tmp/slurm/4879202/"
 Entering Link 1 = /arc/software/Gaussian/g16.c01/l1.exe PID=   1825559.
  
 Copyright (c) 1988-2019, Gaussian, Inc.  All Rights Reserved.
  
 This is part of the Gaussian(R) 16 program.  It is based on
 the Gaussian(R) 09 system (copyright 2009, Gaussian, Inc.),
 the Gaussian(R) 03 system (copyright 2003, Gaussian, Inc.),
 the Gaussian(R) 98 system (copyright 1998, Gaussian, Inc.),
 the Gaussian(R) 94 system (copyright 1995, Gaussian, Inc.),
 the Gaussian 92(TM) system (copyright 1992, Gaussian, Inc.),
 the Gaussian 90(TM) system (copyright 1990, Gaussian, Inc.),
 the Gaussian 88(TM) system (copyright 1988, Gaussian, Inc.),
 the Gaussian 86(TM) system (copyright 1986, Carnegie Mellon
 University), and the Gaussian 82(TM) system (copyright 1983,
 Carnegie Mellon University). Gaussian is a federally registered
 trademark of Gaussian, Inc.
  
 This software contains proprietary and confidential information,
 including trade secrets, belonging to Gaussian, Inc.
  
 This software is provided under written license and may be
 used, copied, transmitted, or stored only in accord with that
 written license.
  
 The following legend is applicable only to US Government
 contracts under FAR:
  
                    RESTRICTED RIGHTS LEGEND
  
 Use, reproduction and disclosure by the US Government is
 subject to restrictions as set forth in subparagraphs (a)
 and (c) of the Commercial Computer Software - Restricted
 Rights clause in FAR 52.227-19.
  
 Gaussian, Inc.
 340 Quinnipiac St., Bldg. 40, Wallingford CT 06492
  
  
 ---------------------------------------------------------------
 Warning -- This program may not be used in any manner that
 competes with the business of Gaussian, Inc. or will provide
 assistance to any competitor of Gaussian, Inc.  The licensee
 of this program is prohibited from giving any competitor of
 Gaussian, Inc. access to this program.  By using this program,
 the user acknowledges that Gaussian, Inc. is engaged in the
 business of creating and licensing software in the field of
 computational chemistry and represents and warrants to the
 licensee that it is not a competitor of Gaussian, Inc. and that
 it will not use this program in any manner prohibited above.
 ---------------------------------------------------------------
  

 Cite this work as:
 Gaussian 16, Revision C.01,
 M. J. Frisch, G. W. Trucks, H. B. Schlegel, G. E. Scuseria, 
 M. A. Robb, J. R. Cheeseman, G. Scalmani, V. Barone, 
 G. A. Petersson, H. Nakatsuji, X. Li, M. Caricato, A. V. Marenich, 
 J. Bloino, B. G. Janesko, R. Gomperts, B. Mennucci, H. P. Hratchian, 
 J. V. Ortiz, A. F. Izmaylov, J. L. Sonnenberg, D. Williams-Young, 
 F. Ding, F. Lipparini, F. Egidi, J. Goings, B. Peng, A. Petrone, 
 T. Henderson, D. Ranasinghe, V. G. Zakrzewski, J. Gao, N. Rega, 
 G. Zheng, W. Liang, M. Hada, M. Ehara, K. Toyota, R. Fukuda, 
 J. Hasegawa, M. Ishida, T. Nakajima, Y. Honda, O. Kitao, H. Nakai, 
 T. Vreven, K. Throssell, J. A. Montgomery, Jr., J. E. Peralta, 
 F. Ogliaro, M. J. Bearpark, J. J. Heyd, E. N. Brothers, K. N. Kudin, 
 V. N. Staroverov, T. A. Keith, R. Kobayashi, J. Normand, 
 K. Raghavachari, A. P. Rendell, J. C. Burant, S. S. Iyengar, 
 J. Tomasi, M. Cossi, J. M. Millam, M. Klene, C. Adamo, R. Cammi, 
 J. W. Ochterski, R. L. Martin, K. Morokuma, O. Farkas, 
 J. B. Foresman, and D. J. Fox, Gaussian, Inc., Wallingford CT, 2019.
 
 ******************************************
 Gaussian 16:  ES64L-G16RevC.01  3-Jul-2019
                 9-Apr-2025 
 ******************************************
 %nprocs=16
 Will use up to   16 processors via shared memory.
 %mem=30GB
 %chk=HB300SPXx10_1093_4.13_0.90_Nmethylacetamide_dimethyldisulfide_dimer_mol1.ch
 k
 ----------------------------------------------------------------------
 #t hf aug-cc-pvdz iop(5/13=1,5/36=2,99/5=2) pseudo=read geom=check gue
 ss=(read,tcheck) scf=(maxcycle=1)
 ----------------------------------------------------------------------
 -----
 title
 -----
 Structure from the checkpoint file:  "HB300SPXx10_1093_4.13_0.90_Nmethylacetamide_dimethyldisulfide_dimer_mol1.chk"
 Charge =  0 Multiplicity = 1
 Z-Matrix found in chk file.
 C,0,-1.31055971,-0.36190707,2.17525478
 H,0,-0.76310857,0.57466921,2.28149083
 H,0,-0.59510431,-1.17658722,2.08130356
 H,0,-1.91110445,-0.50300543,3.06969011
 C,0,-2.23351851,-0.24400233,0.97818704
 O,0,-3.28055753,0.37845097,1.03390772
 N,0,-1.80028089,-0.8717422,-0.1463058
 H,0,-0.86873727,-1.25332097,-0.14439963
 C,0,-2.47826303,-0.73306099,-1.41840567
 H,0,-3.52176476,-0.50262299,-1.22772918
 H,0,-2.04796717,0.07227739,-2.01753243
 H,0,-2.41021126,-1.66360327,-1.97873704
 H,0,1.77790417,2.9198924,-1.60020417
 H,0,2.50079667,1.44284594,-2.27388668
 H,0,2.94656596,1.99799884,-0.63747785
 H,0,1.52332092,-0.43886779,2.00583528
 H,0,3.09621966,-0.07672192,1.24731453
 H,0,2.60294537,-1.76026299,1.50540684
 C,0,2.14489445,1.92142015,-1.36652016
 S,0,0.72292851,1.01342408,-0.68358747
 S,0,1.47755777,-0.86902165,-0.37913749
 C,0,2.25046253,-0.75797428,1.26575897
 Recover connectivity data from disk.
                    Distance matrix (angstroms):
                    1          2          3          4          5
     1  C    0.000000
     2  H    1.090029   0.000000
     3  H    1.088305   1.770649   0.000000
     4  H    1.086544   1.760834   1.778335   0.000000
     5  C    1.516155   2.128598   2.184258   2.131999   0.000000
     6  O    2.394096   2.816472   3.275186   2.607063   1.219362
     7  N    2.426809   3.010320   2.551005   3.238963   1.358763
     8  H    2.524009   3.039350   2.243773   3.461196   2.035081
     9  C    3.796799   4.282657   3.998871   4.529636   2.458197
    10  H    4.060730   4.591881   4.468699   4.589340   2.567592
    11  H    4.279223   4.514960   4.524481   5.121476   3.018078
    12  H    4.489910   5.086487   4.473894   5.204105   3.284796
    13  H    5.879023   5.198497   5.997150   6.865342   5.722748
    14  H    6.130125   5.670826   5.950942   7.197571   5.986249
    15  H    5.621720   4.930307   5.478430   6.602657   5.871134
    16  H    2.839983   2.516148   2.244471   3.595995   3.899728
    17  H    4.512439   4.048240   3.940953   5.345659   5.339150
    18  H    4.209468   4.169476   3.301493   4.940073   5.095919
    19  C    5.449579   4.855739   5.384490   6.481429   5.418229
    20  S    3.768234   3.345520   3.765366   4.829574   3.617070
    21  S    3.815191   3.766135   3.231763   4.848857   4.000633
    22  C    3.696611   3.448081   2.989582   4.542886   4.522494
                    6          7          8          9         10
     6  O    0.000000
     7  N    2.268723   0.000000
     8  H    3.141332   1.006668   0.000000
     9  C    2.809444   1.448147   2.117625   0.000000
    10  H    2.439154   2.066212   2.962382   1.085521   0.000000
    11  H    3.305194   2.110453   2.580004   1.092098   1.768157
    12  H    3.742127   2.087310   2.430898   1.088353   1.774102
    13  H    6.243837   5.412367   5.151678   5.611780   6.319718
    14  H    6.745257   5.327587   4.812254   5.500678   6.414869
    15  H    6.647822   5.568592   5.036938   6.123504   6.959943
    16  H    4.968893   3.983142   3.317949   5.274908   5.992737
    17  H    6.396563   5.152665   4.363730   6.213832   7.078485
    18  H    6.277899   4.786024   3.877039   5.951681   6.823765
    19  C    6.130117   4.985488   4.544726   5.331280   6.164923
    20  S    4.402372   3.195170   2.821747   3.719919   4.540034
    21  S    5.117865   3.286099   2.389119   4.092320   5.084052
    22  C    5.651318   4.291316   3.458804   5.437482   6.292956
                   11         12         13         14         15
    11  H    0.000000
    12  H    1.773699   0.000000
    13  H    4.787522   6.220292   0.000000
    14  H    4.757670   5.818517   1.777101   0.000000
    15  H    5.527958   6.625811   1.772710   1.784584   0.000000
    16  H    5.403967   5.731446   4.934532   4.776225   3.866659
    17  H    6.094595   6.576198   4.338896   3.881040   2.807010
    18  H    6.115578   6.105763   5.677091   4.955139   4.339880
    19  C    4.628524   5.828910   1.089145   1.085824   1.086298
    20  S    3.216058   4.319775   2.363849   2.423689   2.432299
    21  S    3.999963   4.278414   3.992127   3.159402   3.231800
    22  C    5.472277   5.750548   4.686551   4.175568   3.420856
                   16         17         18         19         20
    16  H    0.000000
    17  H    1.783400   0.000000
    18  H    1.778230   1.773201   0.000000
    19  C    4.162943   3.424868   4.691755   0.000000
    20  S    3.159553   3.247970   4.002437   1.820121   0.000000
    21  S    2.423886   2.427581   2.369033   3.034276   2.050794
    22  C    1.085485   1.086163   1.089155   3.757551   3.044859
                   21         22
    21  S    0.000000
    22  C    1.820823   0.000000
 Framework group  C1[X(C5H13NOS2)]
 Deg. of freedom    60
                         Standard orientation:                         
 ---------------------------------------------------------------------
 Center     Atomic      Atomic             Coordinates (Angstroms)
 Number     Number       Type             X           Y           Z
 ---------------------------------------------------------------------
      1          6           0       -1.657202    1.679252   -0.759210
      2          1           0       -0.996330    1.507775   -1.608921
      3          1           0       -1.084547    2.143854    0.041176
      4          1           0       -2.449347    2.350162   -1.080089
      5          6           0       -2.271146    0.353270   -0.354770
      6          8           0       -3.186984   -0.148536   -0.984273
      7          7           0       -1.719528   -0.224706    0.744274
      8          1           0       -0.886902    0.190926    1.128155
      9          6           0       -2.078191   -1.559138    1.177614
     10          1           0       -3.084850   -1.773052    0.832314
     11          1           0       -1.401845   -2.311005    0.765388
     12          1           0       -2.048837   -1.617105    2.264025
     13          1           0        2.668134   -2.176731   -1.752072
     14          1           0        3.260723   -1.919812   -0.096500
     15          1           0        3.434188   -0.636386   -1.324289
     16          1           0        1.094138    2.320451   -0.468525
     17          1           0        2.830342    1.928498   -0.356795
     18          1           0        2.019262    2.753297    0.987117
     19          6           0        2.804864   -1.442927   -0.958930
     20         16           0        1.138862   -0.837854   -0.545210
     21         16           0        1.486016    0.445246    1.016487
     22          6           0        1.898406    2.016558    0.194106
 ---------------------------------------------------------------------
 Rotational constants (GHZ):           1.4986591           0.6414041           0.5701488
 ======================================================================================================
                                       Pseudopotential Parameters
 ======================================================================================================
  Center     Atomic      Valence      Angular      Power
  Number     Number     Electrons     Momentum     of R      Exponent        Coefficient   SO-Coeffient
 ======================================================================================================
    1          6            6
                                      G and up 
                                                     0        0.0000010       -0.00011185    0.00000000
                                                     2        0.1200000       -0.02301220    0.00000000
                                                     2        0.1400000        0.13317600    0.00000000
                                                     2        0.1600000       -0.19690668    0.00000000
                                                     2        0.2200000        0.23163694    0.00000000
                                                     2        0.3000000       -0.36920489    0.00000000
                                                     2        0.4000000        0.36389709    0.00000000
                                                     2        0.7000000       -0.38862160    0.00000000
                                                     2        1.3000000        0.80803421    0.00000000
                                      S - G
                                                     0        0.0000010        0.00312304    0.00000000
                                                     2        0.1200000       -0.00632892    0.00000000
                                                     2        0.2200000       -0.03780897    0.00000000
                                                     2        0.4000000        0.26269560    0.00000000
                                                     2        0.9000000       -0.28209514    0.00000000
                                                     2        1.5000000       -0.72686737    0.00000000
                                      P - G
                                                     0        0.0000010       -0.01465594    0.00000000
                                                     2        0.1200000        0.07908409    0.00000000
                                                     2        0.1800000       -0.30615861    0.00000000
                                                     2        0.2600000        0.41506950    0.00000000
                                                     2        0.5000000       -0.36252345    0.00000000
                                                     2        0.9000000        0.15124193    0.00000000
                                                     2        3.0000000       -0.80425677    0.00000000
                                      D - G
                                                     0        0.0000010        0.01149631    0.00000000
                                                     2        0.1200000       -0.04713561    0.00000000
                                                     2        0.1600000        0.10865096    0.00000000
                                                     2        0.2800000       -0.15816701    0.00000000
                                                     2        0.7000000        0.65478804    0.00000000
                                                     2        1.3000000       -1.73816624    0.00000000
                                      F - G
                                                     0        0.0000010        0.00481868    0.00000000
                                                     2        0.1200000       -0.04746842    0.00000000
                                                     2        0.1600000        0.09327889    0.00000000
                                                     2        0.4000000       -0.19693326    0.00000000
                                                     2        0.9000000        0.34938253    0.00000000
    2          1            1
                                      F and up 
                                                     0        0.0000010       -0.00000699    0.00000000
                                                     2        0.1200000        0.00123686    0.00000000
                                                     2        0.1800000       -0.00752022    0.00000000
                                                     2        0.2600000        0.02503380    0.00000000
                                                     2        0.4000000       -0.08702670    0.00000000
                                                     2        0.6000000        0.30134159    0.00000000
                                                     2        0.8000000       -0.50204959    0.00000000
                                                     2        1.2000000        0.52208372    0.00000000
                                      S - F
                                                     0        0.0000010       -0.01618346    0.00000000
                                                     2        0.1200000       -0.07880581    0.00000000
                                                     2        0.1600000        0.32040539    0.00000000
                                                     2        0.2400000       -0.47500956    0.00000000
                                                     2        0.5000000        0.54013668    0.00000000
                                                     2        1.5000000       -1.40434292    0.00000000
                                                     2        3.0000000        1.46283806    0.00000000
                                      P - F
                                                     0        0.0000010        0.00612970    0.00000000
                                                     2        0.1200000        0.02254406    0.00000000
                                                     2        0.1800000       -0.13874529    0.00000000
                                                     2        0.3000000        0.38299049    0.00000000
                                                     2        0.5000000       -0.57923512    0.00000000
                                                     2        1.0000000        0.63021625    0.00000000
                                                     2        2.0000000       -0.79201034    0.00000000
                                      D - F
                                                     0        0.0000010       -0.00296226    0.00000000
                                                     2        0.1200000       -0.00547344    0.00000000
                                                     2        0.1400000        0.01837884    0.00000000
                                                     2        0.2400000       -0.05565704    0.00000000
                                                     2        0.4000000        0.15376597    0.00000000
                                                     2        0.8000000       -0.32464795    0.00000000
    3          1            1
                                      F and up 
                                                     0        0.0000010       -0.00000699    0.00000000
                                                     2        0.1200000        0.00123686    0.00000000
                                                     2        0.1800000       -0.00752022    0.00000000
                                                     2        0.2600000        0.02503380    0.00000000
                                                     2        0.4000000       -0.08702670    0.00000000
                                                     2        0.6000000        0.30134159    0.00000000
                                                     2        0.8000000       -0.50204959    0.00000000
                                                     2        1.2000000        0.52208372    0.00000000
                                      S - F
                                                     0        0.0000010       -0.01618346    0.00000000
                                                     2        0.1200000       -0.07880581    0.00000000
                                                     2        0.1600000        0.32040539    0.00000000
                                                     2        0.2400000       -0.47500956    0.00000000
                                                     2        0.5000000        0.54013668    0.00000000
                                                     2        1.5000000       -1.40434292    0.00000000
                                                     2        3.0000000        1.46283806    0.00000000
                                      P - F
                                                     0        0.0000010        0.00612970    0.00000000
                                                     2        0.1200000        0.02254406    0.00000000
                                                     2        0.1800000       -0.13874529    0.00000000
                                                     2        0.3000000        0.38299049    0.00000000
                                                     2        0.5000000       -0.57923512    0.00000000
                                                     2        1.0000000        0.63021625    0.00000000
                                                     2        2.0000000       -0.79201034    0.00000000
                                      D - F
                                                     0        0.0000010       -0.00296226    0.00000000
                                                     2        0.1200000       -0.00547344    0.00000000
                                                     2        0.1400000        0.01837884    0.00000000
                                                     2        0.2400000       -0.05565704    0.00000000
                                                     2        0.4000000        0.15376597    0.00000000
                                                     2        0.8000000       -0.32464795    0.00000000
    4          1            1
                                      F and up 
                                                     0        0.0000010       -0.00000699    0.00000000
                                                     2        0.1200000        0.00123686    0.00000000
                                                     2        0.1800000       -0.00752022    0.00000000
                                                     2        0.2600000        0.02503380    0.00000000
                                                     2        0.4000000       -0.08702670    0.00000000
                                                     2        0.6000000        0.30134159    0.00000000
                                                     2        0.8000000       -0.50204959    0.00000000
                                                     2        1.2000000        0.52208372    0.00000000
                                      S - F
                                                     0        0.0000010       -0.01618346    0.00000000
                                                     2        0.1200000       -0.07880581    0.00000000
                                                     2        0.1600000        0.32040539    0.00000000
                                                     2        0.2400000       -0.47500956    0.00000000
                                                     2        0.5000000        0.54013668    0.00000000
                                                     2        1.5000000       -1.40434292    0.00000000
                                                     2        3.0000000        1.46283806    0.00000000
                                      P - F
                                                     0        0.0000010        0.00612970    0.00000000
                                                     2        0.1200000        0.02254406    0.00000000
                                                     2        0.1800000       -0.13874529    0.00000000
                                                     2        0.3000000        0.38299049    0.00000000
                                                     2        0.5000000       -0.57923512    0.00000000
                                                     2        1.0000000        0.63021625    0.00000000
                                                     2        2.0000000       -0.79201034    0.00000000
                                      D - F
                                                     0        0.0000010       -0.00296226    0.00000000
                                                     2        0.1200000       -0.00547344    0.00000000
                                                     2        0.1400000        0.01837884    0.00000000
                                                     2        0.2400000       -0.05565704    0.00000000
                                                     2        0.4000000        0.15376597    0.00000000
                                                     2        0.8000000       -0.32464795    0.00000000
    5          6            6
                                      G and up 
                                                     0        0.0000010       -0.00011185    0.00000000
                                                     2        0.1200000       -0.02301220    0.00000000
                                                     2        0.1400000        0.13317600    0.00000000
                                                     2        0.1600000       -0.19690668    0.00000000
                                                     2        0.2200000        0.23163694    0.00000000
                                                     2        0.3000000       -0.36920489    0.00000000
                                                     2        0.4000000        0.36389709    0.00000000
                                                     2        0.7000000       -0.38862160    0.00000000
                                                     2        1.3000000        0.80803421    0.00000000
                                      S - G
                                                     0        0.0000010        0.00312304    0.00000000
                                                     2        0.1200000       -0.00632892    0.00000000
                                                     2        0.2200000       -0.03780897    0.00000000
                                                     2        0.4000000        0.26269560    0.00000000
                                                     2        0.9000000       -0.28209514    0.00000000
                                                     2        1.5000000       -0.72686737    0.00000000
                                      P - G
                                                     0        0.0000010       -0.01465594    0.00000000
                                                     2        0.1200000        0.07908409    0.00000000
                                                     2        0.1800000       -0.30615861    0.00000000
                                                     2        0.2600000        0.41506950    0.00000000
                                                     2        0.5000000       -0.36252345    0.00000000
                                                     2        0.9000000        0.15124193    0.00000000
                                                     2        3.0000000       -0.80425677    0.00000000
                                      D - G
                                                     0        0.0000010        0.01149631    0.00000000
                                                     2        0.1200000       -0.04713561    0.00000000
                                                     2        0.1600000        0.10865096    0.00000000
                                                     2        0.2800000       -0.15816701    0.00000000
                                                     2        0.7000000        0.65478804    0.00000000
                                                     2        1.3000000       -1.73816624    0.00000000
                                      F - G
                                                     0        0.0000010        0.00481868    0.00000000
                                                     2        0.1200000       -0.04746842    0.00000000
                                                     2        0.1600000        0.09327889    0.00000000
                                                     2        0.4000000       -0.19693326    0.00000000
                                                     2        0.9000000        0.34938253    0.00000000
    6          8            8
                                      G and up 
                                                     0        0.0000010        0.00001165    0.00000000
                                                     2        0.1200000       -0.01744018    0.00000000
                                                     2        0.1400000        0.05401326    0.00000000
                                                     2        0.1800000       -0.08231208    0.00000000
                                                     2        0.2600000        0.11570222    0.00000000
                                                     2        0.4000000       -0.20630360    0.00000000
                                                     2        0.7000000        0.38074319    0.00000000
                                                     2        1.2000000       -0.17045091    0.00000000
                                                     2        2.0000000       -1.45433187    0.00000000
                                      S - G
                                                     0        0.0000010       -0.00117944    0.00000000
                                                     2        0.1400000        0.04368312    0.00000000
                                                     2        0.3000000       -0.33477926    0.00000000
                                                     2        0.6000000        1.52630657    0.00000000
                                                     2        1.5000000       -2.50804716    0.00000000
                                                     2        3.0000000        2.89751681    0.00000000
                                      P - G
                                                     0        0.0000010        0.06576007    0.00000000
                                                     2        0.1200000       -0.10329304    0.00000000
                                                     2        0.2000000        0.24891756    0.00000000
                                                     2        0.4000000       -0.50800022    0.00000000
                                                     2        0.9000000        0.81480796    0.00000000
                                      D - G
                                                     0        0.0000010       -0.14101855    0.00000000
                                                     2        0.1200000        0.22105937    0.00000000
                                                     2        0.1800000       -0.45814988    0.00000000
                                                     2        0.3000000        0.46029282    0.00000000
                                      F - G
                                                     0        0.0000010        0.07483044    0.00000000
                                                     2        0.1200000       -0.09134252    0.00000000
                                                     2        0.1400000        0.04125459    0.00000000
                                                     2        0.3000000        0.37914837    0.00000000
                                                     2        0.5000000       -0.86881279    0.00000000
    7          7            7
                                      G and up 
                                                     0        0.0000010       -0.00000022    0.00000000
                                                     2        0.1200000       -0.00992020    0.00000000
                                                     2        0.1400000        0.02578711    0.00000000
                                                     2        0.2200000       -0.10543517    0.00000000
                                                     2        0.3000000        0.23013665    0.00000000
                                                     2        0.5000000       -0.60834094    0.00000000
                                                     2        0.8000000        1.81436815    0.00000000
                                                     2        1.2000000       -3.87539738    0.00000000
                                                     2        2.0000000        2.94656640    0.00000000
                                      S - G
                                                     0        0.0000010       -0.00223566    0.00000000
                                                     2        0.1200000        0.45247937    0.00000000
                                                     2        0.1600000       -0.78978304    0.00000000
                                                     2        0.4000000        0.84956595    0.00000000
                                                     2        3.0000000       -0.75910174    0.00000000
                                      P - G
                                                     0        0.0000010       -0.25576737    0.00000000
                                                     2        0.1200000       -0.19992277    0.00000000
                                                     2        0.1600000        0.88518512    0.00000000
                                                     2        0.2400000       -1.33293917    0.00000000
                                                     2        0.4000000        1.33451776    0.00000000
                                                     2        0.9000000       -0.55709210    0.00000000
                                                     2        2.5000000        2.48506502    0.00000000
                                      D - G
                                                     0        0.0000010        0.26143746    0.00000000
                                                     2        0.1200000       -0.04492212    0.00000000
                                                     2        0.1400000       -0.18274021    0.00000000
                                                     2        0.2400000        0.53490004    0.00000000
                                                     2        0.4000000       -0.74136473    0.00000000
                                                     2        1.3000000        1.71401021    0.00000000
                                      F - G
                                                     0        0.0000010       -0.07169988    0.00000000
                                                     2        0.1200000        0.04480029    0.00000000
                                                     2        0.2600000       -0.08050831    0.00000000
                                                     2        0.5000000        0.31290809    0.00000000
                                                     2        1.0000000       -0.45253098    0.00000000
    8          1            1
                                      F and up 
                                                     0        0.0000010       -0.00000699    0.00000000
                                                     2        0.1200000        0.00123686    0.00000000
                                                     2        0.1800000       -0.00752022    0.00000000
                                                     2        0.2600000        0.02503380    0.00000000
                                                     2        0.4000000       -0.08702670    0.00000000
                                                     2        0.6000000        0.30134159    0.00000000
                                                     2        0.8000000       -0.50204959    0.00000000
                                                     2        1.2000000        0.52208372    0.00000000
                                      S - F
                                                     0        0.0000010       -0.01618346    0.00000000
                                                     2        0.1200000       -0.07880581    0.00000000
                                                     2        0.1600000        0.32040539    0.00000000
                                                     2        0.2400000       -0.47500956    0.00000000
                                                     2        0.5000000        0.54013668    0.00000000
                                                     2        1.5000000       -1.40434292    0.00000000
                                                     2        3.0000000        1.46283806    0.00000000
                                      P - F
                                                     0        0.0000010        0.00612970    0.00000000
                                                     2        0.1200000        0.02254406    0.00000000
                                                     2        0.1800000       -0.13874529    0.00000000
                                                     2        0.3000000        0.38299049    0.00000000
                                                     2        0.5000000       -0.57923512    0.00000000
                                                     2        1.0000000        0.63021625    0.00000000
                                                     2        2.0000000       -0.79201034    0.00000000
                                      D - F
                                                     0        0.0000010       -0.00296226    0.00000000
                                                     2        0.1200000       -0.00547344    0.00000000
                                                     2        0.1400000        0.01837884    0.00000000
                                                     2        0.2400000       -0.05565704    0.00000000
                                                     2        0.4000000        0.15376597    0.00000000
                                                     2        0.8000000       -0.32464795    0.00000000
    9          6            6
                                      G and up 
                                                     0        0.0000010       -0.00011185    0.00000000
                                                     2        0.1200000       -0.02301220    0.00000000
                                                     2        0.1400000        0.13317600    0.00000000
                                                     2        0.1600000       -0.19690668    0.00000000
                                                     2        0.2200000        0.23163694    0.00000000
                                                     2        0.3000000       -0.36920489    0.00000000
                                                     2        0.4000000        0.36389709    0.00000000
                                                     2        0.7000000       -0.38862160    0.00000000
                                                     2        1.3000000        0.80803421    0.00000000
                                      S - G
                                                     0        0.0000010        0.00312304    0.00000000
                                                     2        0.1200000       -0.00632892    0.00000000
                                                     2        0.2200000       -0.03780897    0.00000000
                                                     2        0.4000000        0.26269560    0.00000000
                                                     2        0.9000000       -0.28209514    0.00000000
                                                     2        1.5000000       -0.72686737    0.00000000
                                      P - G
                                                     0        0.0000010       -0.01465594    0.00000000
                                                     2        0.1200000        0.07908409    0.00000000
                                                     2        0.1800000       -0.30615861    0.00000000
                                                     2        0.2600000        0.41506950    0.00000000
                                                     2        0.5000000       -0.36252345    0.00000000
                                                     2        0.9000000        0.15124193    0.00000000
                                                     2        3.0000000       -0.80425677    0.00000000
                                      D - G
                                                     0        0.0000010        0.01149631    0.00000000
                                                     2        0.1200000       -0.04713561    0.00000000
                                                     2        0.1600000        0.10865096    0.00000000
                                                     2        0.2800000       -0.15816701    0.00000000
                                                     2        0.7000000        0.65478804    0.00000000
                                                     2        1.3000000       -1.73816624    0.00000000
                                      F - G
                                                     0        0.0000010        0.00481868    0.00000000
                                                     2        0.1200000       -0.04746842    0.00000000
                                                     2        0.1600000        0.09327889    0.00000000
                                                     2        0.4000000       -0.19693326    0.00000000
                                                     2        0.9000000        0.34938253    0.00000000
   10          1            1
                                      F and up 
                                                     0        0.0000010       -0.00000699    0.00000000
                                                     2        0.1200000        0.00123686    0.00000000
                                                     2        0.1800000       -0.00752022    0.00000000
                                                     2        0.2600000        0.02503380    0.00000000
                                                     2        0.4000000       -0.08702670    0.00000000
                                                     2        0.6000000        0.30134159    0.00000000
                                                     2        0.8000000       -0.50204959    0.00000000
                                                     2        1.2000000        0.52208372    0.00000000
                                      S - F
                                                     0        0.0000010       -0.01618346    0.00000000
                                                     2        0.1200000       -0.07880581    0.00000000
                                                     2        0.1600000        0.32040539    0.00000000
                                                     2        0.2400000       -0.47500956    0.00000000
                                                     2        0.5000000        0.54013668    0.00000000
                                                     2        1.5000000       -1.40434292    0.00000000
                                                     2        3.0000000        1.46283806    0.00000000
                                      P - F
                                                     0        0.0000010        0.00612970    0.00000000
                                                     2        0.1200000        0.02254406    0.00000000
                                                     2        0.1800000       -0.13874529    0.00000000
                                                     2        0.3000000        0.38299049    0.00000000
                                                     2        0.5000000       -0.57923512    0.00000000
                                                     2        1.0000000        0.63021625    0.00000000
                                                     2        2.0000000       -0.79201034    0.00000000
                                      D - F
                                                     0        0.0000010       -0.00296226    0.00000000
                                                     2        0.1200000       -0.00547344    0.00000000
                                                     2        0.1400000        0.01837884    0.00000000
                                                     2        0.2400000       -0.05565704    0.00000000
                                                     2        0.4000000        0.15376597    0.00000000
                                                     2        0.8000000       -0.32464795    0.00000000
   11          1            1
                                      F and up 
                                                     0        0.0000010       -0.00000699    0.00000000
                                                     2        0.1200000        0.00123686    0.00000000
                                                     2        0.1800000       -0.00752022    0.00000000
                                                     2        0.2600000        0.02503380    0.00000000
                                                     2        0.4000000       -0.08702670    0.00000000
                                                     2        0.6000000        0.30134159    0.00000000
                                                     2        0.8000000       -0.50204959    0.00000000
                                                     2        1.2000000        0.52208372    0.00000000
                                      S - F
                                                     0        0.0000010       -0.01618346    0.00000000
                                                     2        0.1200000       -0.07880581    0.00000000
                                                     2        0.1600000        0.32040539    0.00000000
                                                     2        0.2400000       -0.47500956    0.00000000
                                                     2        0.5000000        0.54013668    0.00000000
                                                     2        1.5000000       -1.40434292    0.00000000
                                                     2        3.0000000        1.46283806    0.00000000
                                      P - F
                                                     0        0.0000010        0.00612970    0.00000000
                                                     2        0.1200000        0.02254406    0.00000000
                                                     2        0.1800000       -0.13874529    0.00000000
                                                     2        0.3000000        0.38299049    0.00000000
                                                     2        0.5000000       -0.57923512    0.00000000
                                                     2        1.0000000        0.63021625    0.00000000
                                                     2        2.0000000       -0.79201034    0.00000000
                                      D - F
                                                     0        0.0000010       -0.00296226    0.00000000
                                                     2        0.1200000       -0.00547344    0.00000000
                                                     2        0.1400000        0.01837884    0.00000000
                                                     2        0.2400000       -0.05565704    0.00000000
                                                     2        0.4000000        0.15376597    0.00000000
                                                     2        0.8000000       -0.32464795    0.00000000
   12          1            1
                                      F and up 
                                                     0        0.0000010       -0.00000699    0.00000000
                                                     2        0.1200000        0.00123686    0.00000000
                                                     2        0.1800000       -0.00752022    0.00000000
                                                     2        0.2600000        0.02503380    0.00000000
                                                     2        0.4000000       -0.08702670    0.00000000
                                                     2        0.6000000        0.30134159    0.00000000
                                                     2        0.8000000       -0.50204959    0.00000000
                                                     2        1.2000000        0.52208372    0.00000000
                                      S - F
                                                     0        0.0000010       -0.01618346    0.00000000
                                                     2        0.1200000       -0.07880581    0.00000000
                                                     2        0.1600000        0.32040539    0.00000000
                                                     2        0.2400000       -0.47500956    0.00000000
                                                     2        0.5000000        0.54013668    0.00000000
                                                     2        1.5000000       -1.40434292    0.00000000
                                                     2        3.0000000        1.46283806    0.00000000
                                      P - F
                                                     0        0.0000010        0.00612970    0.00000000
                                                     2        0.1200000        0.02254406    0.00000000
                                                     2        0.1800000       -0.13874529    0.00000000
                                                     2        0.3000000        0.38299049    0.00000000
                                                     2        0.5000000       -0.57923512    0.00000000
                                                     2        1.0000000        0.63021625    0.00000000
                                                     2        2.0000000       -0.79201034    0.00000000
                                      D - F
                                                     0        0.0000010       -0.00296226    0.00000000
                                                     2        0.1200000       -0.00547344    0.00000000
                                                     2        0.1400000        0.01837884    0.00000000
                                                     2        0.2400000       -0.05565704    0.00000000
                                                     2        0.4000000        0.15376597    0.00000000
                                                     2        0.8000000       -0.32464795    0.00000000
   13          1            1
                                      F and up 
                                                     0        0.0000010       -0.00000699    0.00000000
                                                     2        0.1200000        0.00123686    0.00000000
                                                     2        0.1800000       -0.00752022    0.00000000
                                                     2        0.2600000        0.02503380    0.00000000
                                                     2        0.4000000       -0.08702670    0.00000000
                                                     2        0.6000000        0.30134159    0.00000000
                                                     2        0.8000000       -0.50204959    0.00000000
                                                     2        1.2000000        0.52208372    0.00000000
                                      S - F
                                                     0        0.0000010       -0.01618346    0.00000000
                                                     2        0.1200000       -0.07880581    0.00000000
                                                     2        0.1600000        0.32040539    0.00000000
                                                     2        0.2400000       -0.47500956    0.00000000
                                                     2        0.5000000        0.54013668    0.00000000
                                                     2        1.5000000       -1.40434292    0.00000000
                                                     2        3.0000000        1.46283806    0.00000000
                                      P - F
                                                     0        0.0000010        0.00612970    0.00000000
[...]
                                                     2        0.1400000       -0.04929246    0.00000000
                                                     2        0.2200000        0.11673929    0.00000000
                                                     2        0.3000000       -0.24406081    0.00000000
                                                     2        0.5000000        0.65938599    0.00000000
                                                     2        0.9000000       -2.67146103    0.00000000
                                                     2        1.6000000        1.72231217    0.00000000
                                      S - G
                                                     0        0.0000010       -0.00315363    0.00000000
                                                     2        0.1600000        0.09915567    0.00000000
                                                     2        0.3000000       -0.42531365    0.00000000
                                                     2        0.6000000        1.27985937    0.00000000
                                      P - G
                                                     0        0.0000010        0.05906535    0.00000000
                                                     2        0.1200000       -0.03516302    0.00000000
                                                     2        0.1600000        0.00585339    0.00000000
                                                     2        0.5000000        0.34013084    0.00000000
                                      D - G
                                                     0        0.0000010        0.03484679    0.00000000
                                                     2        0.1200000        0.00763944    0.00000000
                                                     2        0.2400000       -0.16368217    0.00000000
                                                     2        0.7000000        1.04339930    0.00000000
                                      F - G
                                                     0        0.0000010       -0.02227713    0.00000000
                                                     2        0.1200000       -0.15866626    0.00000000
                                                     2        0.1600000        0.42479417    0.00000000
                                                     2        0.2600000       -0.42884495    0.00000000
   21         16           16
                                      G and up 
                                                     0        0.0000010       -0.00108337    0.00000000
                                                     2        0.1200000        0.02393503    0.00000000
                                                     2        0.1400000       -0.04929246    0.00000000
                                                     2        0.2200000        0.11673929    0.00000000
                                                     2        0.3000000       -0.24406081    0.00000000
                                                     2        0.5000000        0.65938599    0.00000000
                                                     2        0.9000000       -2.67146103    0.00000000
                                                     2        1.6000000        1.72231217    0.00000000
                                      S - G
                                                     0        0.0000010       -0.00315363    0.00000000
                                                     2        0.1600000        0.09915567    0.00000000
                                                     2        0.3000000       -0.42531365    0.00000000
                                                     2        0.6000000        1.27985937    0.00000000
                                      P - G
                                                     0        0.0000010        0.05906535    0.00000000
                                                     2        0.1200000       -0.03516302    0.00000000
                                                     2        0.1600000        0.00585339    0.00000000
                                                     2        0.5000000        0.34013084    0.00000000
                                      D - G
                                                     0        0.0000010        0.03484679    0.00000000
                                                     2        0.1200000        0.00763944    0.00000000
                                                     2        0.2400000       -0.16368217    0.00000000
                                                     2        0.7000000        1.04339930    0.00000000
                                      F - G
                                                     0        0.0000010       -0.02227713    0.00000000
                                                     2        0.1200000       -0.15866626    0.00000000
                                                     2        0.1600000        0.42479417    0.00000000
                                                     2        0.2600000       -0.42884495    0.00000000
   22          6            6
                                      G and up 
                                                     0        0.0000010       -0.00011185    0.00000000
                                                     2        0.1200000       -0.02301220    0.00000000
                                                     2        0.1400000        0.13317600    0.00000000
                                                     2        0.1600000       -0.19690668    0.00000000
                                                     2        0.2200000        0.23163694    0.00000000
                                                     2        0.3000000       -0.36920489    0.00000000
                                                     2        0.4000000        0.36389709    0.00000000
                                                     2        0.7000000       -0.38862160    0.00000000
                                                     2        1.3000000        0.80803421    0.00000000
                                      S - G
                                                     0        0.0000010        0.00312304    0.00000000
                                                     2        0.1200000       -0.00632892    0.00000000
                                                     2        0.2200000       -0.03780897    0.00000000
                                                     2        0.4000000        0.26269560    0.00000000
                                                     2        0.9000000       -0.28209514    0.00000000
                                                     2        1.5000000       -0.72686737    0.00000000
                                      P - G
                                                     0        0.0000010       -0.01465594    0.00000000
                                                     2        0.1200000        0.07908409    0.00000000
                                                     2        0.1800000       -0.30615861    0.00000000
                                                     2        0.2600000        0.41506950    0.00000000
                                                     2        0.5000000       -0.36252345    0.00000000
                                                     2        0.9000000        0.15124193    0.00000000
                                                     2        3.0000000       -0.80425677    0.00000000
                                      D - G
                                                     0        0.0000010        0.01149631    0.00000000
                                                     2        0.1200000       -0.04713561    0.00000000
                                                     2        0.1600000        0.10865096    0.00000000
                                                     2        0.2800000       -0.15816701    0.00000000
                                                     2        0.7000000        0.65478804    0.00000000
                                                     2        1.3000000       -1.73816624    0.00000000
                                      F - G
                                                     0        0.0000010        0.00481868    0.00000000
                                                     2        0.1200000       -0.04746842    0.00000000
                                                     2        0.1600000        0.09327889    0.00000000
                                                     2        0.4000000       -0.19693326    0.00000000
                                                     2        0.9000000        0.34938253    0.00000000
 ======================================================================================================
   332 basis functions,   606 primitive gaussians,   350 cartesian basis functions
    45 alpha electrons       45 beta electrons
       nuclear repulsion energy       654.0047546253 Hartrees.
 NAtoms=   22 NActive=   22 NUniq=   22 SFac= 1.00D+00 NAtFMM=   60 NAOKFM=F Big=F
   1 Symmetry operations used in ECPInt.
 ECPInt:  NShTT=   11325 NPrTT=   57889 LenC2=   11213 LenP2D=   40470.
 LDataN:  DoStor=T MaxTD1= 6 Len=  172
 Initial guess from the checkpoint file:  "HB300SPXx10_1093_4.13_0.90_Nmethylacetamide_dimethyldisulfide_dimer_mol1.chk"
 B after Tr=     0.241993   -0.000817   -0.005750
         Rot=    0.515401    0.845992    0.127923   -0.047903 Ang= 117.95 deg.
 >>>>>>>>>> Convergence criterion not met.
 SCF Done:  E(RHF) =  -1121.48862778     A.U. after    2 cycles
            NFock=  1  Conv=0.40D-02     -V/T= 2.0040

 **********************************************************************

            Population analysis using the SCF Density.

 **********************************************************************

 Orbital symmetries:
       Occupied  (A) (A) (A) (A) (A) (A) (A) (A) (A) (A) (A) (A)
                 (A) (A) (A) (A) (A) (A) (A) (A) (A) (A) (A) (A)
                 (A) (A) (A) (A) (A) (A) (A) (A) (A) (A) (A) (A)
                 (A) (A) (A) (A) (A) (A) (A) (A) (A)
       Virtual   (A) (A) (A) (A) (A) (A) (A) (A) (A) (A) (A) (A)
                 (A) (A) (A) (A) (A) (A) (A) (A) (A) (A) (A) (A)
                 (A) (A) (A) (A) (A) (A) (A) (A) (A) (A) (A) (A)
                 (A) (A) (A) (A) (A) (A) (A) (A) (A) (A) (A) (A)
                 (A) (A) (A) (A) (A) (A) (A) (A) (A) (A) (A) (A)
                 (A) (A) (A) (A) (A) (A) (A) (A) (A) (A) (A) (A)
                 (A) (A) (A) (A) (A) (A) (A) (A) (A) (A) (A) (A)
                 (A) (A) (A) (A) (A) (A) (A) (A) (A) (A) (A) (A)
                 (A) (A) (A) (A) (A) (A) (A) (A) (A) (A) (A) (A)
                 (A) (A) (A) (A) (A) (A) (A) (A) (A) (A) (A) (A)
                 (A) (A) (A) (A) (A) (A) (A) (A) (A) (A) (A) (A)
                 (A) (A) (A) (A) (A) (A) (A) (A) (A) (A) (A) (A)
                 (A) (A) (A) (A) (A) (A) (A) (A) (A) (A) (A) (A)
                 (A) (A) (A) (A) (A) (A) (A) (A) (A) (A) (A) (A)
                 (A) (A) (A) (A) (A) (A) (A) (A) (A) (A) (A) (A)
                 (A) (A) (A) (A) (A) (A) (A) (A) (A) (A) (A) (A)
                 (A) (A) (A) (A) (A) (A) (A) (A) (A) (A) (A) (A)
                 (A) (A) (A) (A) (A) (A) (A) (A) (A) (A) (A) (A)
                 (A) (A) (A) (A) (A) (A) (A) (A) (A) (A) (A) (A)
                 (A) (A) (A) (A) (A) (A) (A) (A) (A) (A) (A) (A)
                 (A) (A) (A) (A) (A) (A) (A) (A) (A) (A) (A) (A)
                 (A) (A) (A) (A) (A) (A) (A) (A) (A) (A) (A) (A)
                 (A) (A) (A) (A) (A) (A) (A) (A) (A) (A) (A) (A)
                 (A) (A) (A) (A) (A) (A) (A) (A) (A) (A) (A)
 The electronic state is 1-A.
 Alpha  occ. eigenvalues --  -93.57097 -93.56638 -20.51443 -15.62861 -11.34635
 Alpha  occ. eigenvalues --  -11.28344 -11.27961 -11.25335 -11.23581  -8.86719
 Alpha  occ. eigenvalues --   -8.86265  -6.20889  -6.20601  -6.20393  -6.20367
 Alpha  occ. eigenvalues --   -6.20137  -6.19809  -1.32820  -1.18148  -1.08705
 Alpha  occ. eigenvalues --   -1.01596  -1.00202  -0.91708  -0.91211  -0.79283
 Alpha  occ. eigenvalues --   -0.77247  -0.68357  -0.64551  -0.62783  -0.62584
 Alpha  occ. eigenvalues --   -0.61728  -0.61192  -0.59649  -0.57914  -0.57428
 Alpha  occ. eigenvalues --   -0.54968  -0.54137  -0.53408  -0.50315  -0.50201
 Alpha  occ. eigenvalues --   -0.45069  -0.42295  -0.37938  -0.37309  -0.36304
 Alpha virt. eigenvalues --    0.02767   0.03627   0.04168   0.04699   0.05621
 Alpha virt. eigenvalues --    0.05942   0.06112   0.07068   0.07449   0.08345
 Alpha virt. eigenvalues --    0.08449   0.08932   0.09158   0.10999   0.11162
 Alpha virt. eigenvalues --    0.12361   0.12919   0.13545   0.14304   0.14329
 Alpha virt. eigenvalues --    0.14862   0.15588   0.16173   0.16652   0.16972
 Alpha virt. eigenvalues --    0.17139   0.17534   0.17691   0.17899   0.18416
 Alpha virt. eigenvalues --    0.19016   0.19658   0.19953   0.20138   0.20376
 Alpha virt. eigenvalues --    0.21200   0.21758   0.22111   0.22990   0.23843
 Alpha virt. eigenvalues --    0.23920   0.25216   0.25662   0.26617   0.26903
 Alpha virt. eigenvalues --    0.27426   0.27945   0.28612   0.30234   0.30420
 Alpha virt. eigenvalues --    0.30987   0.32086   0.32993   0.33186   0.34283
 Alpha virt. eigenvalues --    0.35150   0.35936   0.37142   0.37505   0.38341
 Alpha virt. eigenvalues --    0.38765   0.39922   0.40337   0.40838   0.41608
 Alpha virt. eigenvalues --    0.41824   0.42983   0.43351   0.43548   0.44079
 Alpha virt. eigenvalues --    0.44710   0.45373   0.45793   0.46265   0.46482
 Alpha virt. eigenvalues --    0.46764   0.47381   0.48257   0.48943   0.49706
 Alpha virt. eigenvalues --    0.49947   0.50833   0.51387   0.51822   0.52694
 Alpha virt. eigenvalues --    0.52938   0.53998   0.55039   0.55891   0.56280
 Alpha virt. eigenvalues --    0.56824   0.57580   0.58162   0.58377   0.58899
 Alpha virt. eigenvalues --    0.59346   0.60199   0.60727   0.60996   0.61845
 Alpha virt. eigenvalues --    0.62483   0.63563   0.64067   0.64938   0.65353
 Alpha virt. eigenvalues --    0.65909   0.66632   0.67182   0.67693   0.68667
 Alpha virt. eigenvalues --    0.68966   0.69076   0.69779   0.69944   0.71170
 Alpha virt. eigenvalues --    0.71646   0.72546   0.72871   0.74048   0.74721
 Alpha virt. eigenvalues --    0.75206   0.76729   0.77359   0.78024   0.78638
 Alpha virt. eigenvalues --    0.79224   0.79880   0.81230   0.81418   0.82935
 Alpha virt. eigenvalues --    0.83889   0.84844   0.85707   0.86461   0.87088
 Alpha virt. eigenvalues --    0.88455   0.89514   0.90063   0.91369   0.92165
 Alpha virt. eigenvalues --    0.92938   0.94075   0.96935   0.98373   1.00258
 Alpha virt. eigenvalues --    1.01718   1.03378   1.05281   1.06316   1.06864
 Alpha virt. eigenvalues --    1.07767   1.08184   1.10147   1.11378   1.12398
 Alpha virt. eigenvalues --    1.12935   1.13343   1.13965   1.14926   1.17859
 Alpha virt. eigenvalues --    1.18793   1.19772   1.21007   1.21734   1.22538
 Alpha virt. eigenvalues --    1.22717   1.25326   1.26270   1.27076   1.27997
 Alpha virt. eigenvalues --    1.29608   1.30838   1.31810   1.33435   1.35048
 Alpha virt. eigenvalues --    1.36535   1.37818   1.38432   1.39417   1.40932
 Alpha virt. eigenvalues --    1.42048   1.43239   1.45011   1.45722   1.46536
 Alpha virt. eigenvalues --    1.48826   1.49335   1.51592   1.52644   1.53895
 Alpha virt. eigenvalues --    1.55225   1.57116   1.59218   1.60769   1.62794
 Alpha virt. eigenvalues --    1.66264   1.67714   1.70765   1.74625   1.78101
 Alpha virt. eigenvalues --    1.79470   1.79926   1.82599   1.83185   1.85905
 Alpha virt. eigenvalues --    1.86513   1.87567   1.88502   1.90670   1.91717
 Alpha virt. eigenvalues --    1.92732   1.93704   1.94859   1.95750   1.99552
 Alpha virt. eigenvalues --    2.02493   2.03868   2.05068   2.05798   2.07119
 Alpha virt. eigenvalues --    2.08433   2.08646   2.12397   2.12675   2.15110
 Alpha virt. eigenvalues --    2.16155   2.18446   2.19006   2.20568   2.21487
 Alpha virt. eigenvalues --    2.22583   2.23216   2.23980   2.25736   2.26115
 Alpha virt. eigenvalues --    2.26665   2.29026   2.30552   2.33440   2.33986
 Alpha virt. eigenvalues --    2.36113   2.39240   2.41795   2.41911   2.44367
 Alpha virt. eigenvalues --    2.47393   2.49062   2.49654   2.50833   2.51725
 Alpha virt. eigenvalues --    2.53818   2.55297   2.55671   2.57596   2.59569
 Alpha virt. eigenvalues --    2.60740   2.66988   2.71586   2.72713   2.75391
 Alpha virt. eigenvalues --    2.78844   2.83388   2.83681   2.85868   2.91394
 Alpha virt. eigenvalues --    2.93920   2.94494   2.95788   2.96382   2.98345
 Alpha virt. eigenvalues --    3.00127   3.02061   3.02758   3.06104   3.11536
 Alpha virt. eigenvalues --    3.14965   3.19545   3.23737   3.36375   3.49655
 Alpha virt. eigenvalues --    3.64209   3.68293   3.70661   3.71568   3.81132
 Alpha virt. eigenvalues --    3.96186   4.11185
          Condensed to atoms (all electrons):
 Mulliken charges:
               1
     1  C    0.445000
     2  H    0.014547
     3  H   -0.109291
     4  H   -0.040755
     5  C    0.327118
     6  O   -0.607826
     7  N   -0.182892
     8  H   -0.004068
     9  C    0.772450
    10  H   -0.181124
    11  H   -0.093551
    12  H   -0.175180
    13  H   -0.077199
    14  H   -0.052271
    15  H   -0.095126
    16  H   -0.240971
    17  H   -0.125589
    18  H   -0.017792
    19  C    0.116738
    20  S    0.198425
    21  S   -0.094578
    22  C    0.223935
 Sum of Mulliken charges =  -0.00000
 Mulliken charges with hydrogens summed into heavy atoms:
               1
     1  C    0.309501
     5  C    0.327118
     6  O   -0.607826
     7  N   -0.186959
     9  C    0.322595
    19  C   -0.107858
    20  S    0.198425
    21  S   -0.094578
    22  C   -0.160418
 Electronic spatial extent (au):  <R**2>=           2197.0353
 Charge=              0.0000 electrons
 Dipole moment (field-independent basis, Debye):
    X=              5.8598    Y=              1.5915    Z=              1.2492  Tot=              6.1993

 Test job not archived.
 1\1\GINC-SE229\SP\RHF\Aug-CC-pVDZ\C5H13N1O1S2\OHZDE\09-Apr-2025\0\\#t 
 hf aug-cc-pvdz iop(5/13=1,5/36=2,99/5=2) pseudo=read geom=check guess=
 (read,tcheck) scf=(maxcycle=1)\\title\\0,1\C,0,-1.31055971,-0.36190707
 ,2.17525478\H,0,-0.76310857,0.57466921,2.28149083\H,0,-0.59510431,-1.1
 7658722,2.08130356\H,0,-1.91110445,-0.50300543,3.06969011\C,0,-2.23351
 851,-0.24400233,0.97818704\O,0,-3.28055753,0.37845097,1.03390772\N,0,-
 1.80028089,-0.8717422,-0.1463058\H,0,-0.86873727,-1.25332097,-0.144399
 63\C,0,-2.47826303,-0.73306099,-1.41840567\H,0,-3.52176476,-0.50262299
 ,-1.22772918\H,0,-2.04796717,0.07227739,-2.01753243\H,0,-2.41021126,-1
 .66360327,-1.97873704\H,0,1.77790417,2.9198924,-1.60020417\H,0,2.50079
 667,1.44284594,-2.27388668\H,0,2.94656596,1.99799884,-0.63747785\H,0,1
 .52332092,-0.43886779,2.00583528\H,0,3.09621966,-0.07672192,1.24731453
 \H,0,2.60294537,-1.76026299,1.50540684\C,0,2.14489445,1.92142015,-1.36
 652016\S,0,0.72292851,1.01342408,-0.68358747\S,0,1.47755777,-0.8690216
 5,-0.37913749\C,0,2.25046253,-0.75797428,1.26575897\\Version=ES64L-G16
 RevC.01\State=1-A\HF=-1121.4886278\RMSD=3.956e-03\Dipole=2.4108232,-0.
 3224556,-0.1806119\Quadrupole=-7.3120138,3.4206656,3.8913482,5.2484168
 ,5.5726345,-3.586696\PG=C01 [X(C5H13N1O1S2)]\\@


 This summer one third of the nation will be ill-housed
 ill-nourished and ill-clad. Only they call it a vacation.
 -- Jonas Salk
 Job cpu time:       0 days  0 hours  3 minutes  4.0 seconds.
 Elapsed time:       0 days  0 hours  0 minutes 12.8 seconds.
 File lengths (MBytes):  RWF=     18 Int=      0 D2E=      0 Chk=     15 Scr=      1
 Normal termination of Gaussian 16 at Wed Apr  9 17:35:03 2025.
