 Entering Gaussian System, Link 0=g16
 Input=04_89R2.gjf
 Output=04_89R2.log
 Initial command:
 /arc/software/Gaussian/g16.c01/l1.exe "/tmp/slurm/2340947/Gau-2814746.inp" -scrdir="/tmp/slurm/2340947/"
 Entering Link 1 = /arc/software/Gaussian/g16.c01/l1.exe PID=   2814754.
  
 Copyright (c) 1988-2019, Gaussian, Inc.  All Rights Reserved.
  
 This is part of the Gaussian(R) 16 program.  It is based on
 the Gaussian(R) 09 system (copyright 2009, Gaussian, Inc.),
 the Gaussian(R) 03 system (copyright 2003, Gaussian, Inc.),
 the Gaussian(R) 98 system (copyright 1998, Gaussian, Inc.),
 the Gaussian(R) 94 system (copyright 1995, Gaussian, Inc.),
 the Gaussian 92(TM) system (copyright 1992, Gaussian, Inc.),
 the Gaussian 90(TM) system (copyright 1990, Gaussian, Inc.),
 the Gaussian 88(TM) system (copyright 1988, Gaussian, Inc.),
 the Gaussian 86(TM) system (copyright 1986, Carnegie Mellon
 University), and the Gaussian 82(TM) system (copyright 1983,
 Carnegie Mellon University). Gaussian is a federally registered
 trademark of Gaussian, Inc.
  
 This software contains proprietary and confidential information,
 including trade secrets, belonging to Gaussian, Inc.
  
 This software is provided under written license and may be
 used, copied, transmitted, or stored only in accord with that
 written license.
  
 The following legend is applicable only to US Government
 contracts under FAR:
  
                    RESTRICTED RIGHTS LEGEND
  
 Use, reproduction and disclosure by the US Government is
 subject to restrictions as set forth in subparagraphs (a)
 and (c) of the Commercial Computer Software - Restricted
 Rights clause in FAR 52.227-19.
  
 Gaussian, Inc.
 340 Quinnipiac St., Bldg. 40, Wallingford CT 06492
  
  
 ---------------------------------------------------------------
 Warning -- This program may not be used in any manner that
 competes with the business of Gaussian, Inc. or will provide
 assistance to any competitor of Gaussian, Inc.  The licensee
 of this program is prohibited from giving any competitor of
 Gaussian, Inc. access to this program.  By using this program,
 the user acknowledges that Gaussian, Inc. is engaged in the
 business of creating and licensing software in the field of
 computational chemistry and represents and warrants to the
 licensee that it is not a competitor of Gaussian, Inc. and that
 it will not use this program in any manner prohibited above.
 ---------------------------------------------------------------
  

 Cite this work as:
 Gaussian 16, Revision C.01,
 M. J. Frisch, G. W. Trucks, H. B. Schlegel, G. E. Scuseria, 
 M. A. Robb, J. R. Cheeseman, G. Scalmani, V. Barone, 
 G. A. Petersson, H. Nakatsuji, X. Li, M. Caricato, A. V. Marenich, 
 J. Bloino, B. G. Janesko, R. Gomperts, B. Mennucci, H. P. Hratchian, 
 J. V. Ortiz, A. F. Izmaylov, J. L. Sonnenberg, D. Williams-Young, 
 F. Ding, F. Lipparini, F. Egidi, J. Goings, B. Peng, A. Petrone, 
 T. Henderson, D. Ranasinghe, V. G. Zakrzewski, J. Gao, N. Rega, 
 G. Zheng, W. Liang, M. Hada, M. Ehara, K. Toyota, R. Fukuda, 
 J. Hasegawa, M. Ishida, T. Nakajima, Y. Honda, O. Kitao, H. Nakai, 
 T. Vreven, K. Throssell, J. A. Montgomery, Jr., J. E. Peralta, 
 F. Ogliaro, M. J. Bearpark, J. J. Heyd, E. N. Brothers, K. N. Kudin, 
 V. N. Staroverov, T. A. Keith, R. Kobayashi, J. Normand, 
 K. Raghavachari, A. P. Rendell, J. C. Burant, S. S. Iyengar, 
 J. Tomasi, M. Cossi, J. M. Millam, M. Klene, C. Adamo, R. Cammi, 
 J. W. Ochterski, R. L. Martin, K. Morokuma, O. Farkas, 
 J. B. Foresman, and D. J. Fox, Gaussian, Inc., Wallingford CT, 2019.
 
 ******************************************
 Gaussian 16:  ES64L-G16RevC.01  3-Jul-2019
                20-Sep-2024 
 ******************************************
 %nprocs=16
 Will use up to   16 processors via shared memory.
 %mem=30GB
 %chk=04_89R2.chk
 ----------------------------------------------------------------------
 #t hf aug-cc-pvdz symm=none int=(grid=ultrafine) guess=(read,tcheck) s
 table=opt
 ----------------------------------------------------------------------
 -----
 title
 -----
 Symbolic Z-matrix:
 Charge =  0 Multiplicity = 2
 N                     0.16377  -0.66145  -0.53931 
 C                     1.2106    0.17805  -0.26244 
 C                     2.28842  -0.65389  -0.00168 
 N                     1.92596  -1.97846  -0.11956 
 C                     0.66435  -1.94073  -0.44617 
 C                     3.49696  -0.01924   0.32353 
 N                     3.53237   1.31802   0.35608 
 C                     2.42063   1.99864   0.08253 
 N                     1.22292   1.5179   -0.2334 
 N                     4.61651  -0.70971   0.6017 
 H                     5.45844  -0.20775   0.82617 
 H                     4.60817  -1.71505   0.5807 
 H                     2.50731   3.07909   0.12492 
 H                     0.02866  -2.7926   -0.62482 
 C                    -1.17017  -0.24225  -0.96384 
 C                    -1.73268   0.87811  -0.07786 
 C                    -3.20636   0.51888  -0.045 
 C                    -3.14525  -1.0092    0.02485 
 O                    -2.05599  -1.32955  -0.87466 
 H                    -1.11055   0.0945   -2.00266 
 C                    -2.9122   -1.54503   1.38594 
 H                    -4.03465  -1.4634   -0.42604 
 H                    -2.46207  -2.52248   1.49456 
 H                    -3.31869  -1.03316   2.24634 
 O                    -1.52912   2.17078  -0.56784 
 H                    -1.33073   0.76841   0.93645 
 H                    -0.56885   2.33432  -0.5072 
 O                    -3.91239   1.06279   1.04069 
 H                    -3.66021   0.82033  -0.99651 
 H                    -3.8534    2.02158   0.98491 
 
                    Distance matrix (angstroms):
                    1          2          3          4          5
     1  N    0.000000
     2  C    1.370132   0.000000
     3  C    2.191631   1.386306   0.000000
     4  N    2.239644   2.276559   1.378320   0.000000
     5  C    1.376891   2.195769   2.119229   1.303739   0.000000
     6  C    3.502435   2.368489   1.403247   2.550086   3.508308
     7  N    4.008420   2.659454   2.358775   3.697780   4.414585
     8  C    3.543467   2.213080   2.657165   4.012845   4.345424
     9  N    2.442318   1.340213   2.430156   3.568158   3.509899
    10  N    4.596855   3.624236   2.405650   3.060887   4.270008
    11  H    5.486702   4.402058   3.306569   4.063040   5.254080
    12  H    4.702890   3.979729   2.616572   2.784605   4.081553
    13  H    4.463740   3.201173   3.741535   5.096721   5.377847
    14  H    2.137142   3.217620   3.173153   2.125520   1.077822
    15  C    1.461281   2.517271   3.613453   3.648726   2.553092
    16  C    2.485898   3.031005   4.303728   4.641909   3.718505
    17  C    3.604899   4.435415   5.618709   5.708144   4.603591
    18  C    3.374731   4.523875   5.445338   5.165017   3.950021
    19  O    2.342261   3.649425   4.482474   4.104532   2.820893
    20  H    2.082484   2.902251   4.014601   4.130811   3.116908
    21  C    3.734824   4.762729   5.455830   5.085482   4.037938
    22  H    4.275832   5.498525   6.388794   5.990666   4.723233
    23  H    3.807239   4.885523   5.319538   4.707022   3.725499
    24  H    4.474994   5.317466   6.052866   5.830729   4.892642
    25  O    3.299725   3.401505   4.782563   5.417995   4.661613
    26  H    2.540848   2.871274   4.000167   4.389359   3.637507
    27  H    3.084213   2.806385   4.165207   4.997437   4.449783
    28  O    4.699418   5.359657   6.517951   6.684438   5.672612
    29  H    4.126445   4.967509   6.208806   6.309320   5.160251
    30  H    5.065526   5.531592   6.771522   7.114853   6.177217
                    6          7          8          9         10
     6  C    0.000000
     7  N    1.338123   0.000000
     8  C    2.299660   1.331935   0.000000
     9  N    2.800751   2.391855   1.328693   0.000000
    10  N    1.344437   2.312436   3.525139   4.144398   0.000000
    11  H    2.033617   2.501744   3.827468   4.694697   1.005586
    12  H    2.043699   3.226038   4.338787   4.751276   1.005599
    13  H    3.258600   2.050740   1.084743   2.053136   4.362451
    14  H    4.540924   5.489563   5.401654   4.489972   5.185667
    15  C    4.846557   5.127421   4.360080   3.059173   6.012904
    16  C    5.321224   5.301177   4.304792   3.028048   6.579899
    17  C    6.734971   6.797783   5.819698   4.544450   7.945114
    18  C    6.722210   7.079274   6.326875   5.053095   7.788918
    19  O    5.829911   6.305087   5.659791   4.389814   6.861932
    20  H    5.162675   5.349515   4.521390   3.255981   6.342603
    21  C    6.673384   7.126713   6.534179   5.394718   7.615392
    22  H    7.705365   8.099862   7.342684   6.047092   8.744534
    23  H    6.568675   7.209628   6.802575   5.734943   7.361353
    24  H    7.153905   7.485860   6.842052   5.769164   8.110293
    25  O    5.554471   5.215307   4.006628   2.848125   6.887213
    26  H    4.929776   4.928351   4.039230   2.907138   6.137308
    27  H    4.770757   4.312547   3.065518   1.987949   6.114216
    28  O    7.522210   7.480527   6.473101   5.310546   8.722191
    29  H    7.326150   7.335555   6.287236   4.991386   8.567342
    30  H    7.657034   7.445801   6.338629   5.244713   8.907643
                   11         12         13         14         15
    11  H    0.000000
    12  H    1.747907   0.000000
    13  H    4.472607   5.254056   0.000000
    14  H    6.186223   4.856573   6.417362   0.000000
    15  C    6.866132   6.159863   5.073515   2.838377   0.000000
    16  C    7.328611   6.882187   4.781518   4.107988   1.535122
    17  C    8.738745   8.151611   6.263347   4.665558   2.360018
    18  C    8.678011   7.805295   6.976780   3.698144   2.338088
    19  O    7.785757   6.832113   6.423319   2.559044   1.405299
    20  H    7.158580   6.530849   5.150076   3.395818   1.093659
    21  C    8.495251   7.565265   7.234892   3.774684   3.202091
    22  H    9.657306   8.704898   7.983422   4.279814   3.160019
    23  H    8.278839   7.174628   7.612365   3.281529   3.593347
    24  H    8.929518   8.128619   7.439979   4.748045   3.942964
    25  O    7.511766   7.354257   4.194961   5.202405   2.471514
    26  H    6.859881   6.447068   4.552848   4.119014   2.158319
    27  H    6.675941   6.662013   3.227539   5.162957   2.684926
    28  O    9.459010   8.973739   6.790928   5.759326   3.638834
    29  H    9.355691   8.791011   6.663179   5.176790   2.707485
    30  H    9.576301   9.258723   6.505117   6.390456   4.015261
                   16         17         18         19         20
    16  C    0.000000
    17  C    1.517188   0.000000
    18  C    2.359624   1.530894   0.000000
    19  O    2.369219   2.329890   1.448522   0.000000
    20  H    2.169315   2.899127   3.077160   2.047967   0.000000
    21  C    3.066851   2.528602   1.481214   2.426898   4.173318
    22  H    3.301967   2.181903   1.095741   2.033290   3.669216
    23  H    3.816867   3.489131   2.217381   2.683494   4.572269
    24  H    3.401513   2.769776   2.228377   3.379775   4.919498
    25  O    1.397323   2.411486   3.615991   3.553034   2.558283
    26  H    1.096550   2.131540   2.698766   2.864884   3.023408
    27  H    1.912947   3.235102   4.254407   3.971219   2.747112
    28  O    2.456915   1.404648   2.431783   3.583027   4.248514
    29  H    2.136036   1.096462   2.157664   2.685208   2.835478
    30  H    2.633338   1.933252   3.257114   4.233054   4.490255
                   21         22         23         24         25
    21  C    0.000000
    22  H    2.133038   0.000000
    23  H    1.081583   2.698770   0.000000
    24  H    1.080521   2.799876   1.875379   0.000000
    25  O    4.420112   4.416453   5.210614   4.624652   0.000000
    26  H    2.838139   3.761451   3.524384   2.985533   2.066134
    27  H    4.911677   5.142085   5.583880   5.146211   0.975981
    28  O    2.814301   2.923672   3.894042   2.489792   3.081401
    29  H    3.439547   2.383491   4.337657   3.750745   2.559110
    30  H    3.710441   3.764131   4.779538   3.347918   2.799212
                   26         27         28         29         30
    26  H    0.000000
    27  H    2.262007   0.000000
    28  O    2.600480   3.897696   0.000000
    29  H    3.027458   3.476799   2.067016   0.000000
    30  H    2.817204   3.621113   0.962223   2.325152   0.000000
 Symmetry turned off by external request.
 Rotational constants (GHZ):           0.9332886           0.2777089           0.2341539
   522 basis functions,   906 primitive gaussians,   558 cartesian basis functions
    66 alpha electrons       65 beta electrons
       nuclear repulsion energy      1379.0462671981 Hartrees.
 NAtoms=   30 NActive=   30 NUniq=   30 SFac= 1.00D+00 NAtFMM=   60 NAOKFM=F Big=F
 ExpMin= 2.97D-02 ExpMax= 1.17D+04 ExpMxC= 4.01D+02 IAcc=3 IRadAn=         5 AccDes= 0.00D+00
 Harris functional with IExCor=  205 and IRadAn=       5 diagonalized for initial guess.
 HarFok:  IExCor=  205 AccDes= 0.00D+00 IRadAn=         5 IDoV= 1 UseB2=F ITyADJ=14
 ICtDFT=  3500011 ScaDFX=  1.000000  1.000000  1.000000  1.000000
 FoFCou: FMM=F IPFlag=           0 FMFlag=      100000 FMFlg1=           0
         NFxFlg=           0 DoJE=T BraDBF=F KetDBF=T FulRan=T
         wScrn=  0.000000 ICntrl=       500 IOpCl=  0 I1Cent=   200000004 NGrid=           0
         NMat0=    1 NMatS0=      1 NMatT0=    0 NMatD0=    1 NMtDS0=    0 NMtDT0=    0
 Symmetry not used in FoFCou.
 Initial guess <Sx>= 0.0000 <Sy>= 0.0000 <Sz>= 0.5000 <S**2>= 0.7500 S= 0.5000
 Restarting incremental Fock formation.
 SCF Done:  E(UHF) =  -882.594303892     A.U. after   26 cycles
            NFock= 26  Conv=0.27D-08     -V/T= 2.0009
 <Sx>= 0.0000 <Sy>= 0.0000 <Sz>= 0.5000 <S**2>= 0.7625 S= 0.5062
 <L.S>=  0.00000000000    
 Annihilation of the first spin contaminant:
 S**2 before annihilation     0.7625,   after     0.7501

 **********************************************************************

            Population analysis using the SCF Density.

 **********************************************************************

 Alpha  occ. eigenvalues --  -20.59618 -20.58485 -20.56855 -15.63641 -15.59903
 Alpha  occ. eigenvalues --  -15.57785 -15.57444 -15.56539 -11.35119 -11.34972
 Alpha  occ. eigenvalues --  -11.32771 -11.32541 -11.32495 -11.30748 -11.30107
 Alpha  occ. eigenvalues --  -11.29694 -11.25997 -11.24652  -1.43266  -1.39011
 Alpha  occ. eigenvalues --   -1.37683  -1.36914  -1.31572  -1.26212  -1.20504
 Alpha  occ. eigenvalues --   -1.16860  -1.07631  -1.04689  -1.03777  -0.95212
 Alpha  occ. eigenvalues --   -0.90453  -0.88892  -0.85832  -0.82209  -0.79538
 Alpha  occ. eigenvalues --   -0.77216  -0.75397  -0.74182  -0.71457  -0.69893
 Alpha  occ. eigenvalues --   -0.68963  -0.67277  -0.66110  -0.65130  -0.64343
 Alpha  occ. eigenvalues --   -0.63165  -0.62044  -0.61045  -0.59284  -0.58502
 Alpha  occ. eigenvalues --   -0.57744  -0.55615  -0.54835  -0.53888  -0.50991
 Alpha  occ. eigenvalues --   -0.50581  -0.49424  -0.46772  -0.45723  -0.45668
 Alpha  occ. eigenvalues --   -0.44465  -0.42032  -0.41049  -0.37914  -0.36874
 Alpha  occ. eigenvalues --   -0.31556
 Alpha virt. eigenvalues --    0.03253   0.03644   0.04019   0.04410   0.04785
 Alpha virt. eigenvalues --    0.05254   0.06071   0.06659   0.06795   0.07292
 Alpha virt. eigenvalues --    0.07855   0.08849   0.09214   0.10060   0.11266
 Alpha virt. eigenvalues --    0.11614   0.11887   0.12369   0.12616   0.12910
 Alpha virt. eigenvalues --    0.13445   0.13695   0.13910   0.14268   0.14791
 Alpha virt. eigenvalues --    0.15194   0.15295   0.15378   0.15820   0.16022
 Alpha virt. eigenvalues --    0.16271   0.16488   0.16855   0.17531   0.17698
 Alpha virt. eigenvalues --    0.18248   0.18521   0.18546   0.19338   0.19944
 Alpha virt. eigenvalues --    0.20277   0.20894   0.21315   0.22080   0.22174
 Alpha virt. eigenvalues --    0.22468   0.23116   0.23976   0.24461   0.24797
 Alpha virt. eigenvalues --    0.24874   0.25839   0.26010   0.26228   0.26694
 Alpha virt. eigenvalues --    0.27747   0.27865   0.28393   0.28848   0.29639
 Alpha virt. eigenvalues --    0.30107   0.30706   0.30875   0.31214   0.31420
 Alpha virt. eigenvalues --    0.31561   0.31896   0.32281   0.32642   0.33042
 Alpha virt. eigenvalues --    0.33189   0.34142   0.34569   0.34984   0.35320
 Alpha virt. eigenvalues --    0.35751   0.36174   0.36283   0.36938   0.37284
 Alpha virt. eigenvalues --    0.37454   0.37762   0.38364   0.38990   0.39398
 Alpha virt. eigenvalues --    0.39771   0.40034   0.40347   0.40774   0.41135
 Alpha virt. eigenvalues --    0.41901   0.42046   0.42827   0.43584   0.43714
 Alpha virt. eigenvalues --    0.43991   0.44365   0.45177   0.45445   0.45685
 Alpha virt. eigenvalues --    0.46101   0.47303   0.47367   0.47597   0.47831
 Alpha virt. eigenvalues --    0.48350   0.48879   0.49440   0.49774   0.50364
 Alpha virt. eigenvalues --    0.50734   0.51837   0.52008   0.52633   0.53333
 Alpha virt. eigenvalues --    0.53717   0.54073   0.54470   0.55068   0.55572
 Alpha virt. eigenvalues --    0.55615   0.56298   0.56448   0.57527   0.58314
 Alpha virt. eigenvalues --    0.58644   0.58771   0.59465   0.59731   0.61200
 Alpha virt. eigenvalues --    0.61510   0.61861   0.62364   0.62696   0.63408
 Alpha virt. eigenvalues --    0.63606   0.64651   0.65035   0.65361   0.65679
 Alpha virt. eigenvalues --    0.65897   0.66699   0.67196   0.67452   0.68144
 Alpha virt. eigenvalues --    0.68363   0.68743   0.69486   0.70218   0.70524
 Alpha virt. eigenvalues --    0.70841   0.71479   0.71842   0.72275   0.72369
 Alpha virt. eigenvalues --    0.72735   0.73233   0.74146   0.74514   0.75208
 Alpha virt. eigenvalues --    0.76130   0.76156   0.76432   0.77033   0.77256
 Alpha virt. eigenvalues --    0.78473   0.79097   0.79957   0.80368   0.80798
 Alpha virt. eigenvalues --    0.81361   0.82173   0.82420   0.83345   0.83495
 Alpha virt. eigenvalues --    0.84438   0.84833   0.85064   0.85548   0.85990
 Alpha virt. eigenvalues --    0.86237   0.86875   0.87693   0.87807   0.88432
 Alpha virt. eigenvalues --    0.88709   0.90484   0.91064   0.91262   0.91870
 Alpha virt. eigenvalues --    0.92554   0.93289   0.93760   0.94860   0.95153
 Alpha virt. eigenvalues --    0.95464   0.95993   0.96829   0.97592   0.97869
 Alpha virt. eigenvalues --    0.98836   0.99478   1.00118   1.00573   1.01624
 Alpha virt. eigenvalues --    1.02155   1.02591   1.03285   1.03685   1.04128
 Alpha virt. eigenvalues --    1.05288   1.05621   1.06435   1.07002   1.07573
 Alpha virt. eigenvalues --    1.09244   1.09894   1.10136   1.10894   1.11292
 Alpha virt. eigenvalues --    1.12290   1.12985   1.13546   1.14570   1.15070
 Alpha virt. eigenvalues --    1.17252   1.17868   1.18378   1.19297   1.20751
 Alpha virt. eigenvalues --    1.21566   1.22096   1.23238   1.24576   1.25952
 Alpha virt. eigenvalues --    1.27322   1.27962   1.28296   1.28957   1.29754
 Alpha virt. eigenvalues --    1.30484   1.31934   1.32536   1.33679   1.34120
 Alpha virt. eigenvalues --    1.34826   1.35766   1.36417   1.37435   1.37988
 Alpha virt. eigenvalues --    1.39841   1.39964   1.41174   1.42265   1.43090
 Alpha virt. eigenvalues --    1.43873   1.45824   1.46300   1.47230   1.49369
 Alpha virt. eigenvalues --    1.49584   1.50804   1.52867   1.53376   1.54004
 Alpha virt. eigenvalues --    1.55745   1.57045   1.57958   1.60560   1.60950
 Alpha virt. eigenvalues --    1.61612   1.63025   1.63735   1.64449   1.65922
 Alpha virt. eigenvalues --    1.67020   1.67237   1.68327   1.69572   1.70021
 Alpha virt. eigenvalues --    1.70796   1.72076   1.73910   1.73968   1.75085
 Alpha virt. eigenvalues --    1.75856   1.76821   1.77127   1.78047   1.79388
 Alpha virt. eigenvalues --    1.81083   1.81372   1.82008   1.82503   1.83048
 Alpha virt. eigenvalues --    1.84522   1.86199   1.87121   1.87196   1.87597
 Alpha virt. eigenvalues --    1.88879   1.90893   1.92236   1.92671   1.94638
 Alpha virt. eigenvalues --    1.94798   1.95119   1.96296   1.97322   1.98289
 Alpha virt. eigenvalues --    1.98409   1.99826   2.01033   2.01630   2.02409
 Alpha virt. eigenvalues --    2.04087   2.05229   2.06599   2.07989   2.09097
 Alpha virt. eigenvalues --    2.09952   2.10901   2.11481   2.12747   2.14242
 Alpha virt. eigenvalues --    2.14933   2.16586   2.16940   2.17822   2.18727
 Alpha virt. eigenvalues --    2.19106   2.20832   2.21555   2.22251   2.22734
 Alpha virt. eigenvalues --    2.23257   2.24201   2.25341   2.26355   2.26940
 Alpha virt. eigenvalues --    2.27965   2.28387   2.28963   2.31032   2.32333
 Alpha virt. eigenvalues --    2.32835   2.34947   2.35660   2.36578   2.38097
 Alpha virt. eigenvalues --    2.39125   2.40343   2.41249   2.41940   2.42713
 Alpha virt. eigenvalues --    2.43732   2.44670   2.46152   2.46321   2.48934
 Alpha virt. eigenvalues --    2.49314   2.49394   2.51789   2.54368   2.55984
 Alpha virt. eigenvalues --    2.56315   2.56768   2.57629   2.58275   2.59526
 Alpha virt. eigenvalues --    2.60137   2.62297   2.63821   2.64348   2.66392
 Alpha virt. eigenvalues --    2.67850   2.69291   2.70439   2.71436   2.72718
 Alpha virt. eigenvalues --    2.74010   2.75332   2.76539   2.76755   2.77893
 Alpha virt. eigenvalues --    2.79234   2.80010   2.81165   2.81893   2.83138
 Alpha virt. eigenvalues --    2.83799   2.84473   2.85207   2.88045   2.89249
 Alpha virt. eigenvalues --    2.89877   2.90920   2.91622   2.92789   2.93704
 Alpha virt. eigenvalues --    2.95176   2.97999   2.98871   3.00264   3.03106
 Alpha virt. eigenvalues --    3.03660   3.05070   3.07085   3.07938   3.10447
 Alpha virt. eigenvalues --    3.10889   3.12941   3.15464   3.16699   3.19672
 Alpha virt. eigenvalues --    3.22598   3.22930   3.27347   3.28371   3.30762
 Alpha virt. eigenvalues --    3.31554   3.37988   3.38996   3.40885   3.44120
 Alpha virt. eigenvalues --    3.47011   3.49068   3.52249   3.54907   3.56469
 Alpha virt. eigenvalues --    3.62475   3.66611   3.77699   3.79469   3.81202
 Alpha virt. eigenvalues --    3.85376   3.85930   3.87036   3.88278   3.88864
 Alpha virt. eigenvalues --    3.90657   3.91758   3.92226   3.95310   3.97652
 Alpha virt. eigenvalues --    4.02455   4.11833   4.13321   4.15823   4.19636
 Alpha virt. eigenvalues --    4.28446   4.33535   4.45507   4.49955   4.64590
 Alpha virt. eigenvalues --    4.72978
  Beta  occ. eigenvalues --  -20.59510 -20.58488 -20.56853 -15.63637 -15.59904
  Beta  occ. eigenvalues --  -15.57782 -15.57448 -15.56537 -11.35121 -11.34975
  Beta  occ. eigenvalues --  -11.32773 -11.32543 -11.32492 -11.31078 -11.30036
  Beta  occ. eigenvalues --  -11.29686 -11.25995 -11.22221  -1.43052  -1.38989
  Beta  occ. eigenvalues --   -1.37625  -1.36905  -1.31565  -1.26212  -1.20486
  Beta  occ. eigenvalues --   -1.16850  -1.06443  -1.04661  -1.02701  -0.91818
  Beta  occ. eigenvalues --   -0.90332  -0.88831  -0.84676  -0.81549  -0.78505
  Beta  occ. eigenvalues --   -0.77100  -0.75106  -0.74079  -0.71258  -0.69810
  Beta  occ. eigenvalues --   -0.68856  -0.66980  -0.65988  -0.64753  -0.64012
  Beta  occ. eigenvalues --   -0.62990  -0.61944  -0.60894  -0.59006  -0.57569
  Beta  occ. eigenvalues --   -0.57276  -0.55230  -0.54335  -0.53728  -0.50990
  Beta  occ. eigenvalues --   -0.50462  -0.49051  -0.46423  -0.45520  -0.45251
  Beta  occ. eigenvalues --   -0.44385  -0.42001  -0.41008  -0.37582  -0.31551
  Beta virt. eigenvalues --    0.03266   0.03663   0.04023   0.04443   0.04794
  Beta virt. eigenvalues --    0.05235   0.06092   0.06575   0.06752   0.06801
  Beta virt. eigenvalues --    0.07866   0.08713   0.08951   0.09659   0.10326
  Beta virt. eigenvalues --    0.11310   0.11757   0.12246   0.12427   0.12886
  Beta virt. eigenvalues --    0.13213   0.13776   0.13902   0.13972   0.14298
  Beta virt. eigenvalues --    0.14816   0.15240   0.15336   0.15812   0.15916
  Beta virt. eigenvalues --    0.16069   0.16550   0.16601   0.16948   0.17578
  Beta virt. eigenvalues --    0.17715   0.18267   0.18590   0.19238   0.19699
  Beta virt. eigenvalues --    0.20057   0.20398   0.21036   0.21429   0.22178
  Beta virt. eigenvalues --    0.22321   0.22528   0.23169   0.24136   0.24532
  Beta virt. eigenvalues --    0.24837   0.25161   0.25981   0.26149   0.26495
  Beta virt. eigenvalues --    0.26719   0.27906   0.28021   0.28534   0.28974
  Beta virt. eigenvalues --    0.29920   0.30274   0.30971   0.31136   0.31361
  Beta virt. eigenvalues --    0.31509   0.31629   0.32013   0.32348   0.32818
  Beta virt. eigenvalues --    0.33068   0.33289   0.34452   0.34739   0.35231
  Beta virt. eigenvalues --    0.35507   0.35884   0.36262   0.36525   0.37060
  Beta virt. eigenvalues --    0.37506   0.37598   0.38234   0.38592   0.39250
  Beta virt. eigenvalues --    0.39505   0.39828   0.40290   0.40498   0.40973
  Beta virt. eigenvalues --    0.41569   0.42075   0.42573   0.42932   0.43731
  Beta virt. eigenvalues --    0.43898   0.44162   0.44510   0.45340   0.45744
  Beta virt. eigenvalues --    0.46127   0.46204   0.47454   0.47480   0.47861
  Beta virt. eigenvalues --    0.48181   0.48579   0.49111   0.49657   0.50091
  Beta virt. eigenvalues --    0.50787   0.51008   0.52015   0.52091   0.52857
  Beta virt. eigenvalues --    0.53449   0.53965   0.54338   0.54622   0.55221
  Beta virt. eigenvalues --    0.55787   0.55984   0.56393   0.56520   0.57910
  Beta virt. eigenvalues --    0.58691   0.58973   0.59225   0.59577   0.60019
  Beta virt. eigenvalues --    0.61402   0.61676   0.62016   0.62560   0.63066
  Beta virt. eigenvalues --    0.63536   0.64025   0.64766   0.65226   0.65691
  Beta virt. eigenvalues --    0.65950   0.66331   0.66921   0.67300   0.67769
  Beta virt. eigenvalues --    0.68265   0.68522   0.69211   0.69758   0.70342
  Beta virt. eigenvalues --    0.70786   0.71100   0.71755   0.71937   0.72458
  Beta virt. eigenvalues --    0.72891   0.72993   0.73483   0.74263   0.74948
  Beta virt. eigenvalues --    0.75419   0.76303   0.76444   0.76640   0.77133
  Beta virt. eigenvalues --    0.77607   0.78752   0.79262   0.80242   0.80872
  Beta virt. eigenvalues --    0.81067   0.81588   0.82257   0.82567   0.83502
  Beta virt. eigenvalues --    0.83977   0.84680   0.85045   0.85179   0.86071
  Beta virt. eigenvalues --    0.86218   0.86389   0.87405   0.87749   0.87990
  Beta virt. eigenvalues --    0.88520   0.89032   0.90585   0.91161   0.91480
  Beta virt. eigenvalues --    0.91942   0.92797   0.93576   0.93958   0.94998
  Beta virt. eigenvalues --    0.95382   0.95617   0.96063   0.96864   0.97728
  Beta virt. eigenvalues --    0.97983   0.98890   0.99541   1.00244   1.00663
  Beta virt. eigenvalues --    1.02032   1.02312   1.02703   1.03341   1.03708
  Beta virt. eigenvalues --    1.04295   1.05463   1.05735   1.06460   1.07054
  Beta virt. eigenvalues --    1.07877   1.09403   1.09964   1.10268   1.11047
  Beta virt. eigenvalues --    1.11403   1.12349   1.13029   1.13720   1.14769
  Beta virt. eigenvalues --    1.15130   1.17642   1.17938   1.18938   1.19514
  Beta virt. eigenvalues --    1.21261   1.21983   1.23197   1.23748   1.24698
  Beta virt. eigenvalues --    1.26272   1.27398   1.28158   1.28554   1.29250
  Beta virt. eigenvalues --    1.29870   1.30543   1.32049   1.32894   1.33781
  Beta virt. eigenvalues --    1.34467   1.35184   1.35896   1.36477   1.37519
  Beta virt. eigenvalues --    1.38291   1.39986   1.40068   1.41294   1.42361
  Beta virt. eigenvalues --    1.43243   1.44107   1.45876   1.46676   1.47501
  Beta virt. eigenvalues --    1.49556   1.49743   1.51090   1.52925   1.53586
  Beta virt. eigenvalues --    1.54206   1.55981   1.57109   1.58282   1.60753
  Beta virt. eigenvalues --    1.61029   1.61688   1.63139   1.64016   1.64675
  Beta virt. eigenvalues --    1.66495   1.67301   1.67715   1.68592   1.69717
  Beta virt. eigenvalues --    1.70114   1.70936   1.72300   1.74056   1.74335
  Beta virt. eigenvalues --    1.75139   1.76102   1.77263   1.77644   1.78220
  Beta virt. eigenvalues --    1.80054   1.81168   1.81637   1.82147   1.82651
  Beta virt. eigenvalues --    1.83106   1.85291   1.86668   1.87568   1.87763
  Beta virt. eigenvalues --    1.88501   1.89166   1.91258   1.92408   1.93160
  Beta virt. eigenvalues --    1.94854   1.95056   1.95336   1.97432   1.97898
  Beta virt. eigenvalues --    1.98482   1.98590   1.99997   2.01123   2.02059
  Beta virt. eigenvalues --    2.02773   2.04334   2.05401   2.06771   2.08253
  Beta virt. eigenvalues --    2.09299   2.10221   2.11050   2.11675   2.12784
  Beta virt. eigenvalues --    2.14386   2.15011   2.16857   2.17063   2.17926
  Beta virt. eigenvalues --    2.18930   2.19347   2.20930   2.21687   2.22319
  Beta virt. eigenvalues --    2.22886   2.23414   2.24440   2.26178   2.26417
  Beta virt. eigenvalues --    2.27171   2.28212   2.28440   2.28982   2.31229
  Beta virt. eigenvalues --    2.32378   2.33049   2.35033   2.35713   2.36724
  Beta virt. eigenvalues --    2.38421   2.39207   2.40589   2.41322   2.42203
  Beta virt. eigenvalues --    2.42975   2.43991   2.44840   2.46292   2.46632
  Beta virt. eigenvalues --    2.48982   2.49425   2.49684   2.51881   2.54812
  Beta virt. eigenvalues --    2.56085   2.56567   2.57009   2.57906   2.58374
  Beta virt. eigenvalues --    2.59629   2.60467   2.62519   2.63980   2.64431
  Beta virt. eigenvalues --    2.66650   2.67904   2.69341   2.70570   2.71463
  Beta virt. eigenvalues --    2.73105   2.74125   2.75395   2.76621   2.76842
  Beta virt. eigenvalues --    2.77973   2.79261   2.80098   2.81321   2.81928
  Beta virt. eigenvalues --    2.83256   2.83851   2.84541   2.85232   2.88127
  Beta virt. eigenvalues --    2.89356   2.89893   2.90980   2.91706   2.92832
  Beta virt. eigenvalues --    2.93765   2.95207   2.98153   2.98999   3.00323
  Beta virt. eigenvalues --    3.03156   3.03897   3.05088   3.07108   3.07951
  Beta virt. eigenvalues --    3.10467   3.11016   3.12988   3.15522   3.16736
  Beta virt. eigenvalues --    3.19789   3.22658   3.23409   3.27359   3.28768
  Beta virt. eigenvalues --    3.30780   3.31618   3.38001   3.39019   3.40893
  Beta virt. eigenvalues --    3.44249   3.47033   3.49078   3.52287   3.54936
  Beta virt. eigenvalues --    3.56480   3.62507   3.66688   3.77807   3.79476
  Beta virt. eigenvalues --    3.81233   3.85383   3.85943   3.87064   3.88305
  Beta virt. eigenvalues --    3.88907   3.90715   3.91783   3.92239   3.95335
  Beta virt. eigenvalues --    3.97728   4.02531   4.11876   4.13460   4.15911
  Beta virt. eigenvalues --    4.19685   4.28534   4.33609   4.45518   4.49976
  Beta virt. eigenvalues --    4.64596   4.73004
          Condensed to atoms (all electrons):
          Atomic-Atomic Spin Densities.
 Mulliken charges and spin densities:
               1          2
     1  N   -0.258421  -0.009661
     2  C    0.018207  -0.009242
     3  C    1.256407  -0.001501
     4  N   -0.981883  -0.005317
     5  C    0.561158   0.020010
     6  C    0.523019  -0.000460
     7  N   -0.697444   0.000664
     8  C    0.550196  -0.000903
     9  N   -0.545121  -0.000015
    10  N   -0.231555  -0.000161
    11  H   -0.036274   0.000011
    12  H   -0.022312   0.000016
    13  H   -0.385178   0.000114
    14  H   -0.313176   0.002242
    15  C    1.212761  -0.004777
    16  C    0.613327   0.018463
    17  C    1.011322  -0.002527
    18  C    0.958189  -0.224853
    19  O   -1.146758   0.007477
    20  H   -0.237474   0.000847
    21  C    0.764526   1.429190
    22  H   -0.256316   0.031692
    23  H   -0.312613  -0.118643
    24  H   -0.305711  -0.123080
    25  O   -0.908968   0.000326
    26  H   -0.227916  -0.012359
    27  H    0.245090  -0.000172
    28  O   -0.866883   0.002662
    29  H   -0.129324  -0.001500
    30  H    0.149127   0.001457
 Sum of Mulliken charges =  -0.00000   1.00000
 Mulliken charges and spin densities with hydrogens summed into heavy atoms:
               1          2
     1  N   -0.258421  -0.009661
     2  C    0.018207  -0.009242
     3  C    1.256407  -0.001501
     4  N   -0.981883  -0.005317
     5  C    0.247982   0.022252
     6  C    0.523019  -0.000460
     7  N   -0.697444   0.000664
     8  C    0.165018  -0.000789
     9  N   -0.545121  -0.000015
    10  N   -0.290141  -0.000134
    15  C    0.975287  -0.003930
    16  C    0.385411   0.006104
    17  C    0.881998  -0.004027
    18  C    0.701872  -0.193161
    19  O   -1.146758   0.007477
    21  C    0.146202   1.187466
    25  O   -0.663879   0.000155
    28  O   -0.717756   0.004119
 Electronic spatial extent (au):  <R**2>=           4581.7370
 Charge=             -0.0000 electrons
 Dipole moment (field-independent basis, Debye):
    X=              0.3247    Y=             -0.7714    Z=              0.1346  Tot=              0.8477
                          Isotropic Fermi Contact Couplings
        Atom                 a.u.       MegaHertz       Gauss      10(-4) cm-1
     1  N(14)              0.00041       0.13315       0.04751       0.04441
     2  C(13)             -0.00015      -0.17056      -0.06086      -0.05689
     3  C(13)              0.00024       0.27275       0.09733       0.09098
     4  N(14)             -0.00039      -0.12710      -0.04535      -0.04240
     5  C(13)              0.00035       0.39266       0.14011       0.13098
     6  C(13)             -0.00013      -0.14648      -0.05227      -0.04886
     7  N(14)              0.00021       0.06834       0.02439       0.02280
     8  C(13)             -0.00017      -0.19643      -0.07009      -0.06552
     9  N(14)              0.00022       0.07033       0.02509       0.02346
    10  N(14)             -0.00003      -0.01045      -0.00373      -0.00349
    11  H(1)               0.00000       0.01345       0.00480       0.00449
    12  H(1)               0.00000       0.01489       0.00531       0.00497
    13  H(1)               0.00002       0.08311       0.02966       0.02772
    14  H(1)              -0.00002      -0.10403      -0.03712      -0.03470
    15  C(13)             -0.00053      -0.59376      -0.21187      -0.19806
    16  C(13)             -0.00086      -0.96622      -0.34477      -0.32230
    17  C(13)              0.01538      17.29073       6.16976       5.76757
    18  C(13)             -0.06184     -69.52174     -24.80709     -23.18996
    19  O(17)              0.02790     -16.91211      -6.03466      -5.64127
    20  H(1)               0.00014       0.60495       0.21586       0.20179
    21  C(13)              0.20873     234.64782      83.72818      78.27009
    22  H(1)               0.02252     100.66315      35.91911      33.57761
    23  H(1)              -0.02514    -112.35377     -40.09062     -37.47718
    24  H(1)              -0.02623    -117.25961     -41.84115     -39.11360
    25  O(17)             -0.00015       0.09053       0.03230       0.03020
    26  H(1)               0.00044       1.96604       0.70153       0.65580
    27  H(1)               0.00002       0.09580       0.03418       0.03195
    28  O(17)             -0.00083       0.50088       0.17873       0.16707
    29  H(1)              -0.00083      -3.70717      -1.32281      -1.23658
    30  H(1)               0.00027       1.18724       0.42364       0.39602
 --------------------------------------------------------
       Center         ----  Spin Dipole Couplings  ----
                      3XX-RR        3YY-RR        3ZZ-RR
 --------------------------------------------------------
     1   Atom        0.002605     -0.003777      0.001172
     2   Atom        0.002053     -0.000682     -0.001371
     3   Atom        0.001369     -0.001400      0.000031
     4   Atom        0.002898     -0.000084     -0.002814
     5   Atom        0.002577     -0.002892      0.000315
     6   Atom        0.001150     -0.000228     -0.000922
     7   Atom        0.000184     -0.000792      0.000608
     8   Atom        0.000916      0.000272     -0.001189
     9   Atom        0.000264     -0.000653      0.000389
    10   Atom        0.000813     -0.000205     -0.000608
    11   Atom        0.000478     -0.000230     -0.000247
    12   Atom        0.000711     -0.000371     -0.000340
    13   Atom        0.000332      0.000047     -0.000380
    14   Atom        0.001709     -0.001429     -0.000280
    15   Atom       -0.000984     -0.002985      0.003968
    16   Atom       -0.006543      0.001738      0.004805
    17   Atom       -0.014195      0.022297     -0.008102
    18   Atom       -0.010253      0.000594      0.009660
    19   Atom       -0.014105     -0.040436      0.054540
    20   Atom       -0.001002     -0.001148      0.002150
    21   Atom        0.710386     -0.185228     -0.525158
    22   Atom       -0.004627     -0.008966      0.013594
    23   Atom        0.009982      0.068974     -0.078955
    24   Atom        0.003173     -0.027202      0.024029
    25   Atom       -0.002502     -0.001112      0.003613
    26   Atom       -0.003191      0.008526     -0.005335
    27   Atom       -0.000353      0.001121     -0.000768
    28   Atom       -0.001143      0.008717     -0.007574
    29   Atom       -0.003100      0.001354      0.001746
    30   Atom       -0.001802      0.004395     -0.002593
 --------------------------------------------------------
                        XY            XZ            YZ
 --------------------------------------------------------
     1   Atom        0.001864     -0.005441     -0.001409
     2   Atom        0.001404     -0.001064     -0.000524
     3   Atom        0.000390     -0.000970     -0.000197
     4   Atom       -0.000453     -0.000294      0.000153
     5   Atom       -0.000907     -0.003562      0.000550
     6   Atom        0.000334     -0.000097     -0.000053
     7   Atom        0.000480     -0.000553     -0.000099
     8   Atom        0.000750     -0.000000     -0.000177
     9   Atom        0.001377     -0.001204     -0.000594
    10   Atom        0.000086     -0.000014     -0.000000
    11   Atom        0.000091     -0.000051     -0.000011
    12   Atom       -0.000050     -0.000111      0.000004
    13   Atom        0.000592     -0.000147     -0.000146
    14   Atom       -0.002238     -0.003148      0.001810
    15   Atom        0.002611     -0.005321     -0.004272
    16   Atom        0.004168      0.002021     -0.005177
    17   Atom       -0.000685      0.003388     -0.011801
    18   Atom       -0.001352     -0.006070      0.006694
    19   Atom       -0.006043     -0.054448      0.017013
    20   Atom        0.001078     -0.001925     -0.001922
    21   Atom        0.654401      0.123152      0.069381
    22   Atom       -0.002540      0.005392     -0.006644
    23   Atom       -0.032420      0.012648     -0.011479
    24   Atom        0.001962     -0.043333      0.065936
    25   Atom        0.000021      0.001595     -0.003891
    26   Atom        0.009177     -0.001755     -0.005288
    27   Atom        0.001563     -0.000813     -0.001337
    28   Atom       -0.002613      0.004253     -0.000322
    29   Atom       -0.001426      0.002381     -0.005181
    30   Atom       -0.002271      0.000287     -0.000688
 --------------------------------------------------------


 ---------------------------------------------------------------------------------
              Anisotropic Spin Dipole Couplings in Principal Axis System
 ---------------------------------------------------------------------------------

       Atom             a.u.   MegaHertz   Gauss  10(-4) cm-1        Axes

              Baa    -0.0043    -0.165    -0.059    -0.055 -0.2986  0.9530 -0.0517
     1 N(14)  Bbb    -0.0036    -0.137    -0.049    -0.046  0.6038  0.2306  0.7630
              Bcc     0.0078     0.303     0.108     0.101  0.7391  0.1967 -0.6443
 
              Baa    -0.0017    -0.229    -0.082    -0.076  0.1790  0.2432  0.9533
     2 C(13)  Bbb    -0.0013    -0.170    -0.061    -0.057 -0.4254  0.8928 -0.1479
              Bcc     0.0030     0.398     0.142     0.133  0.8871  0.3791 -0.2633
 
              Baa    -0.0015    -0.196    -0.070    -0.065 -0.1185  0.9915  0.0538
     3 C(13)  Bbb    -0.0005    -0.064    -0.023    -0.021  0.4637  0.0074  0.8859
              Bcc     0.0019     0.260     0.093     0.087  0.8780  0.1299 -0.4607
 
              Baa    -0.0028    -0.109    -0.039    -0.036  0.0475 -0.0476  0.9977
     4 N(14)  Bbb    -0.0001    -0.006    -0.002    -0.002  0.1508  0.9878  0.0400
              Bcc     0.0030     0.115     0.041     0.038  0.9874 -0.1485 -0.0541
 
              Baa    -0.0030    -0.408    -0.146    -0.136  0.1732  0.9846  0.0224
     5 C(13)  Bbb    -0.0023    -0.306    -0.109    -0.102  0.5726 -0.1191  0.8111
              Bcc     0.0053     0.714     0.255     0.238  0.8013 -0.1277 -0.5844
 
              Baa    -0.0009    -0.125    -0.044    -0.042  0.0371  0.0582  0.9976
     6 C(13)  Bbb    -0.0003    -0.041    -0.014    -0.014 -0.2266  0.9728 -0.0483
              Bcc     0.0012     0.165     0.059     0.055  0.9733  0.2243 -0.0492
 
              Baa    -0.0010    -0.039    -0.014    -0.013 -0.4084  0.9089 -0.0843
     7 N(14)  Bbb    -0.0001    -0.002    -0.001    -0.001  0.6890  0.3675  0.6246
              Bcc     0.0011     0.041     0.015     0.014 -0.5987 -0.1970  0.7763
 
              Baa    -0.0012    -0.163    -0.058    -0.054 -0.0501  0.1427  0.9885
     8 C(13)  Bbb    -0.0002    -0.027    -0.010    -0.009 -0.5517  0.8211 -0.1465
              Bcc     0.0014     0.190     0.068     0.063  0.8325  0.5527 -0.0376
 
              Baa    -0.0017    -0.065    -0.023    -0.022 -0.6315  0.7609 -0.1491
     9 N(14)  Bbb    -0.0005    -0.021    -0.007    -0.007  0.3812  0.4721  0.7949
              Bcc     0.0022     0.086     0.031     0.029  0.6752  0.4451 -0.5882
 
              Baa    -0.0006    -0.023    -0.008    -0.008  0.0097 -0.0020  1.0000
    10 N(14)  Bbb    -0.0002    -0.008    -0.003    -0.003 -0.0839  0.9965  0.0028
              Bcc     0.0008     0.032     0.011     0.011  0.9964  0.0839 -0.0095
 
              Baa    -0.0003    -0.135    -0.048    -0.045  0.0167  0.3849  0.9228
    11 H(1)   Bbb    -0.0002    -0.128    -0.046    -0.043 -0.1429  0.9144 -0.3788
              Bcc     0.0005     0.263     0.094     0.088  0.9896  0.1256 -0.0703
 
              Baa    -0.0004    -0.199    -0.071    -0.066  0.0498  0.9982  0.0338
    12 H(1)   Bbb    -0.0004    -0.187    -0.067    -0.063  0.1015 -0.0387  0.9941
              Bcc     0.0007     0.387     0.138     0.129  0.9936 -0.0460 -0.1033
 
              Baa    -0.0004    -0.235    -0.084    -0.078 -0.3723  0.6506  0.6619
    13 H(1)   Bbb    -0.0004    -0.210    -0.075    -0.070  0.5145 -0.4488  0.7306
              Bcc     0.0008     0.445     0.159     0.148  0.7724  0.6126 -0.1676
 
              Baa    -0.0028    -1.472    -0.525    -0.491 -0.0954  0.7423 -0.6632
    14 H(1)   Bbb    -0.0025    -1.331    -0.475    -0.444  0.6694  0.5410  0.5092
              Bcc     0.0053     2.803     1.000     0.935  0.7368 -0.3953 -0.5485
 
              Baa    -0.0050    -0.674    -0.240    -0.225 -0.0851  0.9185  0.3861
    15 C(13)  Bbb    -0.0044    -0.586    -0.209    -0.195  0.8640 -0.1250  0.4877
              Bcc     0.0094     1.260     0.449     0.420 -0.4962 -0.3751  0.7830
 
              Baa    -0.0094    -1.264    -0.451    -0.422  0.8478 -0.4482 -0.2835
    16 C(13)  Bbb     0.0007     0.093     0.033     0.031  0.5263  0.6452  0.5538
              Bcc     0.0087     1.171     0.418     0.391 -0.0653 -0.6187  0.7829
 
              Baa    -0.0164    -2.197    -0.784    -0.733  0.8165 -0.1552 -0.5560
    17 C(13)  Bbb    -0.0100    -1.348    -0.481    -0.450  0.5757  0.2910  0.7641
              Bcc     0.0264     3.545     1.265     1.182 -0.0432  0.9440 -0.3270
 
              Baa    -0.0120    -1.608    -0.574    -0.536  0.9578 -0.0480  0.2835
    18 C(13)  Bbb    -0.0027    -0.360    -0.128    -0.120  0.1652  0.8987 -0.4062
              Bcc     0.0147     1.968     0.702     0.656 -0.2353  0.4359  0.8687
 
              Baa    -0.0465     3.365     1.201     1.122  0.6390 -0.6243  0.4494
    19 O(17)  Bbb    -0.0406     2.936     1.048     0.979  0.6045  0.7689  0.2085
              Bcc     0.0871    -6.300    -2.248    -2.102 -0.4757  0.1384  0.8686
 
              Baa    -0.0022    -1.155    -0.412    -0.385 -0.5845  0.8054  0.0981
    20 H(1)   Bbb    -0.0018    -0.980    -0.350    -0.327  0.7044  0.4437  0.5540
              Bcc     0.0040     2.135     0.762     0.712 -0.4027 -0.3929  0.8267
 
              Baa    -0.5394   -72.380   -25.827   -24.143  0.1138 -0.3894  0.9140
    21 C(13)  Bbb    -0.5287   -70.944   -25.315   -23.664 -0.4593  0.7952  0.3959
              Bcc     1.0681   143.324    51.141    47.808  0.8810  0.4649  0.0883
 
              Baa    -0.0110    -5.863    -2.092    -1.956  0.1999  0.9560  0.2145
    22 H(1)   Bbb    -0.0060    -3.208    -1.145    -1.070  0.9440 -0.1293 -0.3034
              Bcc     0.0170     9.071     3.237     3.026  0.2624 -0.2632  0.9284
 
              Baa    -0.0811   -43.252   -15.433   -14.427 -0.1200  0.0499  0.9915
    23 H(1)   Bbb    -0.0037    -1.994    -0.712    -0.665  0.9045  0.4172  0.0884
              Bcc     0.0848    45.246    16.145    15.092 -0.4093  0.9074 -0.0952
 
              Baa    -0.0812   -43.341   -15.465   -14.457 -0.3222  0.7369 -0.5943
    24 H(1)   Bbb    -0.0035    -1.854    -0.661    -0.618  0.8540  0.4972  0.1535
              Bcc     0.0847    45.195    16.127    15.075 -0.4086  0.4580  0.7895
 
              Baa    -0.0039     0.279     0.100     0.093 -0.5674  0.6744  0.4725
    25 O(17)  Bbb    -0.0022     0.157     0.056     0.052  0.8076  0.5678  0.1592
              Bcc     0.0060    -0.436    -0.156    -0.145  0.1609 -0.4719  0.8668
 
              Baa    -0.0087    -4.650    -1.659    -1.551  0.7298 -0.5234 -0.4399
    26 H(1)   Bbb    -0.0063    -3.371    -1.203    -1.124  0.5111 -0.0098  0.8595
              Bcc     0.0150     8.021     2.862     2.675  0.4541  0.8521 -0.2603
 
              Baa    -0.0015    -0.779    -0.278    -0.260  0.0164  0.4520  0.8919
    27 H(1)   Bbb    -0.0013    -0.714    -0.255    -0.238  0.8727 -0.4418  0.2079
              Bcc     0.0028     1.493     0.533     0.498  0.4880  0.7749 -0.4017
 
              Baa    -0.0097     0.704     0.251     0.235 -0.4551 -0.0489  0.8891
    28 O(17)  Bbb     0.0003    -0.018    -0.006    -0.006  0.8485  0.2790  0.4497
              Bcc     0.0095    -0.686    -0.245    -0.229 -0.2701  0.9590 -0.0855
 
              Baa    -0.0043    -2.308    -0.824    -0.770  0.7299 -0.3515 -0.5862
    29 H(1)   Bbb    -0.0031    -1.657    -0.591    -0.553  0.6364  0.6625  0.3952
              Bcc     0.0074     3.965     1.415     1.323  0.2495 -0.6615  0.7072
 
              Baa    -0.0027    -1.434    -0.512    -0.478 -0.3877 -0.0348  0.9211
    30 H(1)   Bbb    -0.0025    -1.346    -0.480    -0.449  0.8680  0.3226  0.3776
              Bcc     0.0052     2.779     0.992     0.927 -0.3103  0.9459 -0.0948
 

 ---------------------------------------------------------------------------------

 NROrb=    522 NOA=    66 NOB=    65 NVA=   456 NVB=   457

 **** Warning!!: The largest alpha MO coefficient is  0.10691511D+03


 **** Warning!!: The largest beta MO coefficient is  0.10906773D+03

    12 initial guesses have been made.
 Iteration     1 Dimension    12 NMult     0 NNew     12
 Iteration     2 Dimension    24 NMult    12 NNew     12
 Iteration     3 Dimension    27 NMult    24 NNew      3
 Iteration     4 Dimension    30 NMult    27 NNew      3
 Iteration     5 Dimension    33 NMult    30 NNew      3
 Iteration     6 Dimension    36 NMult    33 NNew      3
 Iteration     7 Dimension    39 NMult    36 NNew      3
 Iteration     8 Dimension    42 NMult    39 NNew      3
 ***********************************************************************
 Stability analysis using <AA,BB:AA,BB> singles matrix:
 ***********************************************************************
 Ground to excited state transition densities written to RWF  633

 Eigenvectors of the stability matrix:
 
 Excited state symmetry could not be determined.
 Eigenvector   1:  3.471-?Sym  Eigenvalue= 0.0201713  <S**2>=2.762
     55A ->104A        0.10801
     64A -> 86A        0.14372
     66A -> 78A        0.10070
     66A -> 79A        0.22857
     66A -> 80A        0.27152
     66A -> 81A        0.14533
     66A -> 84A       -0.14787
     66A -> 85A       -0.16905
     55B ->103B       -0.10441
     64B -> 85B       -0.16667
     65B -> 77B       -0.21700
     65B -> 78B       -0.10094
     65B -> 80B        0.29865
     65B -> 81B       -0.12497
     65B -> 84B       -0.21054
     65B ->110B        0.10506
 The wavefunction is stable under the perturbations considered.
 The wavefunction is already stable.

 **********************************************************************

            Population analysis using the SCF Density.

 **********************************************************************

 Alpha  occ. eigenvalues --  -20.59618 -20.58485 -20.56855 -15.63641 -15.59903
 Alpha  occ. eigenvalues --  -15.57785 -15.57444 -15.56539 -11.35119 -11.34972
 Alpha  occ. eigenvalues --  -11.32771 -11.32541 -11.32495 -11.30748 -11.30107
 Alpha  occ. eigenvalues --  -11.29694 -11.25997 -11.24652  -1.43266  -1.39011
 Alpha  occ. eigenvalues --   -1.37683  -1.36914  -1.31572  -1.26212  -1.20504
 Alpha  occ. eigenvalues --   -1.16860  -1.07631  -1.04689  -1.03777  -0.95212
 Alpha  occ. eigenvalues --   -0.90453  -0.88892  -0.85832  -0.82209  -0.79538
 Alpha  occ. eigenvalues --   -0.77216  -0.75397  -0.74182  -0.71457  -0.69893
 Alpha  occ. eigenvalues --   -0.68963  -0.67277  -0.66110  -0.65130  -0.64343
 Alpha  occ. eigenvalues --   -0.63165  -0.62044  -0.61045  -0.59284  -0.58502
 Alpha  occ. eigenvalues --   -0.57744  -0.55615  -0.54835  -0.53888  -0.50991
 Alpha  occ. eigenvalues --   -0.50581  -0.49424  -0.46772  -0.45723  -0.45668
 Alpha  occ. eigenvalues --   -0.44465  -0.42032  -0.41049  -0.37914  -0.36874
 Alpha  occ. eigenvalues --   -0.31556
 Alpha virt. eigenvalues --    0.03253   0.03644   0.04019   0.04410   0.04785
 Alpha virt. eigenvalues --    0.05254   0.06071   0.06659   0.06795   0.07292
 Alpha virt. eigenvalues --    0.07855   0.08849   0.09214   0.10060   0.11266
 Alpha virt. eigenvalues --    0.11614   0.11887   0.12369   0.12616   0.12910
 Alpha virt. eigenvalues --    0.13445   0.13695   0.13910   0.14268   0.14791
 Alpha virt. eigenvalues --    0.15194   0.15295   0.15378   0.15820   0.16022
 Alpha virt. eigenvalues --    0.16271   0.16488   0.16855   0.17531   0.17698
 Alpha virt. eigenvalues --    0.18248   0.18521   0.18546   0.19338   0.19944
 Alpha virt. eigenvalues --    0.20277   0.20894   0.21315   0.22080   0.22174
 Alpha virt. eigenvalues --    0.22468   0.23116   0.23976   0.24461   0.24797
 Alpha virt. eigenvalues --    0.24874   0.25839   0.26010   0.26228   0.26694
 Alpha virt. eigenvalues --    0.27747   0.27865   0.28393   0.28848   0.29639
 Alpha virt. eigenvalues --    0.30107   0.30706   0.30875   0.31214   0.31420
 Alpha virt. eigenvalues --    0.31561   0.31896   0.32281   0.32642   0.33042
 Alpha virt. eigenvalues --    0.33189   0.34142   0.34569   0.34984   0.35320
 Alpha virt. eigenvalues --    0.35751   0.36174   0.36283   0.36938   0.37284
 Alpha virt. eigenvalues --    0.37454   0.37762   0.38364   0.38990   0.39398
 Alpha virt. eigenvalues --    0.39771   0.40034   0.40347   0.40774   0.41135
 Alpha virt. eigenvalues --    0.41901   0.42046   0.42827   0.43584   0.43714
 Alpha virt. eigenvalues --    0.43991   0.44365   0.45177   0.45445   0.45685
 Alpha virt. eigenvalues --    0.46101   0.47303   0.47367   0.47597   0.47831
 Alpha virt. eigenvalues --    0.48350   0.48879   0.49440   0.49774   0.50364
 Alpha virt. eigenvalues --    0.50734   0.51837   0.52008   0.52633   0.53333
 Alpha virt. eigenvalues --    0.53717   0.54073   0.54470   0.55068   0.55572
 Alpha virt. eigenvalues --    0.55615   0.56298   0.56448   0.57527   0.58314
 Alpha virt. eigenvalues --    0.58644   0.58771   0.59465   0.59731   0.61200
 Alpha virt. eigenvalues --    0.61510   0.61861   0.62364   0.62696   0.63408
 Alpha virt. eigenvalues --    0.63606   0.64651   0.65035   0.65361   0.65679
 Alpha virt. eigenvalues --    0.65897   0.66699   0.67196   0.67452   0.68144
 Alpha virt. eigenvalues --    0.68363   0.68743   0.69486   0.70218   0.70524
 Alpha virt. eigenvalues --    0.70841   0.71479   0.71842   0.72275   0.72369
 Alpha virt. eigenvalues --    0.72735   0.73233   0.74146   0.74514   0.75208
 Alpha virt. eigenvalues --    0.76130   0.76156   0.76432   0.77033   0.77256
 Alpha virt. eigenvalues --    0.78473   0.79097   0.79957   0.80368   0.80798
 Alpha virt. eigenvalues --    0.81361   0.82173   0.82420   0.83345   0.83495
 Alpha virt. eigenvalues --    0.84438   0.84833   0.85064   0.85548   0.85990
 Alpha virt. eigenvalues --    0.86237   0.86875   0.87693   0.87807   0.88432
 Alpha virt. eigenvalues --    0.88709   0.90484   0.91064   0.91262   0.91870
 Alpha virt. eigenvalues --    0.92554   0.93289   0.93760   0.94860   0.95153
 Alpha virt. eigenvalues --    0.95464   0.95993   0.96829   0.97592   0.97869
 Alpha virt. eigenvalues --    0.98836   0.99478   1.00118   1.00573   1.01624
 Alpha virt. eigenvalues --    1.02155   1.02591   1.03285   1.03685   1.04128
 Alpha virt. eigenvalues --    1.05288   1.05621   1.06435   1.07002   1.07573
 Alpha virt. eigenvalues --    1.09244   1.09894   1.10136   1.10894   1.11292
 Alpha virt. eigenvalues --    1.12290   1.12985   1.13546   1.14570   1.15070
 Alpha virt. eigenvalues --    1.17252   1.17868   1.18378   1.19297   1.20751
 Alpha virt. eigenvalues --    1.21566   1.22096   1.23238   1.24576   1.25952
 Alpha virt. eigenvalues --    1.27322   1.27962   1.28296   1.28957   1.29754
 Alpha virt. eigenvalues --    1.30484   1.31934   1.32536   1.33679   1.34120
 Alpha virt. eigenvalues --    1.34826   1.35766   1.36417   1.37435   1.37988
 Alpha virt. eigenvalues --    1.39841   1.39964   1.41174   1.42265   1.43090
 Alpha virt. eigenvalues --    1.43873   1.45824   1.46300   1.47230   1.49369
 Alpha virt. eigenvalues --    1.49584   1.50804   1.52867   1.53376   1.54004
 Alpha virt. eigenvalues --    1.55745   1.57045   1.57958   1.60560   1.60950
 Alpha virt. eigenvalues --    1.61612   1.63025   1.63735   1.64449   1.65922
 Alpha virt. eigenvalues --    1.67020   1.67237   1.68327   1.69572   1.70021
 Alpha virt. eigenvalues --    1.70796   1.72076   1.73910   1.73968   1.75085
 Alpha virt. eigenvalues --    1.75856   1.76821   1.77127   1.78047   1.79388
 Alpha virt. eigenvalues --    1.81083   1.81372   1.82008   1.82503   1.83048
 Alpha virt. eigenvalues --    1.84522   1.86199   1.87121   1.87196   1.87597
 Alpha virt. eigenvalues --    1.88879   1.90893   1.92236   1.92671   1.94638
 Alpha virt. eigenvalues --    1.94798   1.95119   1.96296   1.97322   1.98289
 Alpha virt. eigenvalues --    1.98409   1.99826   2.01033   2.01630   2.02409
 Alpha virt. eigenvalues --    2.04087   2.05229   2.06599   2.07989   2.09097
 Alpha virt. eigenvalues --    2.09952   2.10901   2.11481   2.12747   2.14242
 Alpha virt. eigenvalues --    2.14933   2.16586   2.16940   2.17822   2.18727
 Alpha virt. eigenvalues --    2.19106   2.20832   2.21555   2.22251   2.22734
 Alpha virt. eigenvalues --    2.23257   2.24201   2.25341   2.26355   2.26940
 Alpha virt. eigenvalues --    2.27965   2.28387   2.28963   2.31032   2.32333
 Alpha virt. eigenvalues --    2.32835   2.34947   2.35660   2.36578   2.38097
 Alpha virt. eigenvalues --    2.39125   2.40343   2.41249   2.41940   2.42713
 Alpha virt. eigenvalues --    2.43732   2.44670   2.46152   2.46321   2.48934
 Alpha virt. eigenvalues --    2.49314   2.49394   2.51789   2.54368   2.55984
 Alpha virt. eigenvalues --    2.56315   2.56768   2.57629   2.58275   2.59526
 Alpha virt. eigenvalues --    2.60137   2.62297   2.63821   2.64348   2.66392
 Alpha virt. eigenvalues --    2.67850   2.69291   2.70439   2.71436   2.72718
 Alpha virt. eigenvalues --    2.74010   2.75332   2.76539   2.76755   2.77893
 Alpha virt. eigenvalues --    2.79234   2.80010   2.81165   2.81893   2.83138
 Alpha virt. eigenvalues --    2.83799   2.84473   2.85207   2.88045   2.89249
 Alpha virt. eigenvalues --    2.89877   2.90920   2.91622   2.92789   2.93704
 Alpha virt. eigenvalues --    2.95176   2.97999   2.98871   3.00264   3.03106
 Alpha virt. eigenvalues --    3.03660   3.05070   3.07085   3.07938   3.10447
 Alpha virt. eigenvalues --    3.10889   3.12941   3.15464   3.16699   3.19672
 Alpha virt. eigenvalues --    3.22598   3.22930   3.27347   3.28371   3.30762
 Alpha virt. eigenvalues --    3.31554   3.37988   3.38996   3.40885   3.44120
 Alpha virt. eigenvalues --    3.47011   3.49068   3.52249   3.54907   3.56469
 Alpha virt. eigenvalues --    3.62475   3.66611   3.77699   3.79469   3.81202
 Alpha virt. eigenvalues --    3.85376   3.85930   3.87036   3.88278   3.88864
 Alpha virt. eigenvalues --    3.90657   3.91758   3.92226   3.95310   3.97652
 Alpha virt. eigenvalues --    4.02455   4.11833   4.13321   4.15823   4.19636
 Alpha virt. eigenvalues --    4.28446   4.33535   4.45507   4.49955   4.64590
 Alpha virt. eigenvalues --    4.72978
  Beta  occ. eigenvalues --  -20.59510 -20.58488 -20.56853 -15.63637 -15.59904
  Beta  occ. eigenvalues --  -15.57782 -15.57448 -15.56537 -11.35121 -11.34975
  Beta  occ. eigenvalues --  -11.32773 -11.32543 -11.32492 -11.31078 -11.30036
  Beta  occ. eigenvalues --  -11.29686 -11.25995 -11.22221  -1.43052  -1.38989
  Beta  occ. eigenvalues --   -1.37625  -1.36905  -1.31565  -1.26212  -1.20486
  Beta  occ. eigenvalues --   -1.16850  -1.06443  -1.04661  -1.02701  -0.91818
  Beta  occ. eigenvalues --   -0.90332  -0.88831  -0.84676  -0.81549  -0.78505
  Beta  occ. eigenvalues --   -0.77100  -0.75106  -0.74079  -0.71258  -0.69810
  Beta  occ. eigenvalues --   -0.68856  -0.66980  -0.65988  -0.64753  -0.64012
  Beta  occ. eigenvalues --   -0.62990  -0.61944  -0.60894  -0.59006  -0.57569
  Beta  occ. eigenvalues --   -0.57276  -0.55230  -0.54335  -0.53728  -0.50990
  Beta  occ. eigenvalues --   -0.50462  -0.49051  -0.46423  -0.45520  -0.45251
  Beta  occ. eigenvalues --   -0.44385  -0.42001  -0.41008  -0.37582  -0.31551
  Beta virt. eigenvalues --    0.03266   0.03663   0.04023   0.04443   0.04794
  Beta virt. eigenvalues --    0.05235   0.06092   0.06575   0.06752   0.06801
  Beta virt. eigenvalues --    0.07866   0.08713   0.08951   0.09659   0.10326
  Beta virt. eigenvalues --    0.11310   0.11757   0.12246   0.12427   0.12886
  Beta virt. eigenvalues --    0.13213   0.13776   0.13902   0.13972   0.14298
  Beta virt. eigenvalues --    0.14816   0.15240   0.15336   0.15812   0.15916
  Beta virt. eigenvalues --    0.16069   0.16550   0.16601   0.16948   0.17578
  Beta virt. eigenvalues --    0.17715   0.18267   0.18590   0.19238   0.19699
  Beta virt. eigenvalues --    0.20057   0.20398   0.21036   0.21429   0.22178
  Beta virt. eigenvalues --    0.22321   0.22528   0.23169   0.24136   0.24532
  Beta virt. eigenvalues --    0.24837   0.25161   0.25981   0.26149   0.26495
  Beta virt. eigenvalues --    0.26719   0.27906   0.28021   0.28534   0.28974
  Beta virt. eigenvalues --    0.29920   0.30274   0.30971   0.31136   0.31361
  Beta virt. eigenvalues --    0.31509   0.31629   0.32013   0.32348   0.32818
  Beta virt. eigenvalues --    0.33068   0.33289   0.34452   0.34739   0.35231
  Beta virt. eigenvalues --    0.35507   0.35884   0.36262   0.36525   0.37060
  Beta virt. eigenvalues --    0.37506   0.37598   0.38234   0.38592   0.39250
  Beta virt. eigenvalues --    0.39505   0.39828   0.40290   0.40498   0.40973
  Beta virt. eigenvalues --    0.41569   0.42075   0.42573   0.42932   0.43731
  Beta virt. eigenvalues --    0.43898   0.44162   0.44510   0.45340   0.45744
  Beta virt. eigenvalues --    0.46127   0.46204   0.47454   0.47480   0.47861
  Beta virt. eigenvalues --    0.48181   0.48579   0.49111   0.49657   0.50091
  Beta virt. eigenvalues --    0.50787   0.51008   0.52015   0.52091   0.52857
  Beta virt. eigenvalues --    0.53449   0.53965   0.54338   0.54622   0.55221
  Beta virt. eigenvalues --    0.55787   0.55984   0.56393   0.56520   0.57910
  Beta virt. eigenvalues --    0.58691   0.58973   0.59225   0.59577   0.60019
  Beta virt. eigenvalues --    0.61402   0.61676   0.62016   0.62560   0.63066
  Beta virt. eigenvalues --    0.63536   0.64025   0.64766   0.65226   0.65691
  Beta virt. eigenvalues --    0.65950   0.66331   0.66921   0.67300   0.67769
  Beta virt. eigenvalues --    0.68265   0.68522   0.69211   0.69758   0.70342
  Beta virt. eigenvalues --    0.70786   0.71100   0.71755   0.71937   0.72458
  Beta virt. eigenvalues --    0.72891   0.72993   0.73483   0.74263   0.74948
  Beta virt. eigenvalues --    0.75419   0.76303   0.76444   0.76640   0.77133
  Beta virt. eigenvalues --    0.77607   0.78752   0.79262   0.80242   0.80872
  Beta virt. eigenvalues --    0.81067   0.81588   0.82257   0.82567   0.83502
  Beta virt. eigenvalues --    0.83977   0.84680   0.85045   0.85179   0.86071
  Beta virt. eigenvalues --    0.86218   0.86389   0.87405   0.87749   0.87990
  Beta virt. eigenvalues --    0.88520   0.89032   0.90585   0.91161   0.91480
  Beta virt. eigenvalues --    0.91942   0.92797   0.93576   0.93958   0.94998
  Beta virt. eigenvalues --    0.95382   0.95617   0.96063   0.96864   0.97728
  Beta virt. eigenvalues --    0.97983   0.98890   0.99541   1.00244   1.00663
  Beta virt. eigenvalues --    1.02032   1.02312   1.02703   1.03341   1.03708
  Beta virt. eigenvalues --    1.04295   1.05463   1.05735   1.06460   1.07054
  Beta virt. eigenvalues --    1.07877   1.09403   1.09964   1.10268   1.11047
  Beta virt. eigenvalues --    1.11403   1.12349   1.13029   1.13720   1.14769
  Beta virt. eigenvalues --    1.15130   1.17642   1.17938   1.18938   1.19514
  Beta virt. eigenvalues --    1.21261   1.21983   1.23197   1.23748   1.24698
  Beta virt. eigenvalues --    1.26272   1.27398   1.28158   1.28554   1.29250
  Beta virt. eigenvalues --    1.29870   1.30543   1.32049   1.32894   1.33781
  Beta virt. eigenvalues --    1.34467   1.35184   1.35896   1.36477   1.37519
  Beta virt. eigenvalues --    1.38291   1.39986   1.40068   1.41294   1.42361
  Beta virt. eigenvalues --    1.43243   1.44107   1.45876   1.46676   1.47501
  Beta virt. eigenvalues --    1.49556   1.49743   1.51090   1.52925   1.53586
  Beta virt. eigenvalues --    1.54206   1.55981   1.57109   1.58282   1.60753
  Beta virt. eigenvalues --    1.61029   1.61688   1.63139   1.64016   1.64675
  Beta virt. eigenvalues --    1.66495   1.67301   1.67715   1.68592   1.69717
  Beta virt. eigenvalues --    1.70114   1.70936   1.72300   1.74056   1.74335
  Beta virt. eigenvalues --    1.75139   1.76102   1.77263   1.77644   1.78220
  Beta virt. eigenvalues --    1.80054   1.81168   1.81637   1.82147   1.82651
  Beta virt. eigenvalues --    1.83106   1.85291   1.86668   1.87568   1.87763
  Beta virt. eigenvalues --    1.88501   1.89166   1.91258   1.92408   1.93160
  Beta virt. eigenvalues --    1.94854   1.95056   1.95336   1.97432   1.97898
  Beta virt. eigenvalues --    1.98482   1.98590   1.99997   2.01123   2.02059
  Beta virt. eigenvalues --    2.02773   2.04334   2.05401   2.06771   2.08253
  Beta virt. eigenvalues --    2.09299   2.10221   2.11050   2.11675   2.12784
  Beta virt. eigenvalues --    2.14386   2.15011   2.16857   2.17063   2.17926
  Beta virt. eigenvalues --    2.18930   2.19347   2.20930   2.21687   2.22319
  Beta virt. eigenvalues --    2.22886   2.23414   2.24440   2.26178   2.26417
  Beta virt. eigenvalues --    2.27171   2.28212   2.28440   2.28982   2.31229
  Beta virt. eigenvalues --    2.32378   2.33049   2.35033   2.35713   2.36724
  Beta virt. eigenvalues --    2.38421   2.39207   2.40589   2.41322   2.42203
  Beta virt. eigenvalues --    2.42975   2.43991   2.44840   2.46292   2.46632
  Beta virt. eigenvalues --    2.48982   2.49425   2.49684   2.51881   2.54812
  Beta virt. eigenvalues --    2.56085   2.56567   2.57009   2.57906   2.58374
  Beta virt. eigenvalues --    2.59629   2.60467   2.62519   2.63980   2.64431
  Beta virt. eigenvalues --    2.66650   2.67904   2.69341   2.70570   2.71463
  Beta virt. eigenvalues --    2.73105   2.74125   2.75395   2.76621   2.76842
  Beta virt. eigenvalues --    2.77973   2.79261   2.80098   2.81321   2.81928
  Beta virt. eigenvalues --    2.83256   2.83851   2.84541   2.85232   2.88127
  Beta virt. eigenvalues --    2.89356   2.89893   2.90980   2.91706   2.92832
  Beta virt. eigenvalues --    2.93765   2.95207   2.98153   2.98999   3.00323
  Beta virt. eigenvalues --    3.03156   3.03897   3.05088   3.07108   3.07951
  Beta virt. eigenvalues --    3.10467   3.11016   3.12988   3.15522   3.16736
  Beta virt. eigenvalues --    3.19789   3.22658   3.23409   3.27359   3.28768
  Beta virt. eigenvalues --    3.30780   3.31618   3.38001   3.39019   3.40893
  Beta virt. eigenvalues --    3.44249   3.47033   3.49078   3.52287   3.54936
  Beta virt. eigenvalues --    3.56480   3.62507   3.66688   3.77807   3.79476
  Beta virt. eigenvalues --    3.81233   3.85383   3.85943   3.87064   3.88305
  Beta virt. eigenvalues --    3.88907   3.90715   3.91783   3.92239   3.95335
  Beta virt. eigenvalues --    3.97728   4.02531   4.11876   4.13460   4.15911
  Beta virt. eigenvalues --    4.19685   4.28534   4.33609   4.45518   4.49976
  Beta virt. eigenvalues --    4.64596   4.73004
          Condensed to atoms (all electrons):
          Atomic-Atomic Spin Densities.
 Mulliken charges and spin densities:
               1          2
     1  N   -0.258421  -0.009661
     2  C    0.018207  -0.009242
     3  C    1.256407  -0.001501
     4  N   -0.981883  -0.005317
     5  C    0.561158   0.020010
     6  C    0.523019  -0.000460
     7  N   -0.697444   0.000664
     8  C    0.550196  -0.000903
     9  N   -0.545121  -0.000015
    10  N   -0.231555  -0.000161
    11  H   -0.036274   0.000011
    12  H   -0.022312   0.000016
    13  H   -0.385178   0.000114
    14  H   -0.313176   0.002242
    15  C    1.212761  -0.004777
    16  C    0.613327   0.018463
    17  C    1.011322  -0.002527
    18  C    0.958189  -0.224853
    19  O   -1.146758   0.007477
    20  H   -0.237474   0.000847
    21  C    0.764526   1.429190
    22  H   -0.256316   0.031692
    23  H   -0.312613  -0.118643
    24  H   -0.305711  -0.123080
    25  O   -0.908968   0.000326
    26  H   -0.227916  -0.012359
    27  H    0.245090  -0.000172
    28  O   -0.866883   0.002662
    29  H   -0.129324  -0.001500
    30  H    0.149127   0.001457
 Sum of Mulliken charges =  -0.00000   1.00000
 Mulliken charges and spin densities with hydrogens summed into heavy atoms:
               1          2
     1  N   -0.258421  -0.009661
     2  C    0.018207  -0.009242
     3  C    1.256407  -0.001501
     4  N   -0.981883  -0.005317
     5  C    0.247982   0.022252
     6  C    0.523019  -0.000460
     7  N   -0.697444   0.000664
     8  C    0.165018  -0.000789
     9  N   -0.545121  -0.000015
    10  N   -0.290141  -0.000134
    15  C    0.975287  -0.003930
    16  C    0.385411   0.006104
    17  C    0.881998  -0.004027
    18  C    0.701872  -0.193161
    19  O   -1.146758   0.007477
    21  C    0.146202   1.187466
    25  O   -0.663879   0.000155
    28  O   -0.717756   0.004119
 Electronic spatial extent (au):  <R**2>=           4581.7370
 Charge=             -0.0000 electrons
 Dipole moment (field-independent basis, Debye):
    X=              0.3247    Y=             -0.7714    Z=              0.1346  Tot=              0.8477
                          Isotropic Fermi Contact Couplings
        Atom                 a.u.       MegaHertz       Gauss      10(-4) cm-1
     1  N(14)              0.00041       0.13315       0.04751       0.04441
     2  C(13)             -0.00015      -0.17056      -0.06086      -0.05689
     3  C(13)              0.00024       0.27275       0.09733       0.09098
     4  N(14)             -0.00039      -0.12710      -0.04535      -0.04240
     5  C(13)              0.00035       0.39266       0.14011       0.13098
     6  C(13)             -0.00013      -0.14648      -0.05227      -0.04886
     7  N(14)              0.00021       0.06834       0.02439       0.02280
     8  C(13)             -0.00017      -0.19643      -0.07009      -0.06552
     9  N(14)              0.00022       0.07033       0.02509       0.02346
    10  N(14)             -0.00003      -0.01045      -0.00373      -0.00349
    11  H(1)               0.00000       0.01345       0.00480       0.00449
    12  H(1)               0.00000       0.01489       0.00531       0.00497
    13  H(1)               0.00002       0.08311       0.02966       0.02772
    14  H(1)              -0.00002      -0.10403      -0.03712      -0.03470
    15  C(13)             -0.00053      -0.59376      -0.21187      -0.19806
    16  C(13)             -0.00086      -0.96622      -0.34477      -0.32230
    17  C(13)              0.01538      17.29073       6.16976       5.76757
    18  C(13)             -0.06184     -69.52174     -24.80709     -23.18996
    19  O(17)              0.02790     -16.91211      -6.03466      -5.64127
    20  H(1)               0.00014       0.60495       0.21586       0.20179
    21  C(13)              0.20873     234.64782      83.72818      78.27009
    22  H(1)               0.02252     100.66315      35.91911      33.57761
    23  H(1)              -0.02514    -112.35377     -40.09062     -37.47718
    24  H(1)              -0.02623    -117.25961     -41.84115     -39.11360
    25  O(17)             -0.00015       0.09053       0.03230       0.03020
    26  H(1)               0.00044       1.96604       0.70153       0.65580
    27  H(1)               0.00002       0.09580       0.03418       0.03195
    28  O(17)             -0.00083       0.50088       0.17873       0.16707
    29  H(1)              -0.00083      -3.70717      -1.32281      -1.23658
    30  H(1)               0.00027       1.18724       0.42364       0.39602
 --------------------------------------------------------
       Center         ----  Spin Dipole Couplings  ----
                      3XX-RR        3YY-RR        3ZZ-RR
 --------------------------------------------------------
     1   Atom        0.002605     -0.003777      0.001172
     2   Atom        0.002053     -0.000682     -0.001371
     3   Atom        0.001369     -0.001400      0.000031
     4   Atom        0.002898     -0.000084     -0.002814
     5   Atom        0.002577     -0.002892      0.000315
     6   Atom        0.001150     -0.000228     -0.000922
     7   Atom        0.000184     -0.000792      0.000608
     8   Atom        0.000916      0.000272     -0.001189
     9   Atom        0.000264     -0.000653      0.000389
    10   Atom        0.000813     -0.000205     -0.000608
    11   Atom        0.000478     -0.000230     -0.000247
    12   Atom        0.000711     -0.000371     -0.000340
    13   Atom        0.000332      0.000047     -0.000380
    14   Atom        0.001709     -0.001429     -0.000280
    15   Atom       -0.000984     -0.002985      0.003968
    16   Atom       -0.006543      0.001738      0.004805
    17   Atom       -0.014195      0.022297     -0.008102
    18   Atom       -0.010253      0.000594      0.009660
    19   Atom       -0.014105     -0.040436      0.054540
    20   Atom       -0.001002     -0.001148      0.002150
    21   Atom        0.710386     -0.185228     -0.525158
    22   Atom       -0.004627     -0.008966      0.013594
    23   Atom        0.009982      0.068974     -0.078955
    24   Atom        0.003173     -0.027202      0.024029
    25   Atom       -0.002502     -0.001112      0.003613
    26   Atom       -0.003191      0.008526     -0.005335
    27   Atom       -0.000353      0.001121     -0.000768
    28   Atom       -0.001143      0.008717     -0.007574
    29   Atom       -0.003100      0.001354      0.001746
    30   Atom       -0.001802      0.004395     -0.002593
 --------------------------------------------------------
                        XY            XZ            YZ
 --------------------------------------------------------
     1   Atom        0.001864     -0.005441     -0.001409
     2   Atom        0.001404     -0.001064     -0.000524
     3   Atom        0.000390     -0.000970     -0.000197
     4   Atom       -0.000453     -0.000294      0.000153
     5   Atom       -0.000907     -0.003562      0.000550
     6   Atom        0.000334     -0.000097     -0.000053
     7   Atom        0.000480     -0.000553     -0.000099
     8   Atom        0.000750     -0.000000     -0.000177
     9   Atom        0.001377     -0.001204     -0.000594
    10   Atom        0.000086     -0.000014     -0.000000
    11   Atom        0.000091     -0.000051     -0.000011
    12   Atom       -0.000050     -0.000111      0.000004
    13   Atom        0.000592     -0.000147     -0.000146
    14   Atom       -0.002238     -0.003148      0.001810
    15   Atom        0.002611     -0.005321     -0.004272
    16   Atom        0.004168      0.002021     -0.005177
    17   Atom       -0.000685      0.003388     -0.011801
    18   Atom       -0.001352     -0.006070      0.006694
    19   Atom       -0.006043     -0.054448      0.017013
    20   Atom        0.001078     -0.001925     -0.001922
    21   Atom        0.654401      0.123152      0.069381
    22   Atom       -0.002540      0.005392     -0.006644
    23   Atom       -0.032420      0.012648     -0.011479
    24   Atom        0.001962     -0.043333      0.065936
    25   Atom        0.000021      0.001595     -0.003891
    26   Atom        0.009177     -0.001755     -0.005288
    27   Atom        0.001563     -0.000813     -0.001337
    28   Atom       -0.002613      0.004253     -0.000322
    29   Atom       -0.001426      0.002381     -0.005181
    30   Atom       -0.002271      0.000287     -0.000688
 --------------------------------------------------------


 ---------------------------------------------------------------------------------
              Anisotropic Spin Dipole Couplings in Principal Axis System
 ---------------------------------------------------------------------------------

       Atom             a.u.   MegaHertz   Gauss  10(-4) cm-1        Axes

              Baa    -0.0043    -0.165    -0.059    -0.055 -0.2986  0.9530 -0.0517
     1 N(14)  Bbb    -0.0036    -0.137    -0.049    -0.046  0.6038  0.2306  0.7630
              Bcc     0.0078     0.303     0.108     0.101  0.7391  0.1967 -0.6443
 
              Baa    -0.0017    -0.229    -0.082    -0.076  0.1790  0.2432  0.9533
     2 C(13)  Bbb    -0.0013    -0.170    -0.061    -0.057 -0.4254  0.8928 -0.1479
              Bcc     0.0030     0.398     0.142     0.133  0.8871  0.3791 -0.2633
 
              Baa    -0.0015    -0.196    -0.070    -0.065 -0.1185  0.9915  0.0538
     3 C(13)  Bbb    -0.0005    -0.064    -0.023    -0.021  0.4637  0.0074  0.8859
              Bcc     0.0019     0.260     0.093     0.087  0.8780  0.1299 -0.4607
 
              Baa    -0.0028    -0.109    -0.039    -0.036  0.0475 -0.0476  0.9977
     4 N(14)  Bbb    -0.0001    -0.006    -0.002    -0.002  0.1508  0.9878  0.0400
              Bcc     0.0030     0.115     0.041     0.038  0.9874 -0.1485 -0.0541
 
              Baa    -0.0030    -0.408    -0.146    -0.136  0.1732  0.9846  0.0224
     5 C(13)  Bbb    -0.0023    -0.306    -0.109    -0.102  0.5726 -0.1191  0.8111
              Bcc     0.0053     0.714     0.255     0.238  0.8013 -0.1277 -0.5844
 
              Baa    -0.0009    -0.125    -0.044    -0.042  0.0371  0.0582  0.9976
     6 C(13)  Bbb    -0.0003    -0.041    -0.014    -0.014 -0.2266  0.9728 -0.0483
              Bcc     0.0012     0.165     0.059     0.055  0.9733  0.2243 -0.0492
 
              Baa    -0.0010    -0.039    -0.014    -0.013 -0.4084  0.9089 -0.0843
     7 N(14)  Bbb    -0.0001    -0.002    -0.001    -0.001  0.6890  0.3675  0.6246
              Bcc     0.0011     0.041     0.015     0.014 -0.5987 -0.1970  0.7763
 
              Baa    -0.0012    -0.163    -0.058    -0.054 -0.0501  0.1427  0.9885
     8 C(13)  Bbb    -0.0002    -0.027    -0.010    -0.009 -0.5517  0.8211 -0.1465
              Bcc     0.0014     0.190     0.068     0.063  0.8325  0.5527 -0.0376
 
              Baa    -0.0017    -0.065    -0.023    -0.022 -0.6315  0.7609 -0.1491
     9 N(14)  Bbb    -0.0005    -0.021    -0.007    -0.007  0.3812  0.4721  0.7949
              Bcc     0.0022     0.086     0.031     0.029  0.6752  0.4451 -0.5882
 
              Baa    -0.0006    -0.023    -0.008    -0.008  0.0097 -0.0020  1.0000
    10 N(14)  Bbb    -0.0002    -0.008    -0.003    -0.003 -0.0839  0.9965  0.0028
              Bcc     0.0008     0.032     0.011     0.011  0.9964  0.0839 -0.0095
 
              Baa    -0.0003    -0.135    -0.048    -0.045  0.0167  0.3849  0.9228
    11 H(1)   Bbb    -0.0002    -0.128    -0.046    -0.043 -0.1429  0.9144 -0.3788
              Bcc     0.0005     0.263     0.094     0.088  0.9896  0.1256 -0.0703
 
              Baa    -0.0004    -0.199    -0.071    -0.066  0.0498  0.9982  0.0338
    12 H(1)   Bbb    -0.0004    -0.187    -0.067    -0.063  0.1015 -0.0387  0.9941
              Bcc     0.0007     0.387     0.138     0.129  0.9936 -0.0460 -0.1033
 
              Baa    -0.0004    -0.235    -0.084    -0.078 -0.3723  0.6506  0.6619
    13 H(1)   Bbb    -0.0004    -0.210    -0.075    -0.070  0.5145 -0.4488  0.7306
              Bcc     0.0008     0.445     0.159     0.148  0.7724  0.6126 -0.1676
 
              Baa    -0.0028    -1.472    -0.525    -0.491 -0.0954  0.7423 -0.6632
    14 H(1)   Bbb    -0.0025    -1.331    -0.475    -0.444  0.6694  0.5410  0.5092
              Bcc     0.0053     2.803     1.000     0.935  0.7368 -0.3953 -0.5485
 
              Baa    -0.0050    -0.674    -0.240    -0.225 -0.0851  0.9185  0.3861
    15 C(13)  Bbb    -0.0044    -0.586    -0.209    -0.195  0.8640 -0.1250  0.4877
              Bcc     0.0094     1.260     0.449     0.420 -0.4962 -0.3751  0.7830
 
              Baa    -0.0094    -1.264    -0.451    -0.422  0.8478 -0.4482 -0.2835
    16 C(13)  Bbb     0.0007     0.093     0.033     0.031  0.5263  0.6452  0.5538
              Bcc     0.0087     1.171     0.418     0.391 -0.0653 -0.6187  0.7829
 
              Baa    -0.0164    -2.197    -0.784    -0.733  0.8165 -0.1552 -0.5560
    17 C(13)  Bbb    -0.0100    -1.348    -0.481    -0.450  0.5757  0.2910  0.7641
              Bcc     0.0264     3.545     1.265     1.182 -0.0432  0.9440 -0.3270
 
              Baa    -0.0120    -1.608    -0.574    -0.536  0.9578 -0.0480  0.2835
    18 C(13)  Bbb    -0.0027    -0.360    -0.128    -0.120  0.1652  0.8987 -0.4062
              Bcc     0.0147     1.968     0.702     0.656 -0.2353  0.4359  0.8687
 
              Baa    -0.0465     3.365     1.201     1.122  0.6390 -0.6243  0.4494
    19 O(17)  Bbb    -0.0406     2.936     1.048     0.979  0.6045  0.7689  0.2085
              Bcc     0.0871    -6.300    -2.248    -2.102 -0.4757  0.1384  0.8686
 
              Baa    -0.0022    -1.155    -0.412    -0.385 -0.5845  0.8054  0.0981
    20 H(1)   Bbb    -0.0018    -0.980    -0.350    -0.327  0.7044  0.4437  0.5540
              Bcc     0.0040     2.135     0.762     0.712 -0.4027 -0.3929  0.8267
 
              Baa    -0.5394   -72.380   -25.827   -24.143  0.1138 -0.3894  0.9140
    21 C(13)  Bbb    -0.5287   -70.944   -25.315   -23.664 -0.4593  0.7952  0.3959
              Bcc     1.0681   143.324    51.141    47.808  0.8810  0.4649  0.0883
 
              Baa    -0.0110    -5.863    -2.092    -1.956  0.1999  0.9560  0.2145
    22 H(1)   Bbb    -0.0060    -3.208    -1.145    -1.070  0.9440 -0.1293 -0.3034
              Bcc     0.0170     9.071     3.237     3.026  0.2624 -0.2632  0.9284
 
[...]
 Alpha  occ. eigenvalues --   -0.77216  -0.75397  -0.74182  -0.71457  -0.69893
 Alpha  occ. eigenvalues --   -0.68963  -0.67277  -0.66110  -0.65130  -0.64343
 Alpha  occ. eigenvalues --   -0.63165  -0.62044  -0.61045  -0.59284  -0.58502
 Alpha  occ. eigenvalues --   -0.57744  -0.55615  -0.54835  -0.53888  -0.50991
 Alpha  occ. eigenvalues --   -0.50581  -0.49424  -0.46772  -0.45723  -0.45668
 Alpha  occ. eigenvalues --   -0.44465  -0.42032  -0.41049  -0.37914  -0.36874
 Alpha  occ. eigenvalues --   -0.31556
 Alpha virt. eigenvalues --    0.03253   0.03644   0.04019   0.04410   0.04785
 Alpha virt. eigenvalues --    0.05254   0.06071   0.06659   0.06795   0.07292
 Alpha virt. eigenvalues --    0.07855   0.08849   0.09214   0.10060   0.11266
 Alpha virt. eigenvalues --    0.11614   0.11887   0.12369   0.12616   0.12910
 Alpha virt. eigenvalues --    0.13445   0.13695   0.13910   0.14268   0.14791
 Alpha virt. eigenvalues --    0.15194   0.15295   0.15378   0.15820   0.16022
 Alpha virt. eigenvalues --    0.16271   0.16488   0.16855   0.17531   0.17698
 Alpha virt. eigenvalues --    0.18248   0.18521   0.18546   0.19338   0.19944
 Alpha virt. eigenvalues --    0.20277   0.20894   0.21315   0.22080   0.22174
 Alpha virt. eigenvalues --    0.22468   0.23116   0.23976   0.24461   0.24797
 Alpha virt. eigenvalues --    0.24874   0.25839   0.26010   0.26228   0.26694
 Alpha virt. eigenvalues --    0.27747   0.27865   0.28393   0.28848   0.29639
 Alpha virt. eigenvalues --    0.30107   0.30706   0.30875   0.31214   0.31420
 Alpha virt. eigenvalues --    0.31561   0.31896   0.32281   0.32642   0.33042
 Alpha virt. eigenvalues --    0.33189   0.34142   0.34569   0.34984   0.35320
 Alpha virt. eigenvalues --    0.35751   0.36174   0.36283   0.36938   0.37284
 Alpha virt. eigenvalues --    0.37454   0.37762   0.38364   0.38990   0.39398
 Alpha virt. eigenvalues --    0.39771   0.40034   0.40347   0.40774   0.41135
 Alpha virt. eigenvalues --    0.41901   0.42046   0.42827   0.43584   0.43714
 Alpha virt. eigenvalues --    0.43991   0.44365   0.45177   0.45445   0.45685
 Alpha virt. eigenvalues --    0.46101   0.47303   0.47367   0.47597   0.47831
 Alpha virt. eigenvalues --    0.48350   0.48879   0.49440   0.49774   0.50364
 Alpha virt. eigenvalues --    0.50734   0.51837   0.52008   0.52633   0.53333
 Alpha virt. eigenvalues --    0.53717   0.54073   0.54470   0.55068   0.55572
 Alpha virt. eigenvalues --    0.55615   0.56298   0.56448   0.57527   0.58314
 Alpha virt. eigenvalues --    0.58644   0.58771   0.59465   0.59731   0.61200
 Alpha virt. eigenvalues --    0.61510   0.61861   0.62364   0.62696   0.63408
 Alpha virt. eigenvalues --    0.63606   0.64651   0.65035   0.65361   0.65679
 Alpha virt. eigenvalues --    0.65897   0.66699   0.67196   0.67452   0.68144
 Alpha virt. eigenvalues --    0.68363   0.68743   0.69486   0.70218   0.70524
 Alpha virt. eigenvalues --    0.70841   0.71479   0.71842   0.72275   0.72369
 Alpha virt. eigenvalues --    0.72735   0.73233   0.74146   0.74514   0.75208
 Alpha virt. eigenvalues --    0.76130   0.76156   0.76432   0.77033   0.77256
 Alpha virt. eigenvalues --    0.78473   0.79097   0.79957   0.80368   0.80798
 Alpha virt. eigenvalues --    0.81361   0.82173   0.82420   0.83345   0.83495
 Alpha virt. eigenvalues --    0.84438   0.84833   0.85064   0.85548   0.85990
 Alpha virt. eigenvalues --    0.86237   0.86875   0.87693   0.87807   0.88432
 Alpha virt. eigenvalues --    0.88709   0.90484   0.91064   0.91262   0.91870
 Alpha virt. eigenvalues --    0.92554   0.93289   0.93760   0.94860   0.95153
 Alpha virt. eigenvalues --    0.95464   0.95993   0.96829   0.97592   0.97869
 Alpha virt. eigenvalues --    0.98836   0.99478   1.00118   1.00573   1.01624
 Alpha virt. eigenvalues --    1.02155   1.02591   1.03285   1.03685   1.04128
 Alpha virt. eigenvalues --    1.05288   1.05621   1.06435   1.07002   1.07573
 Alpha virt. eigenvalues --    1.09244   1.09894   1.10136   1.10894   1.11292
 Alpha virt. eigenvalues --    1.12290   1.12985   1.13546   1.14570   1.15070
 Alpha virt. eigenvalues --    1.17252   1.17868   1.18378   1.19297   1.20751
 Alpha virt. eigenvalues --    1.21566   1.22096   1.23238   1.24576   1.25952
 Alpha virt. eigenvalues --    1.27322   1.27962   1.28296   1.28957   1.29754
 Alpha virt. eigenvalues --    1.30484   1.31934   1.32536   1.33679   1.34120
 Alpha virt. eigenvalues --    1.34826   1.35766   1.36417   1.37435   1.37988
 Alpha virt. eigenvalues --    1.39841   1.39964   1.41174   1.42265   1.43090
 Alpha virt. eigenvalues --    1.43873   1.45824   1.46300   1.47230   1.49369
 Alpha virt. eigenvalues --    1.49584   1.50804   1.52867   1.53376   1.54004
 Alpha virt. eigenvalues --    1.55745   1.57045   1.57958   1.60560   1.60950
 Alpha virt. eigenvalues --    1.61612   1.63025   1.63735   1.64449   1.65922
 Alpha virt. eigenvalues --    1.67020   1.67237   1.68327   1.69572   1.70021
 Alpha virt. eigenvalues --    1.70796   1.72076   1.73910   1.73968   1.75085
 Alpha virt. eigenvalues --    1.75856   1.76821   1.77127   1.78047   1.79388
 Alpha virt. eigenvalues --    1.81083   1.81372   1.82008   1.82503   1.83048
 Alpha virt. eigenvalues --    1.84522   1.86199   1.87121   1.87196   1.87597
 Alpha virt. eigenvalues --    1.88879   1.90893   1.92236   1.92671   1.94638
 Alpha virt. eigenvalues --    1.94798   1.95119   1.96296   1.97322   1.98289
 Alpha virt. eigenvalues --    1.98409   1.99826   2.01033   2.01630   2.02409
 Alpha virt. eigenvalues --    2.04087   2.05229   2.06599   2.07989   2.09097
 Alpha virt. eigenvalues --    2.09952   2.10901   2.11481   2.12747   2.14242
 Alpha virt. eigenvalues --    2.14933   2.16586   2.16940   2.17822   2.18727
 Alpha virt. eigenvalues --    2.19106   2.20832   2.21555   2.22251   2.22734
 Alpha virt. eigenvalues --    2.23257   2.24201   2.25341   2.26355   2.26940
 Alpha virt. eigenvalues --    2.27965   2.28387   2.28963   2.31032   2.32333
 Alpha virt. eigenvalues --    2.32835   2.34947   2.35660   2.36578   2.38097
 Alpha virt. eigenvalues --    2.39125   2.40343   2.41249   2.41940   2.42713
 Alpha virt. eigenvalues --    2.43732   2.44670   2.46152   2.46321   2.48934
 Alpha virt. eigenvalues --    2.49314   2.49394   2.51789   2.54368   2.55984
 Alpha virt. eigenvalues --    2.56315   2.56768   2.57629   2.58275   2.59526
 Alpha virt. eigenvalues --    2.60137   2.62297   2.63821   2.64348   2.66392
 Alpha virt. eigenvalues --    2.67850   2.69291   2.70439   2.71436   2.72718
 Alpha virt. eigenvalues --    2.74010   2.75332   2.76539   2.76755   2.77893
 Alpha virt. eigenvalues --    2.79234   2.80010   2.81165   2.81893   2.83138
 Alpha virt. eigenvalues --    2.83799   2.84473   2.85207   2.88045   2.89249
 Alpha virt. eigenvalues --    2.89877   2.90920   2.91622   2.92789   2.93704
 Alpha virt. eigenvalues --    2.95176   2.97999   2.98871   3.00264   3.03106
 Alpha virt. eigenvalues --    3.03660   3.05070   3.07085   3.07938   3.10447
 Alpha virt. eigenvalues --    3.10889   3.12941   3.15464   3.16699   3.19672
 Alpha virt. eigenvalues --    3.22598   3.22930   3.27347   3.28371   3.30762
 Alpha virt. eigenvalues --    3.31554   3.37988   3.38996   3.40885   3.44120
 Alpha virt. eigenvalues --    3.47011   3.49068   3.52249   3.54907   3.56469
 Alpha virt. eigenvalues --    3.62475   3.66611   3.77699   3.79469   3.81202
 Alpha virt. eigenvalues --    3.85376   3.85930   3.87036   3.88278   3.88864
 Alpha virt. eigenvalues --    3.90657   3.91758   3.92226   3.95310   3.97652
 Alpha virt. eigenvalues --    4.02455   4.11833   4.13321   4.15823   4.19636
 Alpha virt. eigenvalues --    4.28446   4.33535   4.45507   4.49955   4.64590
 Alpha virt. eigenvalues --    4.72978
  Beta  occ. eigenvalues --  -20.59510 -20.58488 -20.56853 -15.63637 -15.59904
  Beta  occ. eigenvalues --  -15.57782 -15.57448 -15.56537 -11.35121 -11.34975
  Beta  occ. eigenvalues --  -11.32773 -11.32543 -11.32492 -11.31078 -11.30036
  Beta  occ. eigenvalues --  -11.29686 -11.25995 -11.22221  -1.43052  -1.38989
  Beta  occ. eigenvalues --   -1.37625  -1.36905  -1.31565  -1.26212  -1.20486
  Beta  occ. eigenvalues --   -1.16850  -1.06443  -1.04661  -1.02701  -0.91818
  Beta  occ. eigenvalues --   -0.90332  -0.88831  -0.84676  -0.81549  -0.78505
  Beta  occ. eigenvalues --   -0.77100  -0.75106  -0.74079  -0.71258  -0.69810
  Beta  occ. eigenvalues --   -0.68856  -0.66980  -0.65988  -0.64753  -0.64012
  Beta  occ. eigenvalues --   -0.62990  -0.61944  -0.60894  -0.59006  -0.57569
  Beta  occ. eigenvalues --   -0.57276  -0.55230  -0.54335  -0.53728  -0.50990
  Beta  occ. eigenvalues --   -0.50462  -0.49051  -0.46423  -0.45520  -0.45251
  Beta  occ. eigenvalues --   -0.44385  -0.42001  -0.41008  -0.37582  -0.31551
  Beta virt. eigenvalues --    0.03266   0.03663   0.04023   0.04443   0.04794
  Beta virt. eigenvalues --    0.05235   0.06092   0.06575   0.06752   0.06801
  Beta virt. eigenvalues --    0.07866   0.08713   0.08951   0.09659   0.10326
  Beta virt. eigenvalues --    0.11310   0.11757   0.12246   0.12427   0.12886
  Beta virt. eigenvalues --    0.13213   0.13776   0.13902   0.13972   0.14298
  Beta virt. eigenvalues --    0.14816   0.15240   0.15336   0.15812   0.15916
  Beta virt. eigenvalues --    0.16069   0.16550   0.16601   0.16948   0.17578
  Beta virt. eigenvalues --    0.17715   0.18267   0.18590   0.19238   0.19699
  Beta virt. eigenvalues --    0.20057   0.20398   0.21036   0.21429   0.22178
  Beta virt. eigenvalues --    0.22321   0.22528   0.23169   0.24136   0.24532
  Beta virt. eigenvalues --    0.24837   0.25161   0.25981   0.26149   0.26495
  Beta virt. eigenvalues --    0.26719   0.27906   0.28021   0.28534   0.28974
  Beta virt. eigenvalues --    0.29920   0.30274   0.30971   0.31136   0.31361
  Beta virt. eigenvalues --    0.31509   0.31629   0.32013   0.32348   0.32818
  Beta virt. eigenvalues --    0.33068   0.33289   0.34452   0.34739   0.35231
  Beta virt. eigenvalues --    0.35507   0.35884   0.36262   0.36525   0.37060
  Beta virt. eigenvalues --    0.37506   0.37598   0.38234   0.38592   0.39250
  Beta virt. eigenvalues --    0.39505   0.39828   0.40290   0.40498   0.40973
  Beta virt. eigenvalues --    0.41569   0.42075   0.42573   0.42932   0.43731
  Beta virt. eigenvalues --    0.43898   0.44162   0.44510   0.45340   0.45744
  Beta virt. eigenvalues --    0.46127   0.46204   0.47454   0.47480   0.47861
  Beta virt. eigenvalues --    0.48181   0.48579   0.49111   0.49657   0.50091
  Beta virt. eigenvalues --    0.50787   0.51008   0.52015   0.52091   0.52857
  Beta virt. eigenvalues --    0.53449   0.53965   0.54338   0.54622   0.55221
  Beta virt. eigenvalues --    0.55787   0.55984   0.56393   0.56520   0.57910
  Beta virt. eigenvalues --    0.58691   0.58973   0.59225   0.59577   0.60019
  Beta virt. eigenvalues --    0.61402   0.61676   0.62016   0.62560   0.63066
  Beta virt. eigenvalues --    0.63536   0.64025   0.64766   0.65226   0.65691
  Beta virt. eigenvalues --    0.65950   0.66331   0.66921   0.67300   0.67769
  Beta virt. eigenvalues --    0.68265   0.68522   0.69211   0.69758   0.70342
  Beta virt. eigenvalues --    0.70786   0.71100   0.71755   0.71937   0.72458
  Beta virt. eigenvalues --    0.72891   0.72993   0.73483   0.74263   0.74948
  Beta virt. eigenvalues --    0.75419   0.76303   0.76444   0.76640   0.77133
  Beta virt. eigenvalues --    0.77607   0.78752   0.79262   0.80242   0.80872
  Beta virt. eigenvalues --    0.81067   0.81588   0.82257   0.82567   0.83502
  Beta virt. eigenvalues --    0.83977   0.84680   0.85045   0.85179   0.86071
  Beta virt. eigenvalues --    0.86218   0.86389   0.87405   0.87749   0.87990
  Beta virt. eigenvalues --    0.88520   0.89032   0.90585   0.91161   0.91480
  Beta virt. eigenvalues --    0.91942   0.92797   0.93576   0.93958   0.94998
  Beta virt. eigenvalues --    0.95382   0.95617   0.96063   0.96864   0.97728
  Beta virt. eigenvalues --    0.97983   0.98890   0.99541   1.00244   1.00663
  Beta virt. eigenvalues --    1.02032   1.02312   1.02703   1.03341   1.03708
  Beta virt. eigenvalues --    1.04295   1.05463   1.05735   1.06460   1.07054
  Beta virt. eigenvalues --    1.07877   1.09403   1.09964   1.10268   1.11047
  Beta virt. eigenvalues --    1.11403   1.12349   1.13029   1.13720   1.14769
  Beta virt. eigenvalues --    1.15130   1.17642   1.17938   1.18938   1.19514
  Beta virt. eigenvalues --    1.21261   1.21983   1.23197   1.23748   1.24698
  Beta virt. eigenvalues --    1.26272   1.27398   1.28158   1.28554   1.29250
  Beta virt. eigenvalues --    1.29870   1.30543   1.32049   1.32894   1.33781
  Beta virt. eigenvalues --    1.34467   1.35184   1.35896   1.36477   1.37519
  Beta virt. eigenvalues --    1.38291   1.39986   1.40068   1.41294   1.42361
  Beta virt. eigenvalues --    1.43243   1.44107   1.45876   1.46676   1.47501
  Beta virt. eigenvalues --    1.49556   1.49743   1.51090   1.52925   1.53586
  Beta virt. eigenvalues --    1.54206   1.55981   1.57109   1.58282   1.60753
  Beta virt. eigenvalues --    1.61029   1.61688   1.63139   1.64016   1.64675
  Beta virt. eigenvalues --    1.66495   1.67301   1.67715   1.68592   1.69717
  Beta virt. eigenvalues --    1.70114   1.70936   1.72300   1.74056   1.74335
  Beta virt. eigenvalues --    1.75139   1.76102   1.77263   1.77644   1.78220
  Beta virt. eigenvalues --    1.80054   1.81168   1.81637   1.82147   1.82651
  Beta virt. eigenvalues --    1.83106   1.85291   1.86668   1.87568   1.87763
  Beta virt. eigenvalues --    1.88501   1.89166   1.91258   1.92408   1.93160
  Beta virt. eigenvalues --    1.94854   1.95056   1.95336   1.97432   1.97898
  Beta virt. eigenvalues --    1.98482   1.98590   1.99997   2.01123   2.02059
  Beta virt. eigenvalues --    2.02773   2.04334   2.05401   2.06771   2.08253
  Beta virt. eigenvalues --    2.09299   2.10221   2.11050   2.11675   2.12784
  Beta virt. eigenvalues --    2.14386   2.15011   2.16857   2.17063   2.17926
  Beta virt. eigenvalues --    2.18930   2.19347   2.20930   2.21687   2.22319
  Beta virt. eigenvalues --    2.22886   2.23414   2.24440   2.26178   2.26417
  Beta virt. eigenvalues --    2.27171   2.28212   2.28440   2.28982   2.31229
  Beta virt. eigenvalues --    2.32378   2.33049   2.35033   2.35713   2.36724
  Beta virt. eigenvalues --    2.38421   2.39207   2.40589   2.41322   2.42203
  Beta virt. eigenvalues --    2.42975   2.43991   2.44840   2.46292   2.46632
  Beta virt. eigenvalues --    2.48982   2.49425   2.49684   2.51881   2.54812
  Beta virt. eigenvalues --    2.56085   2.56567   2.57009   2.57906   2.58374
  Beta virt. eigenvalues --    2.59629   2.60467   2.62519   2.63980   2.64431
  Beta virt. eigenvalues --    2.66650   2.67904   2.69341   2.70570   2.71463
  Beta virt. eigenvalues --    2.73105   2.74125   2.75395   2.76621   2.76842
  Beta virt. eigenvalues --    2.77973   2.79261   2.80098   2.81321   2.81928
  Beta virt. eigenvalues --    2.83256   2.83851   2.84541   2.85232   2.88127
  Beta virt. eigenvalues --    2.89356   2.89893   2.90980   2.91706   2.92832
  Beta virt. eigenvalues --    2.93765   2.95207   2.98153   2.98999   3.00323
  Beta virt. eigenvalues --    3.03156   3.03897   3.05088   3.07108   3.07951
  Beta virt. eigenvalues --    3.10467   3.11016   3.12988   3.15522   3.16736
  Beta virt. eigenvalues --    3.19789   3.22658   3.23409   3.27359   3.28768
  Beta virt. eigenvalues --    3.30780   3.31618   3.38001   3.39019   3.40893
  Beta virt. eigenvalues --    3.44249   3.47033   3.49078   3.52287   3.54936
  Beta virt. eigenvalues --    3.56480   3.62507   3.66688   3.77807   3.79476
  Beta virt. eigenvalues --    3.81233   3.85383   3.85943   3.87064   3.88305
  Beta virt. eigenvalues --    3.88907   3.90715   3.91783   3.92239   3.95335
  Beta virt. eigenvalues --    3.97728   4.02531   4.11876   4.13460   4.15911
  Beta virt. eigenvalues --    4.19685   4.28534   4.33609   4.45518   4.49976
  Beta virt. eigenvalues --    4.64596   4.73004
          Condensed to atoms (all electrons):
          Atomic-Atomic Spin Densities.
 Mulliken charges and spin densities:
               1          2
     1  N   -0.258421  -0.009661
     2  C    0.018207  -0.009242
     3  C    1.256407  -0.001500
     4  N   -0.981883  -0.005317
     5  C    0.561158   0.020010
     6  C    0.523019  -0.000460
     7  N   -0.697444   0.000664
     8  C    0.550196  -0.000903
     9  N   -0.545121  -0.000015
    10  N   -0.231555  -0.000161
    11  H   -0.036274   0.000011
    12  H   -0.022312   0.000016
    13  H   -0.385178   0.000114
    14  H   -0.313176   0.002242
    15  C    1.212761  -0.004777
    16  C    0.613327   0.018463
    17  C    1.011322  -0.002527
    18  C    0.958189  -0.224853
    19  O   -1.146758   0.007477
    20  H   -0.237474   0.000847
    21  C    0.764526   1.429190
    22  H   -0.256316   0.031692
    23  H   -0.312613  -0.118643
    24  H   -0.305711  -0.123080
    25  O   -0.908968   0.000326
    26  H   -0.227916  -0.012359
    27  H    0.245090  -0.000172
    28  O   -0.866883   0.002662
    29  H   -0.129324  -0.001500
    30  H    0.149127   0.001457
 Sum of Mulliken charges =  -0.00000   1.00000
 Mulliken charges and spin densities with hydrogens summed into heavy atoms:
               1          2
     1  N   -0.258421  -0.009661
     2  C    0.018207  -0.009242
     3  C    1.256407  -0.001500
     4  N   -0.981883  -0.005317
     5  C    0.247982   0.022252
     6  C    0.523019  -0.000460
     7  N   -0.697444   0.000664
     8  C    0.165018  -0.000789
     9  N   -0.545121  -0.000015
    10  N   -0.290141  -0.000134
    15  C    0.975287  -0.003930
    16  C    0.385411   0.006104
    17  C    0.881998  -0.004027
    18  C    0.701872  -0.193161
    19  O   -1.146758   0.007477
    21  C    0.146202   1.187466
    25  O   -0.663879   0.000155
    28  O   -0.717756   0.004119
 Electronic spatial extent (au):  <R**2>=           4581.7370
 Charge=             -0.0000 electrons
 Dipole moment (field-independent basis, Debye):
    X=              0.3247    Y=             -0.7714    Z=              0.1346  Tot=              0.8477
 Unable to Open any file for archive entry.
 1\1\GINC-SE096\SP\UMP2-FC\Aug-CC-pVDZ\C10H12N5O3\OHZDE\20-Sep-2024\0\\
 #t symm=none mp2 aug-cc-pvdz geom=allcheck guess=(read,tcheck) int=(gr
 id=ultrafine)\\title\\0,2\N,0,0.163773,-0.661448,-0.539311\C,0,1.21059
 6,0.178054,-0.262438\C,0,2.288424,-0.653894,-0.001681\N,0,1.925955,-1.
 978464,-0.11956\C,0,0.664354,-1.940734,-0.44617\C,0,3.49696,-0.019241,
 0.323526\N,0,3.532366,1.318017,0.356081\C,0,2.420626,1.998644,0.082528
 \N,0,1.222922,1.517896,-0.233401\N,0,4.616507,-0.709708,0.6017\H,0,5.4
 58443,-0.207751,0.826167\H,0,4.608169,-1.715053,0.580704\H,0,2.507312,
 3.079086,0.124924\H,0,0.028659,-2.7926,-0.624819\C,0,-1.170165,-0.2422
 54,-0.963844\C,0,-1.732675,0.878109,-0.07786\C,0,-3.206356,0.518882,-0
 .044996\C,0,-3.145245,-1.009196,0.02485\O,0,-2.055994,-1.329553,-0.874
 66\H,0,-1.11055,0.0945,-2.002657\C,0,-2.912198,-1.545026,1.385942\H,0,
 -4.034654,-1.463397,-0.42604\H,0,-2.462067,-2.522475,1.494555\H,0,-3.3
 18693,-1.033159,2.246337\O,0,-1.529115,2.170777,-0.567844\H,0,-1.33073
 4,0.768405,0.936453\H,0,-0.568847,2.334317,-0.507196\O,0,-3.912394,1.0
 62789,1.040689\H,0,-3.660212,0.820326,-0.996508\H,0,-3.8534,2.02158,0.
 984905\\Version=ES64L-G16RevC.01\HF=-882.5943039\MP2=-885.3777962\PUHF
 =-882.5975339\PMP2-0=-885.3798451\S2=0.762534\S2-1=0.753323\S2A=0.7501
 01\RMSD=5.958e-10\PG=Unknown\\@
 The archive entry for this job was punched.


 DEPRESSION IS WAITING FOR YOUR SHIP TO COME IN,
 AND FINDING OUT IT'S THE TITANIC.
 Job cpu time:       0 days  3 hours 23 minutes 33.6 seconds.
 Elapsed time:       0 days  0 hours 40 minutes 54.6 seconds.
 File lengths (MBytes):  RWF=  73301 Int=      0 D2E=      0 Chk=     41 Scr=      1
 Normal termination of Gaussian 16 at Fri Sep 20 21:24:27 2024.
