 Entering Gaussian System, Link 0=g16
 Input=06_24P.gjf
 Output=06_24P.log
 Initial command:
 /arc/software/Gaussian/g16.c01/l1.exe "/tmp/slurm/2341216/Gau-3416157.inp" -scrdir="/tmp/slurm/2341216/"
 Entering Link 1 = /arc/software/Gaussian/g16.c01/l1.exe PID=   3416158.
  
 Copyright (c) 1988-2019, Gaussian, Inc.  All Rights Reserved.
  
 This is part of the Gaussian(R) 16 program.  It is based on
 the Gaussian(R) 09 system (copyright 2009, Gaussian, Inc.),
 the Gaussian(R) 03 system (copyright 2003, Gaussian, Inc.),
 the Gaussian(R) 98 system (copyright 1998, Gaussian, Inc.),
 the Gaussian(R) 94 system (copyright 1995, Gaussian, Inc.),
 the Gaussian 92(TM) system (copyright 1992, Gaussian, Inc.),
 the Gaussian 90(TM) system (copyright 1990, Gaussian, Inc.),
 the Gaussian 88(TM) system (copyright 1988, Gaussian, Inc.),
 the Gaussian 86(TM) system (copyright 1986, Carnegie Mellon
 University), and the Gaussian 82(TM) system (copyright 1983,
 Carnegie Mellon University). Gaussian is a federally registered
 trademark of Gaussian, Inc.
  
 This software contains proprietary and confidential information,
 including trade secrets, belonging to Gaussian, Inc.
  
 This software is provided under written license and may be
 used, copied, transmitted, or stored only in accord with that
 written license.
  
 The following legend is applicable only to US Government
 contracts under FAR:
  
                    RESTRICTED RIGHTS LEGEND
  
 Use, reproduction and disclosure by the US Government is
 subject to restrictions as set forth in subparagraphs (a)
 and (c) of the Commercial Computer Software - Restricted
 Rights clause in FAR 52.227-19.
  
 Gaussian, Inc.
 340 Quinnipiac St., Bldg. 40, Wallingford CT 06492
  
  
 ---------------------------------------------------------------
 Warning -- This program may not be used in any manner that
 competes with the business of Gaussian, Inc. or will provide
 assistance to any competitor of Gaussian, Inc.  The licensee
 of this program is prohibited from giving any competitor of
 Gaussian, Inc. access to this program.  By using this program,
 the user acknowledges that Gaussian, Inc. is engaged in the
 business of creating and licensing software in the field of
 computational chemistry and represents and warrants to the
 licensee that it is not a competitor of Gaussian, Inc. and that
 it will not use this program in any manner prohibited above.
 ---------------------------------------------------------------
  

 Cite this work as:
 Gaussian 16, Revision C.01,
 M. J. Frisch, G. W. Trucks, H. B. Schlegel, G. E. Scuseria, 
 M. A. Robb, J. R. Cheeseman, G. Scalmani, V. Barone, 
 G. A. Petersson, H. Nakatsuji, X. Li, M. Caricato, A. V. Marenich, 
 J. Bloino, B. G. Janesko, R. Gomperts, B. Mennucci, H. P. Hratchian, 
 J. V. Ortiz, A. F. Izmaylov, J. L. Sonnenberg, D. Williams-Young, 
 F. Ding, F. Lipparini, F. Egidi, J. Goings, B. Peng, A. Petrone, 
 T. Henderson, D. Ranasinghe, V. G. Zakrzewski, J. Gao, N. Rega, 
 G. Zheng, W. Liang, M. Hada, M. Ehara, K. Toyota, R. Fukuda, 
 J. Hasegawa, M. Ishida, T. Nakajima, Y. Honda, O. Kitao, H. Nakai, 
 T. Vreven, K. Throssell, J. A. Montgomery, Jr., J. E. Peralta, 
 F. Ogliaro, M. J. Bearpark, J. J. Heyd, E. N. Brothers, K. N. Kudin, 
 V. N. Staroverov, T. A. Keith, R. Kobayashi, J. Normand, 
 K. Raghavachari, A. P. Rendell, J. C. Burant, S. S. Iyengar, 
 J. Tomasi, M. Cossi, J. M. Millam, M. Klene, C. Adamo, R. Cammi, 
 J. W. Ochterski, R. L. Martin, K. Morokuma, O. Farkas, 
 J. B. Foresman, and D. J. Fox, Gaussian, Inc., Wallingford CT, 2019.
 
 ******************************************
 Gaussian 16:  ES64L-G16RevC.01  3-Jul-2019
                20-Sep-2024 
 ******************************************
 %nprocs=16
 Will use up to   16 processors via shared memory.
 %mem=30GB
 %chk=06_24P.chk
 ----------------------------------------------------------------------
 #t hf aug-cc-pvdz symm=none int=(grid=ultrafine) guess=(read,tcheck) s
 table=(opt,rrhf)
 ----------------------------------------------------------------------
 -----
 title
 -----
 Symbolic Z-matrix:
 Charge =  0 Multiplicity = 1
 C                     0.6485    2.59549   0.37226 
 C                     0.45473   1.21943   1.06888 
 C                    -2.15944   1.24098  -0.61862 
 H                     1.7187    2.74817   0.21148 
 C                    -0.58741   1.26017   2.20661 
 H                    -0.78902   0.24112   2.55384 
 H                    -0.1327    1.77979   3.05722 
 H                    -3.01917   1.06136  -1.27091 
 H                     1.40609   0.96857   1.54534 
 C                    -1.90506   1.96033   1.89245 
 H                    -2.50145   1.99017   2.8098 
 H                    -1.70646   3.00632   1.64369 
 C                    -2.76263   1.33771   0.79526 
 H                    -3.08602   0.34384   1.11784 
 H                    -3.67809   1.93433   0.71934 
 C                    -1.55137   2.58708  -1.09092 
 H                    -1.80947   2.72505  -2.14542 
 C                    -0.02993   2.75977  -0.99455 
 H                     0.44203   2.0643   -1.69828 
 H                     0.21493   3.75559  -1.37664 
 H                    -2.04697   3.40663  -0.55994 
 H                     0.32895   3.39709   1.04554 
 C                    -1.19546   0.05264  -0.81748 
 H                    -0.91824   0.004    -1.88131 
 Si                   -1.95415  -1.68326  -0.57262 
 C                    -1.75048  -2.30605   1.1918 
 H                    -2.28637  -1.69293   1.91908 
 H                    -2.13299  -3.327     1.27675 
 H                    -0.69536  -2.32614   1.47789 
 C                    -1.06965  -2.87592  -1.71997 
 H                    -1.45806  -3.89133  -1.6041 
 H                    -1.19858  -2.58768  -2.7666 
 H                     0.00058  -2.89247  -1.50773 
 C                    -3.77971  -1.65622  -1.02619 
 H                    -3.92496  -1.31063  -2.05309 
 H                    -4.19718  -2.6645   -0.95706 
 H                    -4.36717  -1.00963  -0.3715 
 B                     0.14484   0.14745  -0.03885 
 C                     3.50966   0.44269  -1.45226 
 C                     3.44275  -0.38555  -0.26203 
 C                     4.61592   1.03237  -1.90381 
 C                     2.29832  -0.91067   0.19184 
 O                     1.1162   -0.76006  -0.43926 
 O                     2.13033  -1.67815   1.28349 
 C                     3.27462  -1.97968   2.06304 
 H                     3.72817  -1.06636   2.45719 
 H                     2.92319  -2.59952   2.88391 
 H                     4.01174  -2.53067   1.47344 
 H                     2.58218   0.57321  -2.0003 
 H                     5.56634   0.92796  -1.3913 
 H                     4.60463   1.63646  -2.80161 
 H                     4.36212  -0.57829   0.27286 
 
 Symmetry turned off by external request.
                          Input orientation:                          
 ---------------------------------------------------------------------
 Center     Atomic      Atomic             Coordinates (Angstroms)
 Number     Number       Type             X           Y           Z
 ---------------------------------------------------------------------
      1          6           0        0.648503    2.595494    0.372259
      2          6           0        0.454733    1.219434    1.068882
      3          6           0       -2.159439    1.240975   -0.618622
      4          1           0        1.718701    2.748165    0.211483
      5          6           0       -0.587409    1.260166    2.206605
      6          1           0       -0.789021    0.241115    2.553838
      7          1           0       -0.132702    1.779793    3.057222
      8          1           0       -3.019171    1.061360   -1.270914
      9          1           0        1.406093    0.968573    1.545340
     10          6           0       -1.905059    1.960333    1.892452
     11          1           0       -2.501449    1.990172    2.809796
     12          1           0       -1.706463    3.006318    1.643693
     13          6           0       -2.762627    1.337710    0.795255
     14          1           0       -3.086020    0.343839    1.117836
     15          1           0       -3.678092    1.934329    0.719343
     16          6           0       -1.551373    2.587076   -1.090924
     17          1           0       -1.809469    2.725046   -2.145416
     18          6           0       -0.029933    2.759765   -0.994549
     19          1           0        0.442034    2.064304   -1.698277
     20          1           0        0.214930    3.755587   -1.376642
     21          1           0       -2.046966    3.406626   -0.559943
     22          1           0        0.328952    3.397086    1.045540
     23          6           0       -1.195458    0.052635   -0.817483
     24          1           0       -0.918235    0.003996   -1.881313
     25         14           0       -1.954151   -1.683260   -0.572623
     26          6           0       -1.750477   -2.306053    1.191797
     27          1           0       -2.286367   -1.692933    1.919081
     28          1           0       -2.132988   -3.326995    1.276746
     29          1           0       -0.695357   -2.326139    1.477893
     30          6           0       -1.069646   -2.875920   -1.719973
     31          1           0       -1.458064   -3.891326   -1.604095
     32          1           0       -1.198578   -2.587678   -2.766603
     33          1           0        0.000584   -2.892467   -1.507731
     34          6           0       -3.779705   -1.656215   -1.026194
     35          1           0       -3.924955   -1.310631   -2.053090
     36          1           0       -4.197178   -2.664499   -0.957059
     37          1           0       -4.367167   -1.009628   -0.371503
     38          5           0        0.144835    0.147452   -0.038852
     39          6           0        3.509659    0.442686   -1.452258
     40          6           0        3.442753   -0.385547   -0.262025
     41          6           0        4.615921    1.032366   -1.903808
     42          6           0        2.298321   -0.910673    0.191837
     43          8           0        1.116196   -0.760062   -0.439259
     44          8           0        2.130331   -1.678153    1.283489
     45          6           0        3.274624   -1.979682    2.063038
     46          1           0        3.728165   -1.066364    2.457193
     47          1           0        2.923190   -2.599521    2.883905
     48          1           0        4.011743   -2.530668    1.473435
     49          1           0        2.582180    0.573212   -2.000302
     50          1           0        5.566339    0.927961   -1.391300
     51          1           0        4.604629    1.636458   -2.801607
     52          1           0        4.362124   -0.578293    0.272859
 ---------------------------------------------------------------------
 Rotational constants (GHZ):           0.3539119           0.2362864           0.1955331
   766 basis functions,  1282 primitive gaussians,   808 cartesian basis functions
    84 alpha electrons       84 beta electrons
       nuclear repulsion energy      2019.0685306180 Hartrees.
 NAtoms=   52 NActive=   52 NUniq=   52 SFac= 1.00D+00 NAtFMM=   60 NAOKFM=F Big=F
 ExpMin= 2.38D-02 ExpMax= 7.89D+04 ExpMxC= 2.69D+03 IAcc=3 IRadAn=         5 AccDes= 0.00D+00
 Harris functional with IExCor=  205 and IRadAn=       5 diagonalized for initial guess.
 HarFok:  IExCor=  205 AccDes= 0.00D+00 IRadAn=         5 IDoV= 1 UseB2=F ITyADJ=14
 ICtDFT=  3500011 ScaDFX=  1.000000  1.000000  1.000000  1.000000
 FoFCou: FMM=F IPFlag=           0 FMFlag=      100000 FMFlg1=           0
         NFxFlg=           0 DoJE=T BraDBF=F KetDBF=T FulRan=T
         wScrn=  0.000000 ICntrl=       500 IOpCl=  0 I1Cent=   200000004 NGrid=           0
         NMat0=    1 NMatS0=      1 NMatT0=    0 NMatD0=    1 NMtDS0=    0 NMtDT0=    0
 Symmetry not used in FoFCou.
 SCF Done:  E(RHF) =  -1125.28392216     A.U. after   15 cycles
            NFock= 15  Conv=0.31D-08     -V/T= 2.0003

 **********************************************************************

            Population analysis using the SCF Density.

 **********************************************************************

 Alpha  occ. eigenvalues --  -68.75430 -20.61097 -20.58915 -11.36714 -11.29977
 Alpha  occ. eigenvalues --  -11.23930 -11.22583 -11.22075 -11.22065 -11.22016
 Alpha  occ. eigenvalues --  -11.21942 -11.21834 -11.21680 -11.21614 -11.21544
 Alpha  occ. eigenvalues --  -11.19741 -11.19652 -11.19477 -11.18970 -11.18055
 Alpha  occ. eigenvalues --   -7.61331  -6.10093  -4.20724  -4.20711  -4.20705
 Alpha  occ. eigenvalues --   -1.46608  -1.38271  -1.11482  -1.08511  -1.04766
 Alpha  occ. eigenvalues --   -1.04308  -1.00561  -0.97380  -0.96500  -0.94703
 Alpha  occ. eigenvalues --   -0.91864  -0.91560  -0.91266  -0.88072  -0.82643
 Alpha  occ. eigenvalues --   -0.79761  -0.79299  -0.76595  -0.72688  -0.71701
 Alpha  occ. eigenvalues --   -0.69935  -0.68221  -0.66020  -0.64210  -0.63471
 Alpha  occ. eigenvalues --   -0.62180  -0.60691  -0.59911  -0.59166  -0.58547
 Alpha  occ. eigenvalues --   -0.57669  -0.57444  -0.56986  -0.56098  -0.55787
 Alpha  occ. eigenvalues --   -0.55434  -0.54660  -0.54248  -0.53151  -0.52969
 Alpha  occ. eigenvalues --   -0.52085  -0.51915  -0.51084  -0.50160  -0.49541
 Alpha  occ. eigenvalues --   -0.48960  -0.48377  -0.47501  -0.46590  -0.45706
 Alpha  occ. eigenvalues --   -0.44073  -0.42774  -0.42706  -0.42560  -0.41446
 Alpha  occ. eigenvalues --   -0.40978  -0.40431  -0.37703  -0.29592
 Alpha virt. eigenvalues --    0.02825   0.03368   0.03618   0.03811   0.04639
 Alpha virt. eigenvalues --    0.04719   0.05036   0.05203   0.05345   0.06270
 Alpha virt. eigenvalues --    0.06479   0.06738   0.06809   0.07072   0.07280
 Alpha virt. eigenvalues --    0.07585   0.08294   0.08588   0.08801   0.09095
 Alpha virt. eigenvalues --    0.09417   0.09542   0.09886   0.10039   0.10400
 Alpha virt. eigenvalues --    0.10935   0.11093   0.11477   0.11804   0.12050
 Alpha virt. eigenvalues --    0.12403   0.12674   0.12863   0.13016   0.13154
 Alpha virt. eigenvalues --    0.13658   0.13719   0.14500   0.14669   0.14695
 Alpha virt. eigenvalues --    0.15062   0.15288   0.15488   0.15664   0.16245
 Alpha virt. eigenvalues --    0.16397   0.16740   0.16970   0.17282   0.17397
 Alpha virt. eigenvalues --    0.17862   0.17929   0.18065   0.18140   0.18613
 Alpha virt. eigenvalues --    0.18860   0.19041   0.19290   0.19533   0.19782
 Alpha virt. eigenvalues --    0.20134   0.20312   0.20416   0.20476   0.20665
 Alpha virt. eigenvalues --    0.21022   0.21205   0.21520   0.22103   0.22195
 Alpha virt. eigenvalues --    0.22287   0.22506   0.22670   0.22885   0.23550
 Alpha virt. eigenvalues --    0.23609   0.23863   0.24011   0.24448   0.24560
 Alpha virt. eigenvalues --    0.24727   0.25129   0.25177   0.25560   0.25694
 Alpha virt. eigenvalues --    0.25959   0.26087   0.26442   0.26637   0.26859
 Alpha virt. eigenvalues --    0.27144   0.27349   0.27514   0.28444   0.28831
 Alpha virt. eigenvalues --    0.29087   0.29223   0.29373   0.30147   0.30345
 Alpha virt. eigenvalues --    0.30450   0.30716   0.31129   0.31308   0.31623
 Alpha virt. eigenvalues --    0.31983   0.32290   0.32797   0.33252   0.33585
 Alpha virt. eigenvalues --    0.34054   0.34249   0.34541   0.34740   0.35233
 Alpha virt. eigenvalues --    0.35385   0.36146   0.36403   0.36642   0.36982
 Alpha virt. eigenvalues --    0.37610   0.37744   0.37964   0.38343   0.38507
 Alpha virt. eigenvalues --    0.38830   0.39067   0.39188   0.39712   0.40009
 Alpha virt. eigenvalues --    0.40444   0.40693   0.40965   0.41183   0.41443
 Alpha virt. eigenvalues --    0.41685   0.41759   0.42194   0.42503   0.43037
 Alpha virt. eigenvalues --    0.43243   0.43625   0.43995   0.44214   0.44698
 Alpha virt. eigenvalues --    0.45008   0.45385   0.45684   0.45876   0.46145
 Alpha virt. eigenvalues --    0.46489   0.47059   0.47120   0.47470   0.47742
 Alpha virt. eigenvalues --    0.47921   0.48177   0.48523   0.48777   0.49005
 Alpha virt. eigenvalues --    0.49200   0.49641   0.49734   0.49957   0.50282
 Alpha virt. eigenvalues --    0.50849   0.51333   0.51628   0.51752   0.52049
 Alpha virt. eigenvalues --    0.52280   0.52538   0.52719   0.53002   0.53426
 Alpha virt. eigenvalues --    0.53707   0.53822   0.53982   0.54260   0.54326
 Alpha virt. eigenvalues --    0.54768   0.55028   0.55803   0.55922   0.56227
 Alpha virt. eigenvalues --    0.56511   0.56639   0.57142   0.57233   0.57674
 Alpha virt. eigenvalues --    0.57993   0.58667   0.58676   0.58984   0.59443
 Alpha virt. eigenvalues --    0.59839   0.60097   0.60190   0.60340   0.60735
 Alpha virt. eigenvalues --    0.61287   0.61449   0.61839   0.62371   0.63021
 Alpha virt. eigenvalues --    0.63272   0.63276   0.63590   0.63901   0.64004
 Alpha virt. eigenvalues --    0.64145   0.64537   0.64915   0.65259   0.65537
 Alpha virt. eigenvalues --    0.65952   0.66236   0.66549   0.66810   0.67308
 Alpha virt. eigenvalues --    0.67641   0.67923   0.68324   0.68606   0.68911
 Alpha virt. eigenvalues --    0.69088   0.69302   0.69518   0.69773   0.70581
 Alpha virt. eigenvalues --    0.70905   0.71243   0.71513   0.71708   0.72295
 Alpha virt. eigenvalues --    0.72673   0.72826   0.72916   0.73053   0.73424
 Alpha virt. eigenvalues --    0.73748   0.73961   0.74031   0.74168   0.74464
 Alpha virt. eigenvalues --    0.75161   0.75336   0.75830   0.76220   0.76468
 Alpha virt. eigenvalues --    0.76601   0.76902   0.77231   0.77385   0.77861
 Alpha virt. eigenvalues --    0.78495   0.78554   0.79084   0.79169   0.79420
 Alpha virt. eigenvalues --    0.80005   0.80214   0.80702   0.80921   0.81040
 Alpha virt. eigenvalues --    0.81391   0.81712   0.82115   0.82334   0.82988
 Alpha virt. eigenvalues --    0.83108   0.83621   0.83665   0.84197   0.84452
 Alpha virt. eigenvalues --    0.85044   0.85150   0.85772   0.86049   0.86484
 Alpha virt. eigenvalues --    0.86894   0.87139   0.87580   0.87993   0.88164
 Alpha virt. eigenvalues --    0.88435   0.88575   0.88947   0.89024   0.89786
 Alpha virt. eigenvalues --    0.89904   0.90575   0.91028   0.91218   0.91290
 Alpha virt. eigenvalues --    0.91851   0.92040   0.92373   0.92724   0.92935
 Alpha virt. eigenvalues --    0.93360   0.93563   0.93900   0.94004   0.94304
 Alpha virt. eigenvalues --    0.95001   0.95490   0.95965   0.96184   0.96388
 Alpha virt. eigenvalues --    0.96979   0.97239   0.97539   0.97942   0.98318
 Alpha virt. eigenvalues --    0.98746   0.99021   0.99381   0.99838   1.00014
 Alpha virt. eigenvalues --    1.00530   1.00615   1.01067   1.01353   1.01878
 Alpha virt. eigenvalues --    1.02306   1.02760   1.02909   1.03463   1.04035
 Alpha virt. eigenvalues --    1.04407   1.04743   1.05307   1.05928   1.06044
 Alpha virt. eigenvalues --    1.06768   1.06908   1.07953   1.08259   1.08557
 Alpha virt. eigenvalues --    1.09158   1.09769   1.10181   1.10625   1.11410
 Alpha virt. eigenvalues --    1.11876   1.12474   1.12915   1.13948   1.14317
 Alpha virt. eigenvalues --    1.14677   1.15105   1.15409   1.16422   1.16557
 Alpha virt. eigenvalues --    1.17262   1.17611   1.18012   1.18911   1.19334
 Alpha virt. eigenvalues --    1.20124   1.20271   1.21015   1.22214   1.22535
 Alpha virt. eigenvalues --    1.22756   1.23436   1.23770   1.25035   1.25632
 Alpha virt. eigenvalues --    1.26189   1.26757   1.27533   1.28519   1.28929
 Alpha virt. eigenvalues --    1.29709   1.30630   1.31700   1.32290   1.32509
 Alpha virt. eigenvalues --    1.33468   1.33658   1.34222   1.35181   1.35548
 Alpha virt. eigenvalues --    1.36362   1.37004   1.38150   1.38795   1.39629
 Alpha virt. eigenvalues --    1.40260   1.40826   1.41683   1.42299   1.43456
 Alpha virt. eigenvalues --    1.43775   1.44124   1.44810   1.45940   1.46357
 Alpha virt. eigenvalues --    1.46929   1.47980   1.48258   1.48831   1.49460
 Alpha virt. eigenvalues --    1.51026   1.51899   1.52611   1.53147   1.54140
 Alpha virt. eigenvalues --    1.54767   1.55467   1.56366   1.56812   1.57448
 Alpha virt. eigenvalues --    1.58028   1.58477   1.60060   1.61180   1.61843
 Alpha virt. eigenvalues --    1.62180   1.63394   1.63676   1.65081   1.65843
 Alpha virt. eigenvalues --    1.66203   1.67126   1.67246   1.68552   1.68995
 Alpha virt. eigenvalues --    1.69664   1.69883   1.70027   1.70482   1.71475
 Alpha virt. eigenvalues --    1.71570   1.72709   1.73335   1.74202   1.74848
 Alpha virt. eigenvalues --    1.75710   1.76706   1.77260   1.78029   1.79076
 Alpha virt. eigenvalues --    1.79483   1.80169   1.80687   1.81261   1.81480
 Alpha virt. eigenvalues --    1.82352   1.82841   1.84069   1.85018   1.85449
 Alpha virt. eigenvalues --    1.86079   1.86821   1.87311   1.88048   1.89295
 Alpha virt. eigenvalues --    1.89617   1.90097   1.90703   1.91335   1.92239
 Alpha virt. eigenvalues --    1.92661   1.93091   1.93440   1.93900   1.94258
 Alpha virt. eigenvalues --    1.95143   1.95761   1.96620   1.97250   1.97963
 Alpha virt. eigenvalues --    1.98708   1.98775   1.99984   2.00307   2.01157
 Alpha virt. eigenvalues --    2.01354   2.02015   2.02841   2.03322   2.03984
 Alpha virt. eigenvalues --    2.04795   2.05265   2.06230   2.06686   2.07222
 Alpha virt. eigenvalues --    2.07785   2.08436   2.08535   2.09971   2.10308
 Alpha virt. eigenvalues --    2.10787   2.11924   2.12339   2.12862   2.13032
 Alpha virt. eigenvalues --    2.14052   2.14288   2.14451   2.14872   2.15982
 Alpha virt. eigenvalues --    2.16555   2.16779   2.18177   2.18285   2.19043
 Alpha virt. eigenvalues --    2.20593   2.20696   2.21012   2.21712   2.21939
 Alpha virt. eigenvalues --    2.22689   2.23102   2.23571   2.24228   2.24297
 Alpha virt. eigenvalues --    2.24829   2.25371   2.25802   2.26312   2.27178
 Alpha virt. eigenvalues --    2.27947   2.28052   2.28758   2.28980   2.29445
 Alpha virt. eigenvalues --    2.29710   2.30414   2.31783   2.32228   2.32609
 Alpha virt. eigenvalues --    2.32826   2.33226   2.33727   2.34504   2.35188
 Alpha virt. eigenvalues --    2.35450   2.36119   2.36681   2.37240   2.37655
 Alpha virt. eigenvalues --    2.38025   2.38408   2.38905   2.39703   2.40126
 Alpha virt. eigenvalues --    2.40427   2.41391   2.41827   2.42419   2.42834
 Alpha virt. eigenvalues --    2.43796   2.43893   2.44696   2.44956   2.45670
 Alpha virt. eigenvalues --    2.46627   2.47778   2.48796   2.49431   2.50593
 Alpha virt. eigenvalues --    2.51212   2.51376   2.52512   2.53721   2.54434
 Alpha virt. eigenvalues --    2.55942   2.56347   2.57213   2.58126   2.58385
 Alpha virt. eigenvalues --    2.59498   2.60335   2.60566   2.60854   2.61508
 Alpha virt. eigenvalues --    2.62866   2.63433   2.63761   2.64468   2.64878
 Alpha virt. eigenvalues --    2.65386   2.66199   2.67273   2.67936   2.68293
 Alpha virt. eigenvalues --    2.68850   2.69145   2.70286   2.70903   2.72037
 Alpha virt. eigenvalues --    2.72673   2.73208   2.74496   2.74845   2.74987
 Alpha virt. eigenvalues --    2.75348   2.77063   2.78046   2.79325   2.79472
 Alpha virt. eigenvalues --    2.79971   2.81023   2.82341   2.83202   2.84495
 Alpha virt. eigenvalues --    2.84815   2.85879   2.87410   2.90615   2.90923
 Alpha virt. eigenvalues --    2.92046   2.93097   2.93788   2.94667   2.96164
 Alpha virt. eigenvalues --    2.97403   2.97988   2.98761   2.99341   2.99997
 Alpha virt. eigenvalues --    3.00965   3.02012   3.03464   3.03832   3.04760
 Alpha virt. eigenvalues --    3.05470   3.06502   3.08900   3.10682   3.11051
 Alpha virt. eigenvalues --    3.13169   3.14011   3.15679   3.16274   3.17388
 Alpha virt. eigenvalues --    3.17731   3.18119   3.20016   3.21206   3.21436
 Alpha virt. eigenvalues --    3.24148   3.26120   3.27441   3.28844   3.31172
 Alpha virt. eigenvalues --    3.33696   3.34348   3.36157   3.39240   3.40874
 Alpha virt. eigenvalues --    3.42513   3.44183   3.45692   3.50245   3.55133
 Alpha virt. eigenvalues --    3.58898   3.71623   3.74218   3.80171   3.86492
 Alpha virt. eigenvalues --    3.89627   3.94215   3.97892   4.01648   4.02488
 Alpha virt. eigenvalues --    4.07604   4.08581   4.13531   4.17236   4.25483
 Alpha virt. eigenvalues --    4.30934   4.36297   4.44004   4.63062   4.71034
 Alpha virt. eigenvalues --    4.90700   5.60462
          Condensed to atoms (all electrons):
 Mulliken charges:
               1
     1  C    0.370972
     2  C    0.496449
     3  C   -0.004394
     4  H   -0.292514
     5  C    0.457489
     6  H   -0.141183
     7  H   -0.242962
     8  H   -0.383801
     9  H   -0.377312
    10  C    0.367545
    11  H   -0.272014
    12  H   -0.038875
    13  C    0.688806
    14  H   -0.192465
    15  H   -0.252163
    16  C    0.470559
    17  H   -0.204882
    18  C    0.735637
    19  H    0.083398
    20  H   -0.328236
    21  H   -0.199861
    22  H   -0.262632
    23  C   -0.185237
    24  H   -0.449475
    25  Si   0.772327
    26  C    1.164217
    27  H   -0.313829
    28  H   -0.473566
    29  H   -0.490402
    30  C    0.910115
    31  H   -0.420118
    32  H   -0.301689
    33  H   -0.282425
    34  C    0.906934
    35  H   -0.341421
    36  H   -0.536872
    37  H   -0.284997
    38  B    0.907463
    39  C    0.624767
    40  C    1.377586
    41  C    0.875011
    42  C    0.461406
    43  O   -1.461781
    44  O   -0.913941
    45  C    1.079783
    46  H   -0.122988
    47  H   -0.377319
    48  H   -0.081791
    49  H   -0.899423
    50  H   -0.398629
    51  H   -0.406790
    52  H   -0.814475
 Sum of Mulliken charges =  -0.00000
 Mulliken charges with hydrogens summed into heavy atoms:
               1
     1  C   -0.184174
     2  C    0.119137
     3  C   -0.388195
     5  C    0.073344
    10  C    0.056656
    13  C    0.244178
    16  C    0.065816
    18  C    0.490799
    23  C   -0.634713
    25  Si   0.772327
    26  C   -0.113580
    30  C   -0.094117
    34  C   -0.256355
    38  B    0.907463
    39  C   -0.274656
    40  C    0.563112
    41  C    0.069592
    42  C    0.461406
    43  O   -1.461781
    44  O   -0.913941
    45  C    0.497685
 Electronic spatial extent (au):  <R**2>=           6682.9887
 Charge=             -0.0000 electrons
 Dipole moment (field-independent basis, Debye):
    X=              0.5583    Y=              0.1321    Z=              1.7032  Tot=              1.7972
 NROrb=    766 NOA=    84 NOB=    84 NVA=   682 NVB=   682

 **** Warning!!: The largest alpha MO coefficient is  0.16585922D+03

    12 initial guesses have been made.
 Iteration     1 Dimension    12 NMult     0 NNew     12
 New state      1 was old state      4
 Iteration     2 Dimension    24 NMult    12 NNew     12
 Iteration     3 Dimension    27 NMult    24 NNew      3
 Iteration     4 Dimension    30 NMult    27 NNew      3
 Iteration     5 Dimension    33 NMult    30 NNew      3
 Iteration     6 Dimension    36 NMult    33 NNew      3
 Iteration     7 Dimension    39 NMult    36 NNew      3
 Iteration     8 Dimension    42 NMult    39 NNew      3
 ***********************************************************************
 Stability analysis using <AA,BB:AA,BB> singles matrix:
 ***********************************************************************
 Ground to excited state transition densities written to RWF  633

 Eigenvectors of the stability matrix:
 
 Excited state symmetry could not be determined.
 Eigenvector   1:      Singlet-?Sym  Eigenvalue= 0.2083770  <S**2>=0.000
      84 -> 85         0.39675
      84 -> 86        -0.27623
      84 -> 87        -0.26370
      84 -> 88         0.18502
      84 -> 89         0.13232
      84 -> 90        -0.15901
      84 ->102        -0.13001
      84 ->110        -0.10059
 The wavefunction is stable under the perturbations considered.
 The wavefunction is already stable.

 **********************************************************************

            Population analysis using the SCF Density.

 **********************************************************************

 Alpha  occ. eigenvalues --  -68.75430 -20.61097 -20.58915 -11.36714 -11.29977
 Alpha  occ. eigenvalues --  -11.23930 -11.22583 -11.22075 -11.22065 -11.22016
 Alpha  occ. eigenvalues --  -11.21942 -11.21834 -11.21680 -11.21614 -11.21544
 Alpha  occ. eigenvalues --  -11.19741 -11.19652 -11.19477 -11.18970 -11.18055
 Alpha  occ. eigenvalues --   -7.61331  -6.10093  -4.20724  -4.20711  -4.20705
 Alpha  occ. eigenvalues --   -1.46608  -1.38271  -1.11482  -1.08511  -1.04766
 Alpha  occ. eigenvalues --   -1.04308  -1.00561  -0.97380  -0.96500  -0.94703
 Alpha  occ. eigenvalues --   -0.91864  -0.91560  -0.91266  -0.88072  -0.82643
 Alpha  occ. eigenvalues --   -0.79761  -0.79299  -0.76595  -0.72688  -0.71701
 Alpha  occ. eigenvalues --   -0.69935  -0.68221  -0.66020  -0.64210  -0.63471
 Alpha  occ. eigenvalues --   -0.62180  -0.60691  -0.59911  -0.59166  -0.58547
 Alpha  occ. eigenvalues --   -0.57669  -0.57444  -0.56986  -0.56098  -0.55787
 Alpha  occ. eigenvalues --   -0.55434  -0.54660  -0.54248  -0.53151  -0.52969
 Alpha  occ. eigenvalues --   -0.52085  -0.51915  -0.51084  -0.50160  -0.49541
 Alpha  occ. eigenvalues --   -0.48960  -0.48377  -0.47501  -0.46590  -0.45706
 Alpha  occ. eigenvalues --   -0.44073  -0.42774  -0.42706  -0.42560  -0.41446
 Alpha  occ. eigenvalues --   -0.40978  -0.40431  -0.37703  -0.29592
 Alpha virt. eigenvalues --    0.02825   0.03368   0.03618   0.03811   0.04639
 Alpha virt. eigenvalues --    0.04719   0.05036   0.05203   0.05345   0.06270
 Alpha virt. eigenvalues --    0.06479   0.06738   0.06809   0.07072   0.07280
 Alpha virt. eigenvalues --    0.07585   0.08294   0.08588   0.08801   0.09095
 Alpha virt. eigenvalues --    0.09417   0.09542   0.09886   0.10039   0.10400
 Alpha virt. eigenvalues --    0.10935   0.11093   0.11477   0.11804   0.12050
 Alpha virt. eigenvalues --    0.12403   0.12674   0.12863   0.13016   0.13154
 Alpha virt. eigenvalues --    0.13658   0.13719   0.14500   0.14669   0.14695
 Alpha virt. eigenvalues --    0.15062   0.15288   0.15488   0.15664   0.16245
 Alpha virt. eigenvalues --    0.16397   0.16740   0.16970   0.17282   0.17397
 Alpha virt. eigenvalues --    0.17862   0.17929   0.18065   0.18140   0.18613
 Alpha virt. eigenvalues --    0.18860   0.19041   0.19290   0.19533   0.19782
 Alpha virt. eigenvalues --    0.20134   0.20312   0.20416   0.20476   0.20665
 Alpha virt. eigenvalues --    0.21022   0.21205   0.21520   0.22103   0.22195
 Alpha virt. eigenvalues --    0.22287   0.22506   0.22670   0.22885   0.23550
 Alpha virt. eigenvalues --    0.23609   0.23863   0.24011   0.24448   0.24560
 Alpha virt. eigenvalues --    0.24727   0.25129   0.25177   0.25560   0.25694
 Alpha virt. eigenvalues --    0.25959   0.26087   0.26442   0.26637   0.26859
 Alpha virt. eigenvalues --    0.27144   0.27349   0.27514   0.28444   0.28831
 Alpha virt. eigenvalues --    0.29087   0.29223   0.29373   0.30147   0.30345
 Alpha virt. eigenvalues --    0.30450   0.30716   0.31129   0.31308   0.31623
 Alpha virt. eigenvalues --    0.31983   0.32290   0.32797   0.33252   0.33585
 Alpha virt. eigenvalues --    0.34054   0.34249   0.34541   0.34740   0.35233
 Alpha virt. eigenvalues --    0.35385   0.36146   0.36403   0.36642   0.36982
 Alpha virt. eigenvalues --    0.37610   0.37744   0.37964   0.38343   0.38507
 Alpha virt. eigenvalues --    0.38830   0.39067   0.39188   0.39712   0.40009
 Alpha virt. eigenvalues --    0.40444   0.40693   0.40965   0.41183   0.41443
 Alpha virt. eigenvalues --    0.41685   0.41759   0.42194   0.42503   0.43037
 Alpha virt. eigenvalues --    0.43243   0.43625   0.43995   0.44214   0.44698
 Alpha virt. eigenvalues --    0.45008   0.45385   0.45684   0.45876   0.46145
 Alpha virt. eigenvalues --    0.46489   0.47059   0.47120   0.47470   0.47742
 Alpha virt. eigenvalues --    0.47921   0.48177   0.48523   0.48777   0.49005
 Alpha virt. eigenvalues --    0.49200   0.49641   0.49734   0.49957   0.50282
 Alpha virt. eigenvalues --    0.50849   0.51333   0.51628   0.51752   0.52049
 Alpha virt. eigenvalues --    0.52280   0.52538   0.52719   0.53002   0.53426
 Alpha virt. eigenvalues --    0.53707   0.53822   0.53982   0.54260   0.54326
 Alpha virt. eigenvalues --    0.54768   0.55028   0.55803   0.55922   0.56227
 Alpha virt. eigenvalues --    0.56511   0.56639   0.57142   0.57233   0.57674
 Alpha virt. eigenvalues --    0.57993   0.58667   0.58676   0.58984   0.59443
 Alpha virt. eigenvalues --    0.59839   0.60097   0.60190   0.60340   0.60735
 Alpha virt. eigenvalues --    0.61287   0.61449   0.61839   0.62371   0.63021
 Alpha virt. eigenvalues --    0.63272   0.63276   0.63590   0.63901   0.64004
 Alpha virt. eigenvalues --    0.64145   0.64537   0.64915   0.65259   0.65537
 Alpha virt. eigenvalues --    0.65952   0.66236   0.66549   0.66810   0.67308
 Alpha virt. eigenvalues --    0.67641   0.67923   0.68324   0.68606   0.68911
 Alpha virt. eigenvalues --    0.69088   0.69302   0.69518   0.69773   0.70581
 Alpha virt. eigenvalues --    0.70905   0.71243   0.71513   0.71708   0.72295
 Alpha virt. eigenvalues --    0.72673   0.72826   0.72916   0.73053   0.73424
 Alpha virt. eigenvalues --    0.73748   0.73961   0.74031   0.74168   0.74464
 Alpha virt. eigenvalues --    0.75161   0.75336   0.75830   0.76220   0.76468
 Alpha virt. eigenvalues --    0.76601   0.76902   0.77231   0.77385   0.77861
 Alpha virt. eigenvalues --    0.78495   0.78554   0.79084   0.79169   0.79420
 Alpha virt. eigenvalues --    0.80005   0.80214   0.80702   0.80921   0.81040
 Alpha virt. eigenvalues --    0.81391   0.81712   0.82115   0.82334   0.82988
 Alpha virt. eigenvalues --    0.83108   0.83621   0.83665   0.84197   0.84452
 Alpha virt. eigenvalues --    0.85044   0.85150   0.85772   0.86049   0.86484
 Alpha virt. eigenvalues --    0.86894   0.87139   0.87580   0.87993   0.88164
 Alpha virt. eigenvalues --    0.88435   0.88575   0.88947   0.89024   0.89786
 Alpha virt. eigenvalues --    0.89904   0.90575   0.91028   0.91218   0.91290
 Alpha virt. eigenvalues --    0.91851   0.92040   0.92373   0.92724   0.92935
 Alpha virt. eigenvalues --    0.93360   0.93563   0.93900   0.94004   0.94304
 Alpha virt. eigenvalues --    0.95001   0.95490   0.95965   0.96184   0.96388
 Alpha virt. eigenvalues --    0.96979   0.97239   0.97539   0.97942   0.98318
 Alpha virt. eigenvalues --    0.98746   0.99021   0.99381   0.99838   1.00014
 Alpha virt. eigenvalues --    1.00530   1.00615   1.01067   1.01353   1.01878
 Alpha virt. eigenvalues --    1.02306   1.02760   1.02909   1.03463   1.04035
 Alpha virt. eigenvalues --    1.04407   1.04743   1.05307   1.05928   1.06044
 Alpha virt. eigenvalues --    1.06768   1.06908   1.07953   1.08259   1.08557
 Alpha virt. eigenvalues --    1.09158   1.09769   1.10181   1.10625   1.11410
 Alpha virt. eigenvalues --    1.11876   1.12474   1.12915   1.13948   1.14317
 Alpha virt. eigenvalues --    1.14677   1.15105   1.15409   1.16422   1.16557
 Alpha virt. eigenvalues --    1.17262   1.17611   1.18012   1.18911   1.19334
 Alpha virt. eigenvalues --    1.20124   1.20271   1.21015   1.22214   1.22535
 Alpha virt. eigenvalues --    1.22756   1.23436   1.23770   1.25035   1.25632
 Alpha virt. eigenvalues --    1.26189   1.26757   1.27533   1.28519   1.28929
 Alpha virt. eigenvalues --    1.29709   1.30630   1.31700   1.32290   1.32509
 Alpha virt. eigenvalues --    1.33468   1.33658   1.34222   1.35181   1.35548
 Alpha virt. eigenvalues --    1.36362   1.37004   1.38150   1.38795   1.39629
 Alpha virt. eigenvalues --    1.40260   1.40826   1.41683   1.42299   1.43456
 Alpha virt. eigenvalues --    1.43775   1.44124   1.44810   1.45940   1.46357
 Alpha virt. eigenvalues --    1.46929   1.47980   1.48258   1.48831   1.49460
 Alpha virt. eigenvalues --    1.51026   1.51899   1.52611   1.53147   1.54140
 Alpha virt. eigenvalues --    1.54767   1.55467   1.56366   1.56812   1.57448
 Alpha virt. eigenvalues --    1.58028   1.58477   1.60060   1.61180   1.61843
 Alpha virt. eigenvalues --    1.62180   1.63394   1.63676   1.65081   1.65843
 Alpha virt. eigenvalues --    1.66203   1.67126   1.67246   1.68552   1.68995
 Alpha virt. eigenvalues --    1.69664   1.69883   1.70027   1.70482   1.71475
 Alpha virt. eigenvalues --    1.71570   1.72709   1.73335   1.74202   1.74848
 Alpha virt. eigenvalues --    1.75710   1.76706   1.77260   1.78029   1.79076
 Alpha virt. eigenvalues --    1.79483   1.80169   1.80687   1.81261   1.81480
 Alpha virt. eigenvalues --    1.82352   1.82841   1.84069   1.85018   1.85449
 Alpha virt. eigenvalues --    1.86079   1.86821   1.87311   1.88048   1.89295
 Alpha virt. eigenvalues --    1.89617   1.90097   1.90703   1.91335   1.92239
 Alpha virt. eigenvalues --    1.92661   1.93091   1.93440   1.93900   1.94258
 Alpha virt. eigenvalues --    1.95143   1.95761   1.96620   1.97250   1.97963
 Alpha virt. eigenvalues --    1.98708   1.98775   1.99984   2.00307   2.01157
 Alpha virt. eigenvalues --    2.01354   2.02015   2.02841   2.03322   2.03984
 Alpha virt. eigenvalues --    2.04795   2.05265   2.06230   2.06686   2.07222
 Alpha virt. eigenvalues --    2.07785   2.08436   2.08535   2.09971   2.10308
 Alpha virt. eigenvalues --    2.10787   2.11924   2.12339   2.12862   2.13032
 Alpha virt. eigenvalues --    2.14052   2.14288   2.14451   2.14872   2.15982
 Alpha virt. eigenvalues --    2.16555   2.16779   2.18177   2.18285   2.19043
 Alpha virt. eigenvalues --    2.20593   2.20696   2.21012   2.21712   2.21939
 Alpha virt. eigenvalues --    2.22689   2.23102   2.23571   2.24228   2.24297
 Alpha virt. eigenvalues --    2.24829   2.25371   2.25802   2.26312   2.27178
 Alpha virt. eigenvalues --    2.27947   2.28052   2.28758   2.28980   2.29445
 Alpha virt. eigenvalues --    2.29710   2.30414   2.31783   2.32228   2.32609
 Alpha virt. eigenvalues --    2.32826   2.33226   2.33727   2.34504   2.35188
 Alpha virt. eigenvalues --    2.35450   2.36119   2.36681   2.37240   2.37655
 Alpha virt. eigenvalues --    2.38025   2.38408   2.38905   2.39703   2.40126
 Alpha virt. eigenvalues --    2.40427   2.41391   2.41827   2.42419   2.42834
 Alpha virt. eigenvalues --    2.43796   2.43893   2.44696   2.44956   2.45670
 Alpha virt. eigenvalues --    2.46627   2.47778   2.48796   2.49431   2.50593
 Alpha virt. eigenvalues --    2.51212   2.51376   2.52512   2.53721   2.54434
 Alpha virt. eigenvalues --    2.55942   2.56347   2.57213   2.58126   2.58385
 Alpha virt. eigenvalues --    2.59498   2.60335   2.60566   2.60854   2.61508
 Alpha virt. eigenvalues --    2.62866   2.63433   2.63761   2.64468   2.64878
 Alpha virt. eigenvalues --    2.65386   2.66199   2.67273   2.67936   2.68293
 Alpha virt. eigenvalues --    2.68850   2.69145   2.70286   2.70903   2.72037
 Alpha virt. eigenvalues --    2.72673   2.73208   2.74496   2.74845   2.74987
 Alpha virt. eigenvalues --    2.75348   2.77063   2.78046   2.79325   2.79472
 Alpha virt. eigenvalues --    2.79971   2.81023   2.82341   2.83202   2.84495
 Alpha virt. eigenvalues --    2.84815   2.85879   2.87410   2.90615   2.90923
 Alpha virt. eigenvalues --    2.92046   2.93097   2.93788   2.94667   2.96164
 Alpha virt. eigenvalues --    2.97403   2.97988   2.98761   2.99341   2.99997
 Alpha virt. eigenvalues --    3.00965   3.02012   3.03464   3.03832   3.04760
 Alpha virt. eigenvalues --    3.05470   3.06502   3.08900   3.10682   3.11051
 Alpha virt. eigenvalues --    3.13169   3.14011   3.15679   3.16274   3.17388
 Alpha virt. eigenvalues --    3.17731   3.18119   3.20016   3.21206   3.21436
 Alpha virt. eigenvalues --    3.24148   3.26120   3.27441   3.28844   3.31172
 Alpha virt. eigenvalues --    3.33696   3.34348   3.36157   3.39240   3.40874
 Alpha virt. eigenvalues --    3.42513   3.44183   3.45692   3.50245   3.55133
 Alpha virt. eigenvalues --    3.58898   3.71623   3.74218   3.80171   3.86492
 Alpha virt. eigenvalues --    3.89627   3.94215   3.97892   4.01648   4.02488
 Alpha virt. eigenvalues --    4.07604   4.08581   4.13531   4.17236   4.25483
 Alpha virt. eigenvalues --    4.30934   4.36297   4.44004   4.63062   4.71034
 Alpha virt. eigenvalues --    4.90700   5.60462
          Condensed to atoms (all electrons):
 Mulliken charges:
               1
     1  C    0.370972
     2  C    0.496449
     3  C   -0.004394
     4  H   -0.292514
     5  C    0.457489
     6  H   -0.141183
     7  H   -0.242962
     8  H   -0.383801
     9  H   -0.377312
    10  C    0.367545
    11  H   -0.272014
    12  H   -0.038875
    13  C    0.688806
    14  H   -0.192465
    15  H   -0.252163
    16  C    0.470559
    17  H   -0.204882
    18  C    0.735637
    19  H    0.083398
    20  H   -0.328236
    21  H   -0.199861
    22  H   -0.262632
    23  C   -0.185237
    24  H   -0.449475
    25  Si   0.772327
    26  C    1.164217
    27  H   -0.313829
    28  H   -0.473566
    29  H   -0.490402
    30  C    0.910115
    31  H   -0.420118
    32  H   -0.301689
    33  H   -0.282425
    34  C    0.906934
    35  H   -0.341421
    36  H   -0.536872
    37  H   -0.284997
    38  B    0.907463
    39  C    0.624767
    40  C    1.377586
    41  C    0.875011
    42  C    0.461406
    43  O   -1.461781
    44  O   -0.913941
    45  C    1.079783
    46  H   -0.122988
    47  H   -0.377319
    48  H   -0.081791
    49  H   -0.899423
    50  H   -0.398629
    51  H   -0.406790
    52  H   -0.814475
 Sum of Mulliken charges =  -0.00000
 Mulliken charges with hydrogens summed into heavy atoms:
               1
     1  C   -0.184174
     2  C    0.119137
     3  C   -0.388195
     5  C    0.073344
    10  C    0.056656
    13  C    0.244178
    16  C    0.065816
    18  C    0.490799
    23  C   -0.634713
    25  Si   0.772327
    26  C   -0.113580
    30  C   -0.094117
    34  C   -0.256355
    38  B    0.907463
    39  C   -0.274656
    40  C    0.563112
    41  C    0.069592
    42  C    0.461406
    43  O   -1.461781
    44  O   -0.913941
    45  C    0.497685
 Electronic spatial extent (au):  <R**2>=           6682.9887
 Charge=             -0.0000 electrons
 Dipole moment (field-independent basis, Debye):
    X=              0.5583    Y=              0.1321    Z=              1.7032  Tot=              1.7972
 Unable to Open any file for archive entry.
 1\1\GINC-SE401\Stability\RHF\Aug-CC-pVDZ\C17H31B1O2Si1\OHZDE\20-Sep-20
 24\0\\#t hf aug-cc-pvdz symm=none int=(grid=ultrafine) guess=(read,tch
 eck) stable=(opt,rrhf)\\title\\0,1\C,0,0.648503,2.595494,0.372259\C,0,
 0.454733,1.219434,1.068882\C,0,-2.159439,1.240975,-0.618622\H,0,1.7187
 01,2.748165,0.211483\C,0,-0.587409,1.260166,2.206605\H,0,-0.789021,0.2
 41115,2.553838\H,0,-0.132702,1.779793,3.057222\H,0,-3.019171,1.06136,-
 1.270914\H,0,1.406093,0.968573,1.54534\C,0,-1.905059,1.960333,1.892452
 \H,0,-2.501449,1.990172,2.809796\H,0,-1.706463,3.006318,1.643693\C,0,-
 2.762627,1.33771,0.795255\H,0,-3.08602,0.343839,1.117836\H,0,-3.678092
 ,1.934329,0.719343\C,0,-1.551373,2.587076,-1.090924\H,0,-1.809469,2.72
 5046,-2.145416\C,0,-0.029933,2.759765,-0.994549\H,0,0.442034,2.064304,
 -1.698277\H,0,0.21493,3.755587,-1.376642\H,0,-2.046966,3.406626,-0.559
 943\H,0,0.328952,3.397086,1.04554\C,0,-1.195458,0.052635,-0.817483\H,0
 ,-0.918235,0.003996,-1.881313\Si,0,-1.954151,-1.68326,-0.572623\C,0,-1
 .750477,-2.306053,1.191797\H,0,-2.286367,-1.692933,1.919081\H,0,-2.132
 988,-3.326995,1.276746\H,0,-0.695357,-2.326139,1.477893\C,0,-1.069646,
 -2.87592,-1.719973\H,0,-1.458064,-3.891326,-1.604095\H,0,-1.198578,-2.
 587678,-2.766603\H,0,0.000584,-2.892467,-1.507731\C,0,-3.779705,-1.656
 215,-1.026194\H,0,-3.924955,-1.310631,-2.05309\H,0,-4.197178,-2.664499
 ,-0.957059\H,0,-4.367167,-1.009628,-0.371503\B,0,0.144835,0.147452,-0.
 038852\C,0,3.509659,0.442686,-1.452258\C,0,3.442753,-0.385547,-0.26202
 5\C,0,4.615921,1.032366,-1.903808\C,0,2.298321,-0.910673,0.191837\O,0,
 1.116196,-0.760062,-0.439259\O,0,2.130331,-1.678153,1.283489\C,0,3.274
 624,-1.979682,2.063038\H,0,3.728165,-1.066364,2.457193\H,0,2.92319,-2.
 599521,2.883905\H,0,4.011743,-2.530668,1.473435\H,0,2.58218,0.573212,-
 2.000302\H,0,5.566339,0.927961,-1.3913\H,0,4.604629,1.636458,-2.801607
 \H,0,4.362124,-0.578293,0.272859\\Version=ES64L-G16RevC.01\HF=-1125.28
 39222\RMSD=3.124e-09\Dipole=0.2196575,0.0519841,0.6700817\Quadrupole=1
 .5753962,-1.6810994,0.1057033,-2.9545759,5.9367558,-3.6021227\PG=Unkno
 wn\\@
 The archive entry for this job was punched.


 LAW OF COMPENSATION:
      NO CALCULATION IS EVER A COMPLETE FAILURE; IT 
      CAN ALWAYS SERVE AS A BAD EXAMPLE.

                                           -- ANON
 Job cpu time:       0 days 13 hours 17 minutes 37.1 seconds.
 Elapsed time:       0 days  0 hours 50 minutes 40.9 seconds.
 File lengths (MBytes):  RWF=   2257 Int=      0 D2E=      0 Chk=     72 Scr=      1
 Normal termination of Gaussian 16 at Fri Sep 20 23:38:53 2024.
 Initial command:
 /arc/software/Gaussian/g16.c01/l1.exe "/tmp/slurm/2341216/Gau-3416157.inp" -scrdir="/tmp/slurm/2341216/"
 Entering Link 1 = /arc/software/Gaussian/g16.c01/l1.exe PID=   3417411.
  
 Copyright (c) 1988-2019, Gaussian, Inc.  All Rights Reserved.
  
 This is part of the Gaussian(R) 16 program.  It is based on
 the Gaussian(R) 09 system (copyright 2009, Gaussian, Inc.),
 the Gaussian(R) 03 system (copyright 2003, Gaussian, Inc.),
 the Gaussian(R) 98 system (copyright 1998, Gaussian, Inc.),
 the Gaussian(R) 94 system (copyright 1995, Gaussian, Inc.),
 the Gaussian 92(TM) system (copyright 1992, Gaussian, Inc.),
 the Gaussian 90(TM) system (copyright 1990, Gaussian, Inc.),
 the Gaussian 88(TM) system (copyright 1988, Gaussian, Inc.),
 the Gaussian 86(TM) system (copyright 1986, Carnegie Mellon
 University), and the Gaussian 82(TM) system (copyright 1983,
 Carnegie Mellon University). Gaussian is a federally registered
 trademark of Gaussian, Inc.
  
 This software contains proprietary and confidential information,
 including trade secrets, belonging to Gaussian, Inc.
  
 This software is provided under written license and may be
 used, copied, transmitted, or stored only in accord with that
 written license.
  
 The following legend is applicable only to US Government
 contracts under FAR:
  
                    RESTRICTED RIGHTS LEGEND
  
 Use, reproduction and disclosure by the US Government is
 subject to restrictions as set forth in subparagraphs (a)
 and (c) of the Commercial Computer Software - Restricted
 Rights clause in FAR 52.227-19.
  
 Gaussian, Inc.
 340 Quinnipiac St., Bldg. 40, Wallingford CT 06492
  
  
 ---------------------------------------------------------------
 Warning -- This program may not be used in any manner that
 competes with the business of Gaussian, Inc. or will provide
 assistance to any competitor of Gaussian, Inc.  The licensee
 of this program is prohibited from giving any competitor of
 Gaussian, Inc. access to this program.  By using this program,
 the user acknowledges that Gaussian, Inc. is engaged in the
 business of creating and licensing software in the field of
 computational chemistry and represents and warrants to the
 licensee that it is not a competitor of Gaussian, Inc. and that
 it will not use this program in any manner prohibited above.
 ---------------------------------------------------------------
  

 Cite this work as:
 Gaussian 16, Revision C.01,
 M. J. Frisch, G. W. Trucks, H. B. Schlegel, G. E. Scuseria, 
 M. A. Robb, J. R. Cheeseman, G. Scalmani, V. Barone, 
 G. A. Petersson, H. Nakatsuji, X. Li, M. Caricato, A. V. Marenich, 
 J. Bloino, B. G. Janesko, R. Gomperts, B. Mennucci, H. P. Hratchian, 
 J. V. Ortiz, A. F. Izmaylov, J. L. Sonnenberg, D. Williams-Young, 
 F. Ding, F. Lipparini, F. Egidi, J. Goings, B. Peng, A. Petrone, 
 T. Henderson, D. Ranasinghe, V. G. Zakrzewski, J. Gao, N. Rega, 
 G. Zheng, W. Liang, M. Hada, M. Ehara, K. Toyota, R. Fukuda, 
 J. Hasegawa, M. Ishida, T. Nakajima, Y. Honda, O. Kitao, H. Nakai, 
 T. Vreven, K. Throssell, J. A. Montgomery, Jr., J. E. Peralta, 
 F. Ogliaro, M. J. Bearpark, J. J. Heyd, E. N. Brothers, K. N. Kudin, 
 V. N. Staroverov, T. A. Keith, R. Kobayashi, J. Normand, 
 K. Raghavachari, A. P. Rendell, J. C. Burant, S. S. Iyengar, 
 J. Tomasi, M. Cossi, J. M. Millam, M. Klene, C. Adamo, R. Cammi, 
 J. W. Ochterski, R. L. Martin, K. Morokuma, O. Farkas, 
 J. B. Foresman, and D. J. Fox, Gaussian, Inc., Wallingford CT, 2019.
 
 ******************************************
 Gaussian 16:  ES64L-G16RevC.01  3-Jul-2019
                20-Sep-2024 
 ******************************************
 %nprocs=16
 Will use up to   16 processors via shared memory.
 %mem=30GB
 %chk=06_24P.chk
 ----------------------------------------------------------------------
 #t symm=none mp2 aug-cc-pvdz geom=allcheck guess=(read,tcheck) int=(gr
 id=ultrafine)
 ----------------------------------------------------------------------
 Structure from the checkpoint file:  "06_24P.chk"
 -----
 title
 -----
 Charge =  0 Multiplicity = 1
 Z-Matrix found in chk file.
 C,0,0.648503,2.595494,0.372259
 C,0,0.454733,1.219434,1.068882
 C,0,-2.159439,1.240975,-0.618622
 H,0,1.718701,2.748165,0.211483
 C,0,-0.587409,1.260166,2.206605
 H,0,-0.789021,0.241115,2.553838
 H,0,-0.132702,1.779793,3.057222
 H,0,-3.019171,1.06136,-1.270914
 H,0,1.406093,0.968573,1.54534
 C,0,-1.905059,1.960333,1.892452
 H,0,-2.501449,1.990172,2.809796
 H,0,-1.706463,3.006318,1.643693
 C,0,-2.762627,1.33771,0.795255
 H,0,-3.08602,0.343839,1.117836
 H,0,-3.678092,1.934329,0.719343
 C,0,-1.551373,2.587076,-1.090924
 H,0,-1.809469,2.725046,-2.145416
 C,0,-0.029933,2.759765,-0.994549
 H,0,0.442034,2.064304,-1.698277
 H,0,0.21493,3.755587,-1.376642
 H,0,-2.046966,3.406626,-0.559943
 H,0,0.328952,3.397086,1.04554
 C,0,-1.195458,0.052635,-0.817483
 H,0,-0.918235,0.003996,-1.881313
 Si,0,-1.954151,-1.68326,-0.572623
 C,0,-1.750477,-2.306053,1.191797
 H,0,-2.286367,-1.692933,1.919081
 H,0,-2.132988,-3.326995,1.276746
 H,0,-0.695357,-2.326139,1.477893
 C,0,-1.069646,-2.87592,-1.719973
 H,0,-1.458064,-3.891326,-1.604095
 H,0,-1.198578,-2.587678,-2.766603
 H,0,0.000584,-2.892467,-1.507731
 C,0,-3.779705,-1.656215,-1.026194
 H,0,-3.924955,-1.310631,-2.05309
 H,0,-4.197178,-2.664499,-0.957059
 H,0,-4.367167,-1.009628,-0.371503
 B,0,0.144835,0.147452,-0.038852
 C,0,3.509659,0.442686,-1.452258
 C,0,3.442753,-0.385547,-0.262025
 C,0,4.615921,1.032366,-1.903808
 C,0,2.298321,-0.910673,0.191837
 O,0,1.116196,-0.760062,-0.439259
 O,0,2.130331,-1.678153,1.283489
 C,0,3.274624,-1.979682,2.063038
 H,0,3.728165,-1.066364,2.457193
 H,0,2.92319,-2.599521,2.883905
 H,0,4.011743,-2.530668,1.473435
 H,0,2.58218,0.573212,-2.000302
 H,0,5.566339,0.927961,-1.3913
 H,0,4.604629,1.636458,-2.801607
 H,0,4.362124,-0.578293,0.272859
 Recover connectivity data from disk.
 Symmetry turned off by external request.
                          Input orientation:                          
 ---------------------------------------------------------------------
 Center     Atomic      Atomic             Coordinates (Angstroms)
 Number     Number       Type             X           Y           Z
 ---------------------------------------------------------------------
      1          6           0        0.648503    2.595494    0.372259
      2          6           0        0.454733    1.219434    1.068882
      3          6           0       -2.159439    1.240975   -0.618622
      4          1           0        1.718701    2.748165    0.211483
      5          6           0       -0.587409    1.260166    2.206605
      6          1           0       -0.789021    0.241115    2.553838
      7          1           0       -0.132702    1.779793    3.057222
      8          1           0       -3.019171    1.061360   -1.270914
      9          1           0        1.406093    0.968573    1.545340
     10          6           0       -1.905059    1.960333    1.892452
     11          1           0       -2.501449    1.990172    2.809796
     12          1           0       -1.706463    3.006318    1.643693
     13          6           0       -2.762627    1.337710    0.795255
     14          1           0       -3.086020    0.343839    1.117836
     15          1           0       -3.678092    1.934329    0.719343
     16          6           0       -1.551373    2.587076   -1.090924
     17          1           0       -1.809469    2.725046   -2.145416
     18          6           0       -0.029933    2.759765   -0.994549
     19          1           0        0.442034    2.064304   -1.698277
     20          1           0        0.214930    3.755587   -1.376642
     21          1           0       -2.046966    3.406626   -0.559943
     22          1           0        0.328952    3.397086    1.045540
     23          6           0       -1.195458    0.052635   -0.817483
     24          1           0       -0.918235    0.003996   -1.881313
     25         14           0       -1.954151   -1.683260   -0.572623
     26          6           0       -1.750477   -2.306053    1.191797
     27          1           0       -2.286367   -1.692933    1.919081
     28          1           0       -2.132988   -3.326995    1.276746
     29          1           0       -0.695357   -2.326139    1.477893
     30          6           0       -1.069646   -2.875920   -1.719973
     31          1           0       -1.458064   -3.891326   -1.604095
     32          1           0       -1.198578   -2.587678   -2.766603
     33          1           0        0.000584   -2.892467   -1.507731
     34          6           0       -3.779705   -1.656215   -1.026194
     35          1           0       -3.924955   -1.310631   -2.053090
     36          1           0       -4.197178   -2.664499   -0.957059
     37          1           0       -4.367167   -1.009628   -0.371503
     38          5           0        0.144835    0.147452   -0.038852
     39          6           0        3.509659    0.442686   -1.452258
     40          6           0        3.442753   -0.385547   -0.262025
     41          6           0        4.615921    1.032366   -1.903808
     42          6           0        2.298321   -0.910673    0.191837
     43          8           0        1.116196   -0.760062   -0.439259
     44          8           0        2.130331   -1.678153    1.283489
     45          6           0        3.274624   -1.979682    2.063038
     46          1           0        3.728165   -1.066364    2.457193
     47          1           0        2.923190   -2.599521    2.883905
     48          1           0        4.011743   -2.530668    1.473435
     49          1           0        2.582180    0.573212   -2.000302
     50          1           0        5.566339    0.927961   -1.391300
     51          1           0        4.604629    1.636458   -2.801607
     52          1           0        4.362124   -0.578293    0.272859
 ---------------------------------------------------------------------
 Rotational constants (GHZ):           0.3539119           0.2362864           0.1955331
   766 basis functions,  1282 primitive gaussians,   808 cartesian basis functions
    84 alpha electrons       84 beta electrons
       nuclear repulsion energy      2019.0685306180 Hartrees.
 NAtoms=   52 NActive=   52 NUniq=   52 SFac= 1.00D+00 NAtFMM=   60 NAOKFM=F Big=F
 Initial guess from the checkpoint file:  "06_24P.chk"
 B after Tr=     0.000000    0.000000    0.000000
         Rot=    1.000000    0.000000    0.000000    0.000000 Ang=   0.00 deg.
 SCF Done:  E(RHF) =  -1125.28392216     A.U. after    2 cycles
            NFock=  2  Conv=0.11D-08     -V/T= 2.0003
 ExpMin= 2.38D-02 ExpMax= 7.89D+04 ExpMxC= 2.69D+03 IAcc=3 IRadAn=         5 AccDes= 0.00D+00
 HarFok:  IExCor=  205 AccDes= 0.00D+00 IRadAn=         5 IDoV=-2 UseB2=F ITyADJ=14
 ICtDFT= 12500011 ScaDFX=  1.000000  1.000000  1.000000  1.000000
 GSVD:  LWork=        -825 too small for GESVD, short by        3500 words or        3500 for optimal perf.
 NROrb=    741 NOA=    59 NOB=    59 NVA=   682 NVB=   682

 **** Warning!!: The largest alpha MO coefficient is  0.16585901D+03

 Estimated scratch disk usage= 40792594562 words.
 Actual    scratch disk usage= 36867431042 words.
 ANorm=    0.1434865300D+01
 E2 =    -0.3071512064D+01 EUMP2 =    -0.11283554342258D+04

 **********************************************************************

            Population analysis using the SCF Density.

 **********************************************************************

 Alpha  occ. eigenvalues --  -68.75430 -20.61097 -20.58915 -11.36714 -11.29977
 Alpha  occ. eigenvalues --  -11.23930 -11.22583 -11.22075 -11.22065 -11.22016
 Alpha  occ. eigenvalues --  -11.21942 -11.21834 -11.21680 -11.21614 -11.21544
 Alpha  occ. eigenvalues --  -11.19741 -11.19652 -11.19477 -11.18970 -11.18055
 Alpha  occ. eigenvalues --   -7.61331  -6.10093  -4.20724  -4.20711  -4.20705
 Alpha  occ. eigenvalues --   -1.46608  -1.38271  -1.11482  -1.08511  -1.04766
 Alpha  occ. eigenvalues --   -1.04308  -1.00561  -0.97380  -0.96500  -0.94703
 Alpha  occ. eigenvalues --   -0.91864  -0.91560  -0.91266  -0.88072  -0.82643
 Alpha  occ. eigenvalues --   -0.79761  -0.79299  -0.76595  -0.72688  -0.71701
 Alpha  occ. eigenvalues --   -0.69935  -0.68221  -0.66020  -0.64210  -0.63471
 Alpha  occ. eigenvalues --   -0.62180  -0.60691  -0.59911  -0.59166  -0.58547
 Alpha  occ. eigenvalues --   -0.57669  -0.57444  -0.56986  -0.56098  -0.55787
 Alpha  occ. eigenvalues --   -0.55434  -0.54660  -0.54248  -0.53151  -0.52969
 Alpha  occ. eigenvalues --   -0.52085  -0.51915  -0.51084  -0.50160  -0.49541
 Alpha  occ. eigenvalues --   -0.48960  -0.48377  -0.47501  -0.46590  -0.45706
 Alpha  occ. eigenvalues --   -0.44073  -0.42774  -0.42706  -0.42560  -0.41446
 Alpha  occ. eigenvalues --   -0.40978  -0.40431  -0.37703  -0.29592
 Alpha virt. eigenvalues --    0.02825   0.03368   0.03618   0.03811   0.04639
 Alpha virt. eigenvalues --    0.04719   0.05036   0.05203   0.05345   0.06270
 Alpha virt. eigenvalues --    0.06479   0.06738   0.06809   0.07072   0.07280
 Alpha virt. eigenvalues --    0.07585   0.08294   0.08588   0.08801   0.09095
 Alpha virt. eigenvalues --    0.09417   0.09542   0.09886   0.10039   0.10400
 Alpha virt. eigenvalues --    0.10935   0.11093   0.11477   0.11804   0.12050
 Alpha virt. eigenvalues --    0.12403   0.12674   0.12863   0.13016   0.13154
 Alpha virt. eigenvalues --    0.13658   0.13719   0.14500   0.14669   0.14695
 Alpha virt. eigenvalues --    0.15062   0.15288   0.15488   0.15664   0.16245
 Alpha virt. eigenvalues --    0.16397   0.16740   0.16970   0.17282   0.17397
 Alpha virt. eigenvalues --    0.17862   0.17929   0.18065   0.18140   0.18613
 Alpha virt. eigenvalues --    0.18860   0.19041   0.19290   0.19533   0.19782
 Alpha virt. eigenvalues --    0.20134   0.20312   0.20416   0.20476   0.20665
 Alpha virt. eigenvalues --    0.21022   0.21205   0.21520   0.22103   0.22195
 Alpha virt. eigenvalues --    0.22287   0.22506   0.22670   0.22885   0.23550
 Alpha virt. eigenvalues --    0.23609   0.23863   0.24011   0.24448   0.24560
 Alpha virt. eigenvalues --    0.24727   0.25129   0.25177   0.25560   0.25694
 Alpha virt. eigenvalues --    0.25959   0.26087   0.26442   0.26637   0.26859
 Alpha virt. eigenvalues --    0.27144   0.27349   0.27514   0.28444   0.28831
 Alpha virt. eigenvalues --    0.29087   0.29223   0.29373   0.30147   0.30345
 Alpha virt. eigenvalues --    0.30450   0.30716   0.31129   0.31308   0.31623
 Alpha virt. eigenvalues --    0.31983   0.32290   0.32797   0.33252   0.33585
 Alpha virt. eigenvalues --    0.34054   0.34249   0.34541   0.34740   0.35233
 Alpha virt. eigenvalues --    0.35385   0.36146   0.36403   0.36642   0.36982
 Alpha virt. eigenvalues --    0.37610   0.37744   0.37964   0.38343   0.38507
 Alpha virt. eigenvalues --    0.38830   0.39067   0.39188   0.39712   0.40009
 Alpha virt. eigenvalues --    0.40444   0.40693   0.40965   0.41183   0.41443
 Alpha virt. eigenvalues --    0.41685   0.41759   0.42194   0.42503   0.43037
 Alpha virt. eigenvalues --    0.43243   0.43625   0.43995   0.44214   0.44698
 Alpha virt. eigenvalues --    0.45008   0.45385   0.45684   0.45876   0.46145
 Alpha virt. eigenvalues --    0.46489   0.47059   0.47120   0.47470   0.47742
 Alpha virt. eigenvalues --    0.47921   0.48177   0.48523   0.48777   0.49005
 Alpha virt. eigenvalues --    0.49200   0.49641   0.49734   0.49957   0.50282
 Alpha virt. eigenvalues --    0.50849   0.51333   0.51628   0.51752   0.52049
 Alpha virt. eigenvalues --    0.52280   0.52538   0.52719   0.53002   0.53426
 Alpha virt. eigenvalues --    0.53707   0.53822   0.53982   0.54260   0.54326
 Alpha virt. eigenvalues --    0.54768   0.55028   0.55803   0.55922   0.56227
 Alpha virt. eigenvalues --    0.56511   0.56639   0.57142   0.57233   0.57674
 Alpha virt. eigenvalues --    0.57993   0.58667   0.58676   0.58984   0.59443
 Alpha virt. eigenvalues --    0.59839   0.60097   0.60190   0.60340   0.60735
 Alpha virt. eigenvalues --    0.61287   0.61449   0.61839   0.62371   0.63021
 Alpha virt. eigenvalues --    0.63272   0.63276   0.63590   0.63901   0.64004
 Alpha virt. eigenvalues --    0.64145   0.64537   0.64915   0.65259   0.65537
 Alpha virt. eigenvalues --    0.65952   0.66236   0.66549   0.66810   0.67308
 Alpha virt. eigenvalues --    0.67641   0.67923   0.68324   0.68606   0.68911
 Alpha virt. eigenvalues --    0.69088   0.69302   0.69518   0.69773   0.70581
 Alpha virt. eigenvalues --    0.70905   0.71243   0.71513   0.71708   0.72295
 Alpha virt. eigenvalues --    0.72673   0.72826   0.72916   0.73053   0.73424
 Alpha virt. eigenvalues --    0.73748   0.73961   0.74031   0.74168   0.74464
 Alpha virt. eigenvalues --    0.75161   0.75336   0.75830   0.76220   0.76468
 Alpha virt. eigenvalues --    0.76601   0.76902   0.77231   0.77385   0.77861
 Alpha virt. eigenvalues --    0.78495   0.78554   0.79084   0.79169   0.79420
 Alpha virt. eigenvalues --    0.80005   0.80214   0.80702   0.80921   0.81040
 Alpha virt. eigenvalues --    0.81391   0.81712   0.82115   0.82334   0.82988
 Alpha virt. eigenvalues --    0.83108   0.83621   0.83665   0.84197   0.84452
 Alpha virt. eigenvalues --    0.85044   0.85150   0.85772   0.86049   0.86484
 Alpha virt. eigenvalues --    0.86894   0.87139   0.87580   0.87993   0.88164
 Alpha virt. eigenvalues --    0.88435   0.88575   0.88947   0.89024   0.89786
 Alpha virt. eigenvalues --    0.89904   0.90575   0.91028   0.91218   0.91290
 Alpha virt. eigenvalues --    0.91851   0.92040   0.92373   0.92724   0.92935
 Alpha virt. eigenvalues --    0.93360   0.93563   0.93900   0.94004   0.94304
 Alpha virt. eigenvalues --    0.95001   0.95490   0.95965   0.96184   0.96388
 Alpha virt. eigenvalues --    0.96979   0.97239   0.97539   0.97942   0.98318
 Alpha virt. eigenvalues --    0.98746   0.99021   0.99381   0.99838   1.00014
 Alpha virt. eigenvalues --    1.00530   1.00615   1.01067   1.01353   1.01878
 Alpha virt. eigenvalues --    1.02306   1.02760   1.02909   1.03463   1.04035
 Alpha virt. eigenvalues --    1.04407   1.04743   1.05307   1.05928   1.06044
 Alpha virt. eigenvalues --    1.06768   1.06908   1.07953   1.08259   1.08557
 Alpha virt. eigenvalues --    1.09158   1.09769   1.10181   1.10625   1.11410
 Alpha virt. eigenvalues --    1.11876   1.12474   1.12915   1.13948   1.14317
 Alpha virt. eigenvalues --    1.14677   1.15105   1.15409   1.16422   1.16557
 Alpha virt. eigenvalues --    1.17262   1.17611   1.18012   1.18911   1.19334
 Alpha virt. eigenvalues --    1.20124   1.20271   1.21016   1.22214   1.22535
 Alpha virt. eigenvalues --    1.22756   1.23436   1.23770   1.25035   1.25632
 Alpha virt. eigenvalues --    1.26189   1.26757   1.27533   1.28519   1.28929
 Alpha virt. eigenvalues --    1.29709   1.30630   1.31700   1.32290   1.32509
 Alpha virt. eigenvalues --    1.33468   1.33658   1.34222   1.35181   1.35548
 Alpha virt. eigenvalues --    1.36362   1.37004   1.38150   1.38795   1.39629
 Alpha virt. eigenvalues --    1.40260   1.40826   1.41683   1.42299   1.43456
 Alpha virt. eigenvalues --    1.43775   1.44124   1.44810   1.45940   1.46357
 Alpha virt. eigenvalues --    1.46929   1.47980   1.48258   1.48831   1.49460
 Alpha virt. eigenvalues --    1.51026   1.51899   1.52611   1.53147   1.54140
 Alpha virt. eigenvalues --    1.54767   1.55467   1.56366   1.56812   1.57448
 Alpha virt. eigenvalues --    1.58028   1.58477   1.60060   1.61180   1.61843
 Alpha virt. eigenvalues --    1.62180   1.63394   1.63676   1.65081   1.65843
 Alpha virt. eigenvalues --    1.66203   1.67126   1.67246   1.68552   1.68995
 Alpha virt. eigenvalues --    1.69664   1.69883   1.70027   1.70482   1.71475
 Alpha virt. eigenvalues --    1.71570   1.72709   1.73335   1.74202   1.74848
 Alpha virt. eigenvalues --    1.75710   1.76706   1.77260   1.78029   1.79076
 Alpha virt. eigenvalues --    1.79483   1.80169   1.80687   1.81261   1.81480
 Alpha virt. eigenvalues --    1.82352   1.82841   1.84069   1.85018   1.85449
 Alpha virt. eigenvalues --    1.86079   1.86821   1.87311   1.88048   1.89295
 Alpha virt. eigenvalues --    1.89617   1.90097   1.90703   1.91335   1.92239
 Alpha virt. eigenvalues --    1.92661   1.93091   1.93440   1.93900   1.94258
 Alpha virt. eigenvalues --    1.95143   1.95761   1.96620   1.97250   1.97963
 Alpha virt. eigenvalues --    1.98708   1.98775   1.99984   2.00307   2.01157
 Alpha virt. eigenvalues --    2.01354   2.02015   2.02841   2.03322   2.03984
 Alpha virt. eigenvalues --    2.04795   2.05265   2.06230   2.06686   2.07222
 Alpha virt. eigenvalues --    2.07785   2.08436   2.08535   2.09971   2.10308
 Alpha virt. eigenvalues --    2.10787   2.11924   2.12339   2.12862   2.13032
 Alpha virt. eigenvalues --    2.14052   2.14288   2.14451   2.14872   2.15982
 Alpha virt. eigenvalues --    2.16555   2.16779   2.18177   2.18285   2.19043
 Alpha virt. eigenvalues --    2.20593   2.20696   2.21012   2.21712   2.21939
 Alpha virt. eigenvalues --    2.22689   2.23102   2.23571   2.24228   2.24297
 Alpha virt. eigenvalues --    2.24829   2.25371   2.25802   2.26312   2.27178
 Alpha virt. eigenvalues --    2.27947   2.28052   2.28758   2.28980   2.29445
 Alpha virt. eigenvalues --    2.29710   2.30414   2.31783   2.32228   2.32609
 Alpha virt. eigenvalues --    2.32826   2.33226   2.33727   2.34504   2.35188
 Alpha virt. eigenvalues --    2.35450   2.36119   2.36681   2.37240   2.37655
 Alpha virt. eigenvalues --    2.38025   2.38408   2.38905   2.39703   2.40126
 Alpha virt. eigenvalues --    2.40427   2.41391   2.41827   2.42419   2.42834
 Alpha virt. eigenvalues --    2.43796   2.43893   2.44696   2.44956   2.45670
 Alpha virt. eigenvalues --    2.46627   2.47778   2.48796   2.49431   2.50593
 Alpha virt. eigenvalues --    2.51212   2.51376   2.52512   2.53721   2.54434
 Alpha virt. eigenvalues --    2.55942   2.56347   2.57213   2.58126   2.58385
 Alpha virt. eigenvalues --    2.59498   2.60335   2.60566   2.60854   2.61508
 Alpha virt. eigenvalues --    2.62866   2.63433   2.63761   2.64468   2.64878
 Alpha virt. eigenvalues --    2.65386   2.66199   2.67273   2.67936   2.68293
 Alpha virt. eigenvalues --    2.68850   2.69145   2.70286   2.70903   2.72037
 Alpha virt. eigenvalues --    2.72673   2.73208   2.74496   2.74845   2.74987
 Alpha virt. eigenvalues --    2.75348   2.77063   2.78046   2.79325   2.79472
 Alpha virt. eigenvalues --    2.79971   2.81023   2.82341   2.83202   2.84495
 Alpha virt. eigenvalues --    2.84815   2.85879   2.87410   2.90615   2.90923
 Alpha virt. eigenvalues --    2.92046   2.93097   2.93788   2.94667   2.96164
 Alpha virt. eigenvalues --    2.97403   2.97988   2.98761   2.99341   2.99997
 Alpha virt. eigenvalues --    3.00965   3.02012   3.03464   3.03832   3.04760
 Alpha virt. eigenvalues --    3.05470   3.06502   3.08900   3.10682   3.11051
 Alpha virt. eigenvalues --    3.13169   3.14011   3.15679   3.16274   3.17388
 Alpha virt. eigenvalues --    3.17731   3.18119   3.20016   3.21206   3.21436
 Alpha virt. eigenvalues --    3.24148   3.26120   3.27441   3.28844   3.31172
 Alpha virt. eigenvalues --    3.33696   3.34348   3.36157   3.39240   3.40874
 Alpha virt. eigenvalues --    3.42513   3.44183   3.45692   3.50245   3.55133
 Alpha virt. eigenvalues --    3.58898   3.71623   3.74218   3.80171   3.86492
 Alpha virt. eigenvalues --    3.89627   3.94215   3.97892   4.01648   4.02488
 Alpha virt. eigenvalues --    4.07604   4.08581   4.13531   4.17236   4.25483
 Alpha virt. eigenvalues --    4.30934   4.36297   4.44004   4.63062   4.71034
 Alpha virt. eigenvalues --    4.90700   5.60462
          Condensed to atoms (all electrons):
 Mulliken charges:
               1
     1  C    0.370972
     2  C    0.496449
     3  C   -0.004394
     4  H   -0.292514
     5  C    0.457489
     6  H   -0.141183
     7  H   -0.242962
     8  H   -0.383801
     9  H   -0.377312
    10  C    0.367546
    11  H   -0.272015
    12  H   -0.038875
    13  C    0.688806
    14  H   -0.192464
    15  H   -0.252163
    16  C    0.470559
    17  H   -0.204882
    18  C    0.735637
    19  H    0.083398
    20  H   -0.328236
    21  H   -0.199861
    22  H   -0.262632
    23  C   -0.185238
    24  H   -0.449475
    25  Si   0.772327
    26  C    1.164217
    27  H   -0.313829
    28  H   -0.473566
    29  H   -0.490402
    30  C    0.910115
    31  H   -0.420118
    32  H   -0.301689
    33  H   -0.282425
    34  C    0.906934
    35  H   -0.341421
    36  H   -0.536872
    37  H   -0.284997
    38  B    0.907463
    39  C    0.624767
    40  C    1.377586
    41  C    0.875011
    42  C    0.461406
    43  O   -1.461781
    44  O   -0.913942
    45  C    1.079784
    46  H   -0.122988
    47  H   -0.377319
    48  H   -0.081791
    49  H   -0.899423
    50  H   -0.398629
    51  H   -0.406791
    52  H   -0.814475
 Sum of Mulliken charges =  -0.00000
 Mulliken charges with hydrogens summed into heavy atoms:
               1
     1  C   -0.184174
     2  C    0.119137
     3  C   -0.388194
     5  C    0.073343
    10  C    0.056656
    13  C    0.244178
    16  C    0.065815
    18  C    0.490799
    23  C   -0.634713
    25  Si   0.772327
    26  C   -0.113580
    30  C   -0.094117
    34  C   -0.256355
    38  B    0.907463
    39  C   -0.274656
    40  C    0.563112
    41  C    0.069592
    42  C    0.461406
    43  O   -1.461781
    44  O   -0.913942
    45  C    0.497685
 Electronic spatial extent (au):  <R**2>=           6682.9887
 Charge=              0.0000 electrons
 Dipole moment (field-independent basis, Debye):
    X=              0.5583    Y=              0.1321    Z=              1.7032  Tot=              1.7972
 Unable to Open any file for archive entry.
 1\1\GINC-SE401\SP\RMP2-FC\Aug-CC-pVDZ\C17H31B1O2Si1\OHZDE\21-Sep-2024\
 0\\#t symm=none mp2 aug-cc-pvdz geom=allcheck guess=(read,tcheck) int=
 (grid=ultrafine)\\title\\0,1\C,0,0.648503,2.595494,0.372259\C,0,0.4547
 33,1.219434,1.068882\C,0,-2.159439,1.240975,-0.618622\H,0,1.718701,2.7
 48165,0.211483\C,0,-0.587409,1.260166,2.206605\H,0,-0.789021,0.241115,
 2.553838\H,0,-0.132702,1.779793,3.057222\H,0,-3.019171,1.06136,-1.2709
 14\H,0,1.406093,0.968573,1.54534\C,0,-1.905059,1.960333,1.892452\H,0,-
 2.501449,1.990172,2.809796\H,0,-1.706463,3.006318,1.643693\C,0,-2.7626
 27,1.33771,0.795255\H,0,-3.08602,0.343839,1.117836\H,0,-3.678092,1.934
 329,0.719343\C,0,-1.551373,2.587076,-1.090924\H,0,-1.809469,2.725046,-
 2.145416\C,0,-0.029933,2.759765,-0.994549\H,0,0.442034,2.064304,-1.698
 277\H,0,0.21493,3.755587,-1.376642\H,0,-2.046966,3.406626,-0.559943\H,
 0,0.328952,3.397086,1.04554\C,0,-1.195458,0.052635,-0.817483\H,0,-0.91
 8235,0.003996,-1.881313\Si,0,-1.954151,-1.68326,-0.572623\C,0,-1.75047
 7,-2.306053,1.191797\H,0,-2.286367,-1.692933,1.919081\H,0,-2.132988,-3
 .326995,1.276746\H,0,-0.695357,-2.326139,1.477893\C,0,-1.069646,-2.875
 92,-1.719973\H,0,-1.458064,-3.891326,-1.604095\H,0,-1.198578,-2.587678
 ,-2.766603\H,0,0.000584,-2.892467,-1.507731\C,0,-3.779705,-1.656215,-1
 .026194\H,0,-3.924955,-1.310631,-2.05309\H,0,-4.197178,-2.664499,-0.95
 7059\H,0,-4.367167,-1.009628,-0.371503\B,0,0.144835,0.147452,-0.038852
 \C,0,3.509659,0.442686,-1.452258\C,0,3.442753,-0.385547,-0.262025\C,0,
 4.615921,1.032366,-1.903808\C,0,2.298321,-0.910673,0.191837\O,0,1.1161
 96,-0.760062,-0.439259\O,0,2.130331,-1.678153,1.283489\C,0,3.274624,-1
 .979682,2.063038\H,0,3.728165,-1.066364,2.457193\H,0,2.92319,-2.599521
 ,2.883905\H,0,4.011743,-2.530668,1.473435\H,0,2.58218,0.573212,-2.0003
 02\H,0,5.566339,0.927961,-1.3913\H,0,4.604629,1.636458,-2.801607\H,0,4
 .362124,-0.578293,0.272859\\Version=ES64L-G16RevC.01\HF=-1125.2839222\
 MP2=-1128.3554342\RMSD=1.100e-09\PG=Unknown\\@
 The archive entry for this job was punched.


 THE TRULY SUCCESSFUL PERFORMANCE OF RESEARCHES IN
 INORGANIC CHEMISTRY IS POSSIBLE ONLY TO ONE WHO IS NOT
 ONLY A THEORETICAL CHEMIST, BUT ALSO AN ACCOMPLISHED
 ANALYST AND, MOREOVER, NOT MERELY A PRACTICALLY TRAINED,
 MECHANICAL WORKER, BUT A THINKING CREATIVE ARTIST.
   --  CLEMENS WINKLER, BER. 33, 1697(1900)
 Job cpu time:       0 days 21 hours  0 minutes 32.6 seconds.
 Elapsed time:       0 days  3 hours 15 minutes 44.3 seconds.
 File lengths (MBytes):  RWF= 281579 Int=      0 D2E=      0 Chk=     72 Scr=      1
 Normal termination of Gaussian 16 at Sat Sep 21 02:54:41 2024.
