 Entering Gaussian System, Link 0=g16
 Input=09_23TS.gjf
 Output=09_23TS.log
 Initial command:
 /arc/software/Gaussian/g16.c01/l1.exe "/tmp/slurm/2341460/Gau-2860895.inp" -scrdir="/tmp/slurm/2341460/"
 Entering Link 1 = /arc/software/Gaussian/g16.c01/l1.exe PID=   2860896.
  
 Copyright (c) 1988-2019, Gaussian, Inc.  All Rights Reserved.
  
 This is part of the Gaussian(R) 16 program.  It is based on
 the Gaussian(R) 09 system (copyright 2009, Gaussian, Inc.),
 the Gaussian(R) 03 system (copyright 2003, Gaussian, Inc.),
 the Gaussian(R) 98 system (copyright 1998, Gaussian, Inc.),
 the Gaussian(R) 94 system (copyright 1995, Gaussian, Inc.),
 the Gaussian 92(TM) system (copyright 1992, Gaussian, Inc.),
 the Gaussian 90(TM) system (copyright 1990, Gaussian, Inc.),
 the Gaussian 88(TM) system (copyright 1988, Gaussian, Inc.),
 the Gaussian 86(TM) system (copyright 1986, Carnegie Mellon
 University), and the Gaussian 82(TM) system (copyright 1983,
 Carnegie Mellon University). Gaussian is a federally registered
 trademark of Gaussian, Inc.
  
 This software contains proprietary and confidential information,
 including trade secrets, belonging to Gaussian, Inc.
  
 This software is provided under written license and may be
 used, copied, transmitted, or stored only in accord with that
 written license.
  
 The following legend is applicable only to US Government
 contracts under FAR:
  
                    RESTRICTED RIGHTS LEGEND
  
 Use, reproduction and disclosure by the US Government is
 subject to restrictions as set forth in subparagraphs (a)
 and (c) of the Commercial Computer Software - Restricted
 Rights clause in FAR 52.227-19.
  
 Gaussian, Inc.
 340 Quinnipiac St., Bldg. 40, Wallingford CT 06492
  
  
 ---------------------------------------------------------------
 Warning -- This program may not be used in any manner that
 competes with the business of Gaussian, Inc. or will provide
 assistance to any competitor of Gaussian, Inc.  The licensee
 of this program is prohibited from giving any competitor of
 Gaussian, Inc. access to this program.  By using this program,
 the user acknowledges that Gaussian, Inc. is engaged in the
 business of creating and licensing software in the field of
 computational chemistry and represents and warrants to the
 licensee that it is not a competitor of Gaussian, Inc. and that
 it will not use this program in any manner prohibited above.
 ---------------------------------------------------------------
  

 Cite this work as:
 Gaussian 16, Revision C.01,
 M. J. Frisch, G. W. Trucks, H. B. Schlegel, G. E. Scuseria, 
 M. A. Robb, J. R. Cheeseman, G. Scalmani, V. Barone, 
 G. A. Petersson, H. Nakatsuji, X. Li, M. Caricato, A. V. Marenich, 
 J. Bloino, B. G. Janesko, R. Gomperts, B. Mennucci, H. P. Hratchian, 
 J. V. Ortiz, A. F. Izmaylov, J. L. Sonnenberg, D. Williams-Young, 
 F. Ding, F. Lipparini, F. Egidi, J. Goings, B. Peng, A. Petrone, 
 T. Henderson, D. Ranasinghe, V. G. Zakrzewski, J. Gao, N. Rega, 
 G. Zheng, W. Liang, M. Hada, M. Ehara, K. Toyota, R. Fukuda, 
 J. Hasegawa, M. Ishida, T. Nakajima, Y. Honda, O. Kitao, H. Nakai, 
 T. Vreven, K. Throssell, J. A. Montgomery, Jr., J. E. Peralta, 
 F. Ogliaro, M. J. Bearpark, J. J. Heyd, E. N. Brothers, K. N. Kudin, 
 V. N. Staroverov, T. A. Keith, R. Kobayashi, J. Normand, 
 K. Raghavachari, A. P. Rendell, J. C. Burant, S. S. Iyengar, 
 J. Tomasi, M. Cossi, J. M. Millam, M. Klene, C. Adamo, R. Cammi, 
 J. W. Ochterski, R. L. Martin, K. Morokuma, O. Farkas, 
 J. B. Foresman, and D. J. Fox, Gaussian, Inc., Wallingford CT, 2019.
 
 ******************************************
 Gaussian 16:  ES64L-G16RevC.01  3-Jul-2019
                21-Sep-2024 
 ******************************************
 %nprocs=16
 Will use up to   16 processors via shared memory.
 %mem=30GB
 %chk=09_23TS.chk
 ----------------------------------------------------------------------
 #t hf aug-cc-pvdz symm=none int=(grid=ultrafine) guess=(read,tcheck) s
 table=(opt,rrhf)
 ----------------------------------------------------------------------
 -----
 title
 -----
 Symbolic Z-matrix:
 Charge = -1 Multiplicity = 1
 C                     3.41537  -0.62566  -1.24914 
 C                     2.59456  -0.08484  -0.07441 
 H                     4.04588  -1.46907  -0.94594 
 H                     4.06795   0.15532  -1.6554 
 H                     2.75807  -0.96653  -2.05357 
 C                     3.54299   0.20129   1.09312 
 H                     3.98782  -0.72451   1.47554 
 H                     3.00524   0.68262   1.91387 
 H                     4.35633   0.8671    0.78426 
 C                     1.85727   1.21795  -0.491 
 C                     0.55039   1.29193   0.2258 
 H                     1.6539    1.17229  -1.57194 
 H                     2.56491   2.06965  -0.37221 
 C                    -0.51962   2.2319   -0.30248 
 C                    -1.83532   1.55285  -0.02049 
 H                    -0.40009   2.3402   -1.38734 
 H                    -0.49191   3.25842   0.1204 
 C                    -2.2373    1.5312    1.42615 
 H                    -1.48942   0.99418   2.01498 
 H                    -3.20726   1.06109   1.5895 
 H                    -2.28361   2.55572   1.81387 
 C                    -2.40786   0.8038   -0.96183 
 C                    -3.1718   -0.46298  -0.73497 
 C                    -2.14774  -1.62627  -0.89924 
 H                    -3.99056  -0.59583  -1.45591 
 H                    -3.61247  -0.5       0.26443 
 C                    -0.95332  -1.61647   0.02528 
 H                    -1.79653  -1.59153  -1.93965 
 H                    -2.6958   -2.5772   -0.79352 
 C                     0.18381  -0.89919  -0.29243 
 C                    -1.20759  -2.12689   1.41638 
 H                    -1.77009  -1.41896   2.05433 
 H                    -0.28027  -2.34836   1.95172 
 H                    -1.79791  -3.05442   1.40128 
 C                     1.52813  -1.11401   0.36887 
 H                     1.89889  -2.12952   0.1589 
 H                     1.40306  -1.05522   1.45261 
 H                     0.25576  -0.61903  -1.34394 
 H                     0.66257   1.35215   1.31338 
 H                    -1.99634   0.8938   -1.96731 
 
                    Distance matrix (angstroms):
                    1          2          3          4          5
     1  C    0.000000
     2  C    1.531734   0.000000
     3  H    1.095815   2.186773   0.000000
     4  H    1.095824   2.174407   1.772695   0.000000
     5  H    1.093313   2.172831   1.771399   1.769983   0.000000
     6  C    2.487237   1.531181   2.683423   2.798583   3.446967
     7  H    2.785927   2.180072   2.534031   3.253199   3.745067
     8  H    3.447382   2.170461   3.727088   3.761256   4.303645
     9  H    2.692298   2.178833   2.923633   2.557681   3.737633
    10  C    2.530094   1.553835   3.495292   2.715163   2.832850
    11  C    3.749767   2.482796   4.605928   4.147774   3.894876
    12  H    2.537636   2.169748   3.618040   2.620842   2.454728
    13  H    2.959228   2.175175   3.878789   2.751434   3.476015
    14  C    4.954388   3.888110   5.912273   5.214244   4.903011
    15  C    5.815944   4.723215   6.676595   6.282877   5.619601
    16  H    4.834577   4.070933   5.871284   4.980852   4.620852
    17  H    5.677026   4.554302   6.639113   5.794398   5.756629
    18  C    6.615277   5.311322   7.355729   7.151581   6.580339
    19  H    6.110266   4.712618   6.743456   6.712653   6.199895
    20  H    7.400154   6.143528   8.089390   8.017385   7.277943
    21  H    7.209826   5.859583   7.992365   7.624960   7.265115
    22  C    6.002991   5.157656   6.842291   6.545047   5.568917
    23  C    6.609211   5.816384   7.290520   7.324169   6.095549
    24  C    5.663203   5.054289   6.195796   6.510041   5.082794
    25  H    7.408878   6.747855   8.099817   8.095901   6.785184
    26  H    7.190079   6.230126   7.813735   7.943803   6.795193
    27  C    4.657386   3.865654   5.094797   5.583634   4.303308
    28  H    5.345421   5.003087   5.927576   6.125708   4.598693
    29  H    6.431365   5.892106   6.833845   7.345593   5.824667
    30  C    3.381283   2.553902   3.958207   4.249255   3.119775
    31  C    5.543503   4.566049   5.797605   6.517327   5.395693
    32  H    6.199297   5.036037   6.544439   7.093881   6.130569
    33  H    5.183717   4.182511   5.280636   6.179535   5.213765
    34  H    6.332603   5.503626   6.494047   7.352139   6.087060
    35  C    2.533402   1.546925   2.862491   3.487051   2.720802
    36  H    2.558096   2.172350   2.503282   3.635509   2.643060
    37  H    3.396083   2.166361   3.592886   4.269278   3.759955
    38  H    3.161034   2.714232   3.904608   3.902480   2.624097
    39  H    4.249255   2.779118   4.950816   4.673611   4.593883
    40  H    5.666672   5.061347   6.567712   6.117047   5.106148
                    6          7          8          9         10
     6  C    0.000000
     7  H    1.096000   0.000000
     8  H    1.092920   1.771329   0.000000
     9  H    1.095547   1.773941   1.770728   0.000000
    10  C    2.526793   3.489940   2.718047   2.827484   0.000000
    11  C    3.301123   4.176584   3.040910   3.870084   1.492387
    12  H    3.407943   4.281612   3.770513   3.598328   1.100860
    13  H    2.568004   3.639535   2.709963   2.448013   1.113663
    14  C    4.751405   5.676153   4.442642   5.178662   2.590991
    15  C    5.656237   6.429108   5.284887   6.281270   3.737479
    16  H    5.125960   6.069783   5.024118   5.432251   2.675543
    17  H    5.154870   6.145581   4.699079   5.446521   3.171118
    18  C    5.940646   6.621388   5.333118   6.658000   4.532007
    19  H    5.177224   5.765857   4.506584   5.975251   4.186927
    20  H    6.822868   7.414216   6.232467   7.608808   5.477463
    21  H    6.325509   7.085564   5.611633   6.928226   4.924320
    22  C    6.324431   7.012935   6.130739   6.986207   4.310982
    23  C    6.990822   7.497669   6.817963   7.794225   5.308169
    24  C    6.300310   6.640630   6.308550   7.166172   4.929140
    25  H    7.992956   8.500859   7.869631   8.765222   6.198230
    26  H    7.237343   7.699461   6.921947   8.101911   5.782744
    27  C    4.966011   5.226253   4.952044   5.910707   4.024908
    28  H    6.397052   6.773030   6.563404   7.163946   4.831357
    29  H    7.085326   7.297390   7.103393   8.005313   5.935078
    30  C    3.796688   4.198418   3.915392   4.657134   2.705955
    31  C    5.300271   5.381682   5.088101   6.349858   4.921322
    32  H    5.637194   5.828454   5.219214   6.661245   5.156530
    33  H    4.674949   4.591322   4.470216   5.761955   4.822295
    34  H    6.262567   6.237683   6.107245   7.323498   5.932472
    35  C    2.512804   2.725163   2.792263   3.477934   2.507142
    36  H    3.001412   2.840995   3.494573   3.925527   3.410225
    37  H    2.507455   2.605939   2.408283   3.586612   3.025096
    38  H    4.173494   4.678557   4.457268   4.853087   2.582024
    39  H    3.109633   3.923790   2.509377   3.762858   2.168199
    40  H    6.366321   7.091011   6.334350   6.923028   4.139437
                   11         12         13         14         15
    11  C    0.000000
    12  H    2.112804   0.000000
    13  H    2.240701   1.753441   0.000000
    14  C    1.519054   2.731026   3.089574   0.000000
    15  C    2.412535   3.837509   4.444406   1.507213   0.000000
    16  H    2.145805   2.370012   3.145608   1.096787   2.132625
    17  H    2.228134   3.438096   3.316620   1.110563   2.175680
    18  C    3.044550   4.925325   5.156083   2.535658   1.501610
    19  H    2.729586   4.772652   4.826270   2.800547   2.138897
    20  H    4.004111   5.799829   6.179274   3.489099   2.171666
    21  H    3.485780   5.374161   5.340720   2.774067   2.138129
    22  C    3.224898   4.123825   5.165117   2.457574   1.332289
    23  C    4.225813   5.163529   6.281372   3.805718   2.521949
    24  C    4.130561   4.768327   6.012209   4.229937   3.313094
    25  H    5.197310   5.916054   7.159146   4.623194   3.364867
    26  H    4.532318   5.822670   6.720743   4.165378   2.730132
    27  C    3.280261   4.138338   5.111100   3.886568   3.290070
    28  H    4.302500   4.436138   5.906198   4.350793   3.683987
    29  H    5.152369   5.795212   7.031765   5.301347   4.288970
    30  C    2.281218   2.844178   3.806572   3.209148   3.187997
    31  C    4.024460   5.291762   5.919603   4.735690   3.999882
    32  H    4.009627   5.620336   6.070481   4.521837   3.625022
    33  H    4.113455   5.343422   5.745823   5.110523   4.639742
    34  H    5.078092   6.214507   6.959563   5.699294   4.821797
    35  C    2.600963   3.001623   3.429257   3.979835   4.310048
    36  H    3.678210   3.736003   4.284700   5.008388   5.247500
    37  H    2.782301   3.764652   3.800611   4.193102   4.411242
    38  H    2.490516   2.283765   3.674969   3.132674   3.292596
    39  H    1.095003   3.056168   2.641002   2.186893   2.838822
    40  H    3.384389   3.682139   4.973123   2.596707   2.061646
                   16         17         18         19         20
    16  H    0.000000
    17  H    1.767723   0.000000
    18  C    3.456236   2.781127   0.000000
    19  H    3.817615   3.116289   1.092895   0.000000
    20  H    4.286951   3.789416   1.090192   1.771010   0.000000
    21  H    3.720463   2.563554   1.096409   1.763402   1.771270
    22  C    2.563738   3.296554   2.502129   3.121079   2.685986
    23  C    3.995724   4.665009   3.085531   3.537786   2.779787
    24  C    4.361814   5.257535   3.922382   3.974016   3.812914
    25  H    4.638591   5.438806   3.988041   4.564085   3.554358
    26  H    4.595050   4.887163   2.714122   3.131184   2.087343
    27  C    4.237541   4.897600   3.676798   3.325924   3.833584
    28  H    4.208750   5.428430   4.612408   4.734896   4.634808
    29  H    5.459279   6.304510   4.692128   4.700819   4.379211
    30  C    3.468923   4.232350   3.836936   3.421793   4.345542
    31  C    5.335517   5.585096   3.800258   3.190421   3.767204
    32  H    5.277623   5.220322   3.052266   2.429726   2.903820
    33  H    5.757279   5.902079   4.376889   3.555084   4.508086
    34  H    6.231550   6.572538   4.606686   4.106448   4.354204
    35  C    4.328263   4.822912   4.721590   4.032338   5.352097
    36  H    5.258752   5.894683   5.666991   4.968214   6.188647
    37  H    4.779692   4.896238   4.465691   3.589248   5.074693
    38  H    3.031345   4.211645   4.302587   4.114664   4.839467
    39  H    3.065833   2.527823   2.907576   2.291606   3.890573
    40  H    2.230801   3.494752   3.461205   4.015679   3.761016
                   21         22         23         24         25
    21  H    0.000000
    22  C    3.284686   0.000000
    23  C    4.049446   1.496593   0.000000
    24  C    4.986828   2.444749   1.558502   0.000000
    25  H    4.851537   2.169800   1.098983   2.183496   0.000000
    26  H    3.674785   2.157468   1.092869   2.183586   1.763998
    27  C    4.730313   2.991278   2.613465   1.510461   3.529938
    28  H    5.614784   2.658467   2.148548   1.098637   2.457481
    29  H    5.771931   3.397406   2.167933   1.102637   2.457840
    30  C    4.739309   3.172545   3.412667   2.516552   4.344092
    31  C    4.821058   3.960480   3.354851   2.548843   4.282414
    32  H    4.014923   3.800607   3.264799   2.984827   4.234359
    33  H    5.299281   4.790772   4.374239   3.483801   5.333813
    34  H    5.646218   4.565321   3.628600   2.730276   4.360722
    35  C    5.484915   4.576110   4.871520   3.922065   5.835608
    36  H    6.494893   5.329955   5.411863   4.212855   6.296460
    37  H    5.173089   4.879396   5.105447   4.297149   6.145048
    38  H    5.147739   3.043902   3.484740   2.643699   4.247866
    39  H    3.221651   3.860670   4.710927   4.654516   5.754581
    40  H    4.140269   1.090160   2.177436   2.741252   2.541155
                   26         27         28         29         30
    26  H    0.000000
    27  C    2.893926   0.000000
    28  H    3.057295   2.138353   0.000000
    29  H    2.504855   2.151668   1.758937   0.000000
    30  C    3.857620   1.381478   2.667286   3.370307   0.000000
    31  C    3.123653   1.503444   3.449109   2.702068   2.522548
    32  H    2.728114   2.196176   3.997792   3.210711   3.097608
    33  H    4.167373   2.167912   4.244357   3.663806   2.711391
    34  H    3.333189   2.162043   3.647171   2.418901   3.382435
    35  C    5.178198   2.555016   4.075615   4.618838   1.513490
    36  H    5.748179   2.901060   4.283620   4.713668   2.158441
    37  H    5.184164   2.811541   4.693863   4.915498   2.134487
    38  H    4.190976   2.081231   2.347873   3.584568   1.090578
    39  H    4.775638   3.617038   5.029369   5.581882   2.806482
    40  H    3.087915   3.370427   2.493505   3.730267   3.282250
                   31         32         33         34         35
    31  C    0.000000
    32  H    1.106593   0.000000
    33  H    1.093423   1.758947   0.000000
    34  H    1.099554   1.761239   1.762026   0.000000
    35  C    3.099575   3.716457   2.701726   3.986677   0.000000
    36  H    3.351341   4.190344   2.830340   4.008151   1.101273
    37  H    2.822281   3.250116   2.180576   3.774337   1.092512
    38  H    3.469066   4.036367   3.760227   4.205349   2.190358
    39  H    3.951177   3.761107   3.871718   5.047725   2.779070
    40  H    4.603917   4.644749   5.367994   5.193772   4.680919
                   36         37         38         39         40
    36  H    0.000000
    37  H    1.753187   0.000000
    38  H    2.690717   3.054053   0.000000
    39  H    3.870827   2.522521   3.333524   0.000000
    40  H    5.369735   5.201005   2.783745   4.247683   0.000000
 Symmetry turned off by external request.
 Rotational constants (GHZ):           0.9111486           0.4344998           0.3675330
   570 basis functions,   920 primitive gaussians,   600 cartesian basis functions
    58 alpha electrons       58 beta electrons
       nuclear repulsion energy      1077.9066164422 Hartrees.
 NAtoms=   40 NActive=   40 NUniq=   40 SFac= 1.00D+00 NAtFMM=   60 NAOKFM=F Big=F
 ExpMin= 2.97D-02 ExpMax= 6.67D+03 ExpMxC= 2.28D+02 IAcc=3 IRadAn=         5 AccDes= 0.00D+00
 Harris functional with IExCor=  205 and IRadAn=       5 diagonalized for initial guess.
 HarFok:  IExCor=  205 AccDes= 0.00D+00 IRadAn=         5 IDoV= 1 UseB2=F ITyADJ=14
 ICtDFT=  3500011 ScaDFX=  1.000000  1.000000  1.000000  1.000000
 FoFCou: FMM=F IPFlag=           0 FMFlag=      100000 FMFlg1=           0
         NFxFlg=           0 DoJE=T BraDBF=F KetDBF=T FulRan=T
         wScrn=  0.000000 ICntrl=       500 IOpCl=  0 I1Cent=   200000004 NGrid=           0
         NMat0=    1 NMatS0=      1 NMatT0=    0 NMatD0=    1 NMtDS0=    0 NMtDT0=    0
 Symmetry not used in FoFCou.
 SCF Done:  E(RHF) =  -582.465067720     A.U. after   19 cycles
            NFock= 19  Conv=0.43D-08     -V/T= 2.0005

 **********************************************************************

            Population analysis using the SCF Density.

 **********************************************************************

 Alpha  occ. eigenvalues --  -11.09546 -11.09442 -11.09379 -11.08740 -11.08720
 Alpha  occ. eigenvalues --  -11.08561 -11.08474 -11.07716 -11.07462 -11.07214
 Alpha  occ. eigenvalues --  -11.06814 -11.06548 -11.06477 -11.02052 -10.99981
 Alpha  occ. eigenvalues --   -0.98285  -0.96271  -0.92000  -0.87460  -0.83680
 Alpha  occ. eigenvalues --   -0.81624  -0.80733  -0.78705  -0.76435  -0.72624
 Alpha  occ. eigenvalues --   -0.68361  -0.61365  -0.57560  -0.56105  -0.55208
 Alpha  occ. eigenvalues --   -0.50618  -0.47945  -0.47518  -0.45928  -0.45772
 Alpha  occ. eigenvalues --   -0.45215  -0.43868  -0.43206  -0.41642  -0.40898
 Alpha  occ. eigenvalues --   -0.40565  -0.39631  -0.38172  -0.37736  -0.36901
 Alpha  occ. eigenvalues --   -0.36681  -0.35720  -0.34612  -0.33915  -0.32463
 Alpha  occ. eigenvalues --   -0.31477  -0.30791  -0.29051  -0.28333  -0.27972
 Alpha  occ. eigenvalues --   -0.18776  -0.16787  -0.02933
 Alpha virt. eigenvalues --    0.11447   0.11813   0.12050   0.12292   0.12887
 Alpha virt. eigenvalues --    0.13294   0.13423   0.14052   0.14196   0.14904
 Alpha virt. eigenvalues --    0.15267   0.15348   0.15554   0.16103   0.16359
 Alpha virt. eigenvalues --    0.17140   0.17702   0.17833   0.18238   0.18365
 Alpha virt. eigenvalues --    0.19215   0.19446   0.20717   0.20998   0.21470
 Alpha virt. eigenvalues --    0.21659   0.22735   0.23128   0.23663   0.23702
 Alpha virt. eigenvalues --    0.23878   0.24098   0.24807   0.25275   0.25426
 Alpha virt. eigenvalues --    0.25702   0.25965   0.26281   0.26921   0.27390
 Alpha virt. eigenvalues --    0.27813   0.28344   0.28397   0.29061   0.29258
 Alpha virt. eigenvalues --    0.29339   0.29922   0.30149   0.30536   0.30876
 Alpha virt. eigenvalues --    0.31072   0.31407   0.31533   0.32096   0.32588
 Alpha virt. eigenvalues --    0.32854   0.33068   0.33350   0.33849   0.34016
 Alpha virt. eigenvalues --    0.34523   0.34770   0.35012   0.35188   0.35493
 Alpha virt. eigenvalues --    0.35892   0.36635   0.37085   0.37753   0.37976
 Alpha virt. eigenvalues --    0.38822   0.39214   0.39392   0.40054   0.40265
 Alpha virt. eigenvalues --    0.40920   0.41257   0.41808   0.42207   0.42627
 Alpha virt. eigenvalues --    0.43127   0.43460   0.43601   0.44992   0.45196
 Alpha virt. eigenvalues --    0.46051   0.46293   0.46662   0.47911   0.48661
 Alpha virt. eigenvalues --    0.48840   0.49360   0.49504   0.50038   0.50606
 Alpha virt. eigenvalues --    0.51051   0.51425   0.51794   0.52233   0.52755
 Alpha virt. eigenvalues --    0.53268   0.53614   0.54074   0.54370   0.55146
 Alpha virt. eigenvalues --    0.55403   0.55705   0.56003   0.56932   0.57136
 Alpha virt. eigenvalues --    0.57339   0.57674   0.58280   0.58857   0.59322
 Alpha virt. eigenvalues --    0.59859   0.59947   0.60087   0.60194   0.60729
 Alpha virt. eigenvalues --    0.61142   0.61589   0.61723   0.62366   0.62602
 Alpha virt. eigenvalues --    0.63135   0.63400   0.63584   0.63957   0.64402
 Alpha virt. eigenvalues --    0.64864   0.65072   0.65345   0.65633   0.65933
 Alpha virt. eigenvalues --    0.66484   0.67152   0.67625   0.68109   0.68479
 Alpha virt. eigenvalues --    0.68610   0.69189   0.69444   0.70231   0.70284
 Alpha virt. eigenvalues --    0.70637   0.71183   0.71302   0.72601   0.72916
 Alpha virt. eigenvalues --    0.73144   0.73560   0.73779   0.74128   0.74634
 Alpha virt. eigenvalues --    0.75004   0.75652   0.76170   0.76310   0.76812
 Alpha virt. eigenvalues --    0.77329   0.77767   0.78180   0.78543   0.79581
 Alpha virt. eigenvalues --    0.79920   0.79999   0.80766   0.81004   0.81944
 Alpha virt. eigenvalues --    0.82083   0.82448   0.82599   0.83210   0.83561
 Alpha virt. eigenvalues --    0.84068   0.84740   0.85132   0.85688   0.85777
 Alpha virt. eigenvalues --    0.86211   0.86387   0.86760   0.87611   0.87863
 Alpha virt. eigenvalues --    0.88029   0.88525   0.88908   0.89115   0.89679
 Alpha virt. eigenvalues --    0.90016   0.90498   0.90762   0.91337   0.91931
 Alpha virt. eigenvalues --    0.92274   0.92681   0.92940   0.93986   0.94171
 Alpha virt. eigenvalues --    0.94481   0.94985   0.95618   0.95821   0.96135
 Alpha virt. eigenvalues --    0.96390   0.96695   0.97350   0.98138   0.98289
 Alpha virt. eigenvalues --    0.98835   0.99167   0.99662   0.99887   1.00573
 Alpha virt. eigenvalues --    1.00881   1.01407   1.01820   1.02429   1.02652
 Alpha virt. eigenvalues --    1.03133   1.03515   1.04227   1.04356   1.04755
 Alpha virt. eigenvalues --    1.05481   1.05597   1.06103   1.06524   1.07316
 Alpha virt. eigenvalues --    1.07618   1.07962   1.08160   1.08618   1.09318
 Alpha virt. eigenvalues --    1.09780   1.10169   1.10328   1.10902   1.11655
 Alpha virt. eigenvalues --    1.12125   1.12710   1.13625   1.14087   1.14581
 Alpha virt. eigenvalues --    1.14967   1.16097   1.16583   1.16870   1.17094
 Alpha virt. eigenvalues --    1.17337   1.18123   1.18546   1.19695   1.20631
 Alpha virt. eigenvalues --    1.20940   1.21234   1.21863   1.22085   1.23966
 Alpha virt. eigenvalues --    1.24521   1.25315   1.26171   1.27178   1.27342
 Alpha virt. eigenvalues --    1.28144   1.29200   1.29910   1.30532   1.30861
 Alpha virt. eigenvalues --    1.31823   1.32449   1.33326   1.34186   1.34824
 Alpha virt. eigenvalues --    1.35068   1.35829   1.36814   1.37620   1.39587
 Alpha virt. eigenvalues --    1.40469   1.41334   1.41638   1.43135   1.43755
 Alpha virt. eigenvalues --    1.44256   1.45090   1.46905   1.47359   1.48842
 Alpha virt. eigenvalues --    1.49832   1.51529   1.52371   1.53174   1.54052
 Alpha virt. eigenvalues --    1.55537   1.56512   1.56700   1.57365   1.58918
 Alpha virt. eigenvalues --    1.60293   1.60458   1.61588   1.62752   1.64548
 Alpha virt. eigenvalues --    1.65203   1.65697   1.67235   1.67405   1.69029
 Alpha virt. eigenvalues --    1.70523   1.71404   1.72324   1.73784   1.74395
 Alpha virt. eigenvalues --    1.74531   1.77866   1.78525   1.79328   1.80515
 Alpha virt. eigenvalues --    1.81298   1.82227   1.83812   1.84462   1.84961
 Alpha virt. eigenvalues --    1.85478   1.86602   1.87739   1.88084   1.88650
 Alpha virt. eigenvalues --    1.89632   1.91480   1.92001   1.92439   1.94267
 Alpha virt. eigenvalues --    1.94536   1.97071   1.97491   1.98065   1.99074
 Alpha virt. eigenvalues --    1.99439   2.00265   2.01258   2.02197   2.03704
 Alpha virt. eigenvalues --    2.04010   2.05263   2.06028   2.06652   2.07251
 Alpha virt. eigenvalues --    2.08042   2.08895   2.09427   2.10519   2.11153
 Alpha virt. eigenvalues --    2.11768   2.12077   2.12978   2.13742   2.14850
 Alpha virt. eigenvalues --    2.15041   2.15988   2.16450   2.18074   2.18288
 Alpha virt. eigenvalues --    2.19072   2.20045   2.21214   2.21696   2.22474
 Alpha virt. eigenvalues --    2.23091   2.23683   2.24448   2.24924   2.25700
 Alpha virt. eigenvalues --    2.27205   2.28310   2.28699   2.29773   2.30203
 Alpha virt. eigenvalues --    2.31476   2.32429   2.32729   2.33773   2.34542
 Alpha virt. eigenvalues --    2.35541   2.36283   2.37139   2.37829   2.38290
 Alpha virt. eigenvalues --    2.38625   2.39973   2.41109   2.41754   2.42610
 Alpha virt. eigenvalues --    2.42834   2.44660   2.44884   2.45747   2.46934
 Alpha virt. eigenvalues --    2.47383   2.48334   2.48545   2.49395   2.49719
 Alpha virt. eigenvalues --    2.50408   2.52386   2.53221   2.53620   2.54449
 Alpha virt. eigenvalues --    2.55911   2.56214   2.56957   2.57170   2.58785
 Alpha virt. eigenvalues --    2.59090   2.60316   2.60610   2.60938   2.61684
 Alpha virt. eigenvalues --    2.63185   2.63438   2.63807   2.65148   2.65755
 Alpha virt. eigenvalues --    2.67014   2.67695   2.68506   2.69322   2.69979
 Alpha virt. eigenvalues --    2.71075   2.72582   2.73117   2.73955   2.74967
 Alpha virt. eigenvalues --    2.75678   2.76420   2.76932   2.78803   2.79376
 Alpha virt. eigenvalues --    2.80529   2.81062   2.82981   2.83319   2.84370
 Alpha virt. eigenvalues --    2.85284   2.86362   2.87240   2.88145   2.89215
 Alpha virt. eigenvalues --    2.90048   2.90300   2.90907   2.92327   2.93551
 Alpha virt. eigenvalues --    2.93721   2.94942   2.95294   2.96626   2.97059
 Alpha virt. eigenvalues --    2.98043   3.00807   3.01455   3.02545   3.03379
 Alpha virt. eigenvalues --    3.03908   3.05000   3.05514   3.07474   3.08168
 Alpha virt. eigenvalues --    3.08917   3.09849   3.10971   3.12340   3.13958
 Alpha virt. eigenvalues --    3.15072   3.16620   3.17690   3.19980   3.21952
 Alpha virt. eigenvalues --    3.22794   3.23326   3.24337   3.26793   3.27839
 Alpha virt. eigenvalues --    3.29164   3.29602   3.32290   3.33906   3.34472
 Alpha virt. eigenvalues --    3.38948   3.40374   3.41592   3.43079   3.45122
 Alpha virt. eigenvalues --    3.46877   3.48768   3.52842   3.53124   3.53884
 Alpha virt. eigenvalues --    3.59681   3.62377   3.67456   3.74481   3.79010
 Alpha virt. eigenvalues --    3.84009   4.03466   4.18289   4.33660   4.46927
 Alpha virt. eigenvalues --    4.68600   5.15169
          Condensed to atoms (all electrons):
 Mulliken charges:
               1
     1  C    1.075613
     2  C   -3.150838
     3  H   -0.055877
     4  H   -0.058115
     5  H    0.045181
     6  C    1.197084
     7  H   -0.053616
     8  H    0.051292
     9  H   -0.091242
    10  C    0.680050
    11  C    0.480417
    12  H   -0.206611
    13  H   -0.282176
    14  C    0.356653
    15  C   -0.351192
    16  H   -0.111643
    17  H   -0.169381
    18  C    0.699251
    19  H    0.115665
    20  H   -0.157972
    21  H   -0.045546
    22  C    0.541972
    23  C    0.297580
    24  C    0.803069
    25  H   -0.168642
    26  H   -0.233795
    27  C   -1.167775
    28  H   -0.147087
    29  H   -0.266137
    30  C    1.510369
    31  C    0.659259
    32  H   -0.119114
    33  H   -0.198103
    34  H   -0.132229
    35  C    0.442658
    36  H   -0.261244
    37  H   -0.191508
    38  H   -0.884169
    39  H   -0.877598
    40  H   -0.574504
 Sum of Mulliken charges =  -1.00000
 Mulliken charges with hydrogens summed into heavy atoms:
               1
     1  C    1.006802
     2  C   -3.150838
     6  C    1.103519
    10  C    0.191262
    11  C   -0.397181
    14  C    0.075629
    15  C   -0.351192
    18  C    0.611398
    22  C   -0.032532
    23  C   -0.104856
    24  C    0.389845
    27  C   -1.167775
    30  C    0.626200
    31  C    0.209814
    35  C   -0.010094
 Electronic spatial extent (au):  <R**2>=           3549.6516
 Charge=             -1.0000 electrons
 Dipole moment (field-independent basis, Debye):
    X=              1.2831    Y=             -0.4770    Z=              0.3238  Tot=              1.4066
 NROrb=    570 NOA=    58 NOB=    58 NVA=   512 NVB=   512

 **** Warning!!: The largest alpha MO coefficient is  0.94196685D+02

    12 initial guesses have been made.
 Iteration     1 Dimension    12 NMult     0 NNew     12
 Iteration     2 Dimension    24 NMult    12 NNew     12
 Iteration     3 Dimension    27 NMult    24 NNew      3
 Iteration     4 Dimension    30 NMult    27 NNew      3
 Iteration     5 Dimension    33 NMult    30 NNew      3
 Iteration     6 Dimension    36 NMult    33 NNew      3
 ***********************************************************************
 Stability analysis using <AA,BB:AA,BB> singles matrix:
 ***********************************************************************
 Ground to excited state transition densities written to RWF  633

 Eigenvectors of the stability matrix:
 
 Excited state symmetry could not be determined.
 Eigenvector   1:      Singlet-?Sym  Eigenvalue= 0.0581595  <S**2>=0.000
      58 -> 59         0.43593
      58 -> 60        -0.38157
      58 -> 61         0.16716
      58 -> 62        -0.18991
      58 -> 65         0.21848
 The wavefunction is stable under the perturbations considered.
 The wavefunction is already stable.

 **********************************************************************

            Population analysis using the SCF Density.

 **********************************************************************

 Alpha  occ. eigenvalues --  -11.09546 -11.09442 -11.09379 -11.08740 -11.08720
 Alpha  occ. eigenvalues --  -11.08561 -11.08474 -11.07716 -11.07462 -11.07214
 Alpha  occ. eigenvalues --  -11.06814 -11.06548 -11.06477 -11.02052 -10.99981
 Alpha  occ. eigenvalues --   -0.98285  -0.96271  -0.92000  -0.87460  -0.83680
 Alpha  occ. eigenvalues --   -0.81624  -0.80733  -0.78705  -0.76435  -0.72624
 Alpha  occ. eigenvalues --   -0.68361  -0.61365  -0.57560  -0.56105  -0.55208
 Alpha  occ. eigenvalues --   -0.50618  -0.47945  -0.47518  -0.45928  -0.45772
 Alpha  occ. eigenvalues --   -0.45215  -0.43868  -0.43206  -0.41642  -0.40898
 Alpha  occ. eigenvalues --   -0.40565  -0.39631  -0.38172  -0.37736  -0.36901
 Alpha  occ. eigenvalues --   -0.36681  -0.35720  -0.34612  -0.33915  -0.32463
 Alpha  occ. eigenvalues --   -0.31477  -0.30791  -0.29051  -0.28333  -0.27972
 Alpha  occ. eigenvalues --   -0.18776  -0.16787  -0.02933
 Alpha virt. eigenvalues --    0.11447   0.11813   0.12050   0.12292   0.12887
 Alpha virt. eigenvalues --    0.13294   0.13423   0.14052   0.14196   0.14904
 Alpha virt. eigenvalues --    0.15267   0.15348   0.15554   0.16103   0.16359
 Alpha virt. eigenvalues --    0.17140   0.17702   0.17833   0.18238   0.18365
 Alpha virt. eigenvalues --    0.19215   0.19446   0.20717   0.20998   0.21470
 Alpha virt. eigenvalues --    0.21659   0.22735   0.23128   0.23663   0.23702
 Alpha virt. eigenvalues --    0.23878   0.24098   0.24807   0.25275   0.25426
 Alpha virt. eigenvalues --    0.25702   0.25965   0.26281   0.26921   0.27390
 Alpha virt. eigenvalues --    0.27813   0.28344   0.28397   0.29061   0.29258
 Alpha virt. eigenvalues --    0.29339   0.29922   0.30149   0.30536   0.30876
 Alpha virt. eigenvalues --    0.31072   0.31407   0.31533   0.32096   0.32588
 Alpha virt. eigenvalues --    0.32854   0.33068   0.33350   0.33849   0.34016
 Alpha virt. eigenvalues --    0.34523   0.34770   0.35012   0.35188   0.35493
 Alpha virt. eigenvalues --    0.35892   0.36635   0.37085   0.37753   0.37976
 Alpha virt. eigenvalues --    0.38822   0.39214   0.39392   0.40054   0.40265
 Alpha virt. eigenvalues --    0.40920   0.41257   0.41808   0.42207   0.42627
 Alpha virt. eigenvalues --    0.43127   0.43460   0.43601   0.44992   0.45196
 Alpha virt. eigenvalues --    0.46051   0.46293   0.46662   0.47911   0.48661
 Alpha virt. eigenvalues --    0.48840   0.49360   0.49504   0.50038   0.50606
 Alpha virt. eigenvalues --    0.51051   0.51425   0.51794   0.52233   0.52755
 Alpha virt. eigenvalues --    0.53268   0.53614   0.54074   0.54370   0.55146
 Alpha virt. eigenvalues --    0.55403   0.55705   0.56003   0.56932   0.57136
 Alpha virt. eigenvalues --    0.57339   0.57674   0.58280   0.58857   0.59322
 Alpha virt. eigenvalues --    0.59859   0.59947   0.60087   0.60194   0.60729
 Alpha virt. eigenvalues --    0.61142   0.61589   0.61723   0.62366   0.62602
 Alpha virt. eigenvalues --    0.63135   0.63400   0.63584   0.63957   0.64402
 Alpha virt. eigenvalues --    0.64864   0.65072   0.65345   0.65633   0.65933
 Alpha virt. eigenvalues --    0.66484   0.67152   0.67625   0.68109   0.68479
 Alpha virt. eigenvalues --    0.68610   0.69189   0.69444   0.70231   0.70284
 Alpha virt. eigenvalues --    0.70637   0.71183   0.71302   0.72601   0.72916
 Alpha virt. eigenvalues --    0.73144   0.73560   0.73779   0.74128   0.74634
 Alpha virt. eigenvalues --    0.75004   0.75652   0.76170   0.76310   0.76812
 Alpha virt. eigenvalues --    0.77329   0.77767   0.78180   0.78543   0.79581
 Alpha virt. eigenvalues --    0.79920   0.79999   0.80766   0.81004   0.81944
 Alpha virt. eigenvalues --    0.82083   0.82448   0.82599   0.83210   0.83561
 Alpha virt. eigenvalues --    0.84068   0.84740   0.85132   0.85688   0.85777
 Alpha virt. eigenvalues --    0.86211   0.86387   0.86760   0.87611   0.87863
 Alpha virt. eigenvalues --    0.88029   0.88525   0.88908   0.89115   0.89679
 Alpha virt. eigenvalues --    0.90016   0.90498   0.90762   0.91337   0.91931
 Alpha virt. eigenvalues --    0.92274   0.92681   0.92940   0.93986   0.94171
 Alpha virt. eigenvalues --    0.94481   0.94985   0.95618   0.95821   0.96135
 Alpha virt. eigenvalues --    0.96390   0.96695   0.97350   0.98138   0.98289
 Alpha virt. eigenvalues --    0.98835   0.99167   0.99662   0.99887   1.00573
 Alpha virt. eigenvalues --    1.00881   1.01407   1.01820   1.02429   1.02652
 Alpha virt. eigenvalues --    1.03133   1.03515   1.04227   1.04356   1.04755
 Alpha virt. eigenvalues --    1.05481   1.05597   1.06103   1.06524   1.07316
 Alpha virt. eigenvalues --    1.07618   1.07962   1.08160   1.08618   1.09318
 Alpha virt. eigenvalues --    1.09780   1.10169   1.10328   1.10902   1.11655
 Alpha virt. eigenvalues --    1.12125   1.12710   1.13625   1.14087   1.14581
 Alpha virt. eigenvalues --    1.14967   1.16097   1.16583   1.16870   1.17094
 Alpha virt. eigenvalues --    1.17337   1.18123   1.18546   1.19695   1.20631
 Alpha virt. eigenvalues --    1.20940   1.21234   1.21863   1.22085   1.23966
 Alpha virt. eigenvalues --    1.24521   1.25315   1.26171   1.27178   1.27342
 Alpha virt. eigenvalues --    1.28144   1.29200   1.29910   1.30532   1.30861
 Alpha virt. eigenvalues --    1.31823   1.32449   1.33326   1.34186   1.34824
 Alpha virt. eigenvalues --    1.35068   1.35829   1.36814   1.37620   1.39587
 Alpha virt. eigenvalues --    1.40469   1.41334   1.41638   1.43135   1.43755
 Alpha virt. eigenvalues --    1.44256   1.45090   1.46905   1.47359   1.48842
 Alpha virt. eigenvalues --    1.49832   1.51529   1.52371   1.53174   1.54052
 Alpha virt. eigenvalues --    1.55537   1.56512   1.56700   1.57365   1.58918
 Alpha virt. eigenvalues --    1.60293   1.60458   1.61588   1.62752   1.64548
 Alpha virt. eigenvalues --    1.65203   1.65697   1.67235   1.67405   1.69029
 Alpha virt. eigenvalues --    1.70523   1.71404   1.72324   1.73784   1.74395
 Alpha virt. eigenvalues --    1.74531   1.77866   1.78525   1.79328   1.80515
 Alpha virt. eigenvalues --    1.81298   1.82227   1.83812   1.84462   1.84961
 Alpha virt. eigenvalues --    1.85478   1.86602   1.87739   1.88084   1.88650
 Alpha virt. eigenvalues --    1.89632   1.91480   1.92001   1.92439   1.94267
 Alpha virt. eigenvalues --    1.94536   1.97071   1.97491   1.98065   1.99074
 Alpha virt. eigenvalues --    1.99439   2.00265   2.01258   2.02197   2.03704
 Alpha virt. eigenvalues --    2.04010   2.05263   2.06028   2.06652   2.07251
 Alpha virt. eigenvalues --    2.08042   2.08895   2.09427   2.10519   2.11153
 Alpha virt. eigenvalues --    2.11768   2.12077   2.12978   2.13742   2.14850
 Alpha virt. eigenvalues --    2.15041   2.15988   2.16450   2.18074   2.18288
 Alpha virt. eigenvalues --    2.19072   2.20045   2.21214   2.21696   2.22474
 Alpha virt. eigenvalues --    2.23091   2.23683   2.24448   2.24924   2.25700
 Alpha virt. eigenvalues --    2.27205   2.28310   2.28699   2.29773   2.30203
 Alpha virt. eigenvalues --    2.31476   2.32429   2.32729   2.33773   2.34542
 Alpha virt. eigenvalues --    2.35541   2.36283   2.37139   2.37829   2.38290
 Alpha virt. eigenvalues --    2.38625   2.39973   2.41109   2.41754   2.42610
 Alpha virt. eigenvalues --    2.42834   2.44660   2.44884   2.45747   2.46934
 Alpha virt. eigenvalues --    2.47383   2.48334   2.48545   2.49395   2.49719
 Alpha virt. eigenvalues --    2.50408   2.52386   2.53221   2.53620   2.54449
 Alpha virt. eigenvalues --    2.55911   2.56214   2.56957   2.57170   2.58785
 Alpha virt. eigenvalues --    2.59090   2.60316   2.60610   2.60938   2.61684
 Alpha virt. eigenvalues --    2.63185   2.63438   2.63807   2.65148   2.65755
 Alpha virt. eigenvalues --    2.67014   2.67695   2.68506   2.69322   2.69979
 Alpha virt. eigenvalues --    2.71075   2.72582   2.73117   2.73955   2.74967
 Alpha virt. eigenvalues --    2.75678   2.76420   2.76932   2.78803   2.79376
 Alpha virt. eigenvalues --    2.80529   2.81062   2.82981   2.83319   2.84370
 Alpha virt. eigenvalues --    2.85284   2.86362   2.87240   2.88145   2.89215
 Alpha virt. eigenvalues --    2.90048   2.90300   2.90907   2.92327   2.93551
 Alpha virt. eigenvalues --    2.93721   2.94942   2.95294   2.96626   2.97059
 Alpha virt. eigenvalues --    2.98043   3.00807   3.01455   3.02545   3.03379
 Alpha virt. eigenvalues --    3.03908   3.05000   3.05514   3.07474   3.08168
 Alpha virt. eigenvalues --    3.08917   3.09849   3.10971   3.12340   3.13958
 Alpha virt. eigenvalues --    3.15072   3.16620   3.17690   3.19980   3.21952
 Alpha virt. eigenvalues --    3.22794   3.23326   3.24337   3.26793   3.27839
 Alpha virt. eigenvalues --    3.29164   3.29602   3.32290   3.33906   3.34472
 Alpha virt. eigenvalues --    3.38948   3.40374   3.41592   3.43079   3.45122
 Alpha virt. eigenvalues --    3.46877   3.48768   3.52842   3.53124   3.53884
 Alpha virt. eigenvalues --    3.59681   3.62377   3.67456   3.74481   3.79010
 Alpha virt. eigenvalues --    3.84009   4.03466   4.18289   4.33660   4.46927
 Alpha virt. eigenvalues --    4.68600   5.15169
          Condensed to atoms (all electrons):
 Mulliken charges:
               1
     1  C    1.075613
     2  C   -3.150838
     3  H   -0.055877
     4  H   -0.058115
     5  H    0.045181
     6  C    1.197084
     7  H   -0.053616
     8  H    0.051292
     9  H   -0.091242
    10  C    0.680050
    11  C    0.480417
    12  H   -0.206611
    13  H   -0.282176
    14  C    0.356653
    15  C   -0.351192
    16  H   -0.111643
    17  H   -0.169381
    18  C    0.699251
    19  H    0.115665
    20  H   -0.157972
    21  H   -0.045546
    22  C    0.541972
    23  C    0.297580
    24  C    0.803069
    25  H   -0.168642
    26  H   -0.233795
    27  C   -1.167775
    28  H   -0.147087
    29  H   -0.266137
    30  C    1.510369
    31  C    0.659259
    32  H   -0.119114
    33  H   -0.198103
    34  H   -0.132229
    35  C    0.442658
    36  H   -0.261244
    37  H   -0.191508
    38  H   -0.884169
    39  H   -0.877598
    40  H   -0.574504
 Sum of Mulliken charges =  -1.00000
 Mulliken charges with hydrogens summed into heavy atoms:
               1
     1  C    1.006802
     2  C   -3.150838
     6  C    1.103519
    10  C    0.191262
    11  C   -0.397181
    14  C    0.075629
    15  C   -0.351192
    18  C    0.611398
    22  C   -0.032532
    23  C   -0.104856
    24  C    0.389845
    27  C   -1.167775
    30  C    0.626200
    31  C    0.209814
    35  C   -0.010094
 Electronic spatial extent (au):  <R**2>=           3549.6516
 Charge=             -1.0000 electrons
 Dipole moment (field-independent basis, Debye):
    X=              1.2831    Y=             -0.4770    Z=              0.3238  Tot=              1.4066
 Unable to Open any file for archive entry.
 1\1\GINC-SE205\Stability\RHF\Aug-CC-pVDZ\C15H25\OHZDE\21-Sep-2024\0\\#
 t hf aug-cc-pvdz symm=none int=(grid=ultrafine) guess=(read,tcheck) st
 able=(opt,rrhf)\\title\\-1,1\C,0,3.415369,-0.625664,-1.249144\C,0,2.59
 4564,-0.084837,-0.074413\H,0,4.045881,-1.469069,-0.945939\H,0,4.067947
 ,0.155316,-1.655399\H,0,2.758074,-0.966526,-2.053575\C,0,3.542988,0.20
 1285,1.093123\H,0,3.987824,-0.724508,1.475542\H,0,3.005241,0.68262,1.9
 13866\H,0,4.356329,0.867095,0.784261\C,0,1.857273,1.217953,-0.490997\C
 ,0,0.550388,1.291932,0.2258\H,0,1.653901,1.172287,-1.571944\H,0,2.5649
 05,2.069652,-0.37221\C,0,-0.519618,2.231897,-0.302477\C,0,-1.835317,1.
 552846,-0.02049\H,0,-0.400085,2.3402,-1.387338\H,0,-0.491911,3.258423,
 0.120402\C,0,-2.237297,1.531197,1.426153\H,0,-1.489423,0.994177,2.0149
 77\H,0,-3.207262,1.061087,1.589502\H,0,-2.283609,2.555718,1.81387\C,0,
 -2.40786,0.803797,-0.961827\C,0,-3.171803,-0.462978,-0.734973\C,0,-2.1
 47744,-1.626269,-0.899243\H,0,-3.990563,-0.595834,-1.455907\H,0,-3.612
 472,-0.499997,0.264428\C,0,-0.953316,-1.616466,0.025277\H,0,-1.796525,
 -1.591528,-1.939648\H,0,-2.695799,-2.577198,-0.793516\C,0,0.183814,-0.
 899191,-0.292425\C,0,-1.207591,-2.126886,1.416377\H,0,-1.770093,-1.418
 963,2.05433\H,0,-0.280266,-2.348361,1.951718\H,0,-1.797908,-3.054419,1
 .401281\C,0,1.528132,-1.11401,0.368873\H,0,1.898889,-2.129515,0.158895
 \H,0,1.403056,-1.055215,1.452608\H,0,0.255764,-0.619028,-1.343944\H,0,
 0.662569,1.35215,1.313376\H,0,-1.996343,0.893804,-1.967313\\Version=ES
 64L-G16RevC.01\HF=-582.4650677\RMSD=4.296e-09\Dipole=0.5047915,-0.1876
 66,0.1274019\Quadrupole=-6.0379745,-3.1542358,9.1922103,-0.7992359,-1.
 1742776,0.6253572\PG=Unknown\\@
 The archive entry for this job was punched.


 The chemist is a guest at the physicist's table and
 frequently dines well.
                   -- Richard Bersohn
 Job cpu time:       0 days  5 hours 10 minutes 23.7 seconds.
 Elapsed time:       0 days  0 hours 20 minutes 15.4 seconds.
 File lengths (MBytes):  RWF=   1175 Int=      0 D2E=      0 Chk=     39 Scr=      1
 Normal termination of Gaussian 16 at Sat Sep 21 00:22:47 2024.
 Initial command:
 /arc/software/Gaussian/g16.c01/l1.exe "/tmp/slurm/2341460/Gau-2860895.inp" -scrdir="/tmp/slurm/2341460/"
 Entering Link 1 = /arc/software/Gaussian/g16.c01/l1.exe PID=   2863860.
  
 Copyright (c) 1988-2019, Gaussian, Inc.  All Rights Reserved.
  
 This is part of the Gaussian(R) 16 program.  It is based on
 the Gaussian(R) 09 system (copyright 2009, Gaussian, Inc.),
 the Gaussian(R) 03 system (copyright 2003, Gaussian, Inc.),
 the Gaussian(R) 98 system (copyright 1998, Gaussian, Inc.),
 the Gaussian(R) 94 system (copyright 1995, Gaussian, Inc.),
 the Gaussian 92(TM) system (copyright 1992, Gaussian, Inc.),
 the Gaussian 90(TM) system (copyright 1990, Gaussian, Inc.),
 the Gaussian 88(TM) system (copyright 1988, Gaussian, Inc.),
 the Gaussian 86(TM) system (copyright 1986, Carnegie Mellon
 University), and the Gaussian 82(TM) system (copyright 1983,
 Carnegie Mellon University). Gaussian is a federally registered
 trademark of Gaussian, Inc.
  
 This software contains proprietary and confidential information,
 including trade secrets, belonging to Gaussian, Inc.
  
 This software is provided under written license and may be
 used, copied, transmitted, or stored only in accord with that
 written license.
  
 The following legend is applicable only to US Government
 contracts under FAR:
  
                    RESTRICTED RIGHTS LEGEND
  
 Use, reproduction and disclosure by the US Government is
 subject to restrictions as set forth in subparagraphs (a)
 and (c) of the Commercial Computer Software - Restricted
 Rights clause in FAR 52.227-19.
  
 Gaussian, Inc.
 340 Quinnipiac St., Bldg. 40, Wallingford CT 06492
  
  
 ---------------------------------------------------------------
 Warning -- This program may not be used in any manner that
 competes with the business of Gaussian, Inc. or will provide
 assistance to any competitor of Gaussian, Inc.  The licensee
 of this program is prohibited from giving any competitor of
 Gaussian, Inc. access to this program.  By using this program,
 the user acknowledges that Gaussian, Inc. is engaged in the
 business of creating and licensing software in the field of
 computational chemistry and represents and warrants to the
 licensee that it is not a competitor of Gaussian, Inc. and that
 it will not use this program in any manner prohibited above.
 ---------------------------------------------------------------
  

 Cite this work as:
 Gaussian 16, Revision C.01,
 M. J. Frisch, G. W. Trucks, H. B. Schlegel, G. E. Scuseria, 
 M. A. Robb, J. R. Cheeseman, G. Scalmani, V. Barone, 
 G. A. Petersson, H. Nakatsuji, X. Li, M. Caricato, A. V. Marenich, 
 J. Bloino, B. G. Janesko, R. Gomperts, B. Mennucci, H. P. Hratchian, 
 J. V. Ortiz, A. F. Izmaylov, J. L. Sonnenberg, D. Williams-Young, 
 F. Ding, F. Lipparini, F. Egidi, J. Goings, B. Peng, A. Petrone, 
 T. Henderson, D. Ranasinghe, V. G. Zakrzewski, J. Gao, N. Rega, 
 G. Zheng, W. Liang, M. Hada, M. Ehara, K. Toyota, R. Fukuda, 
 J. Hasegawa, M. Ishida, T. Nakajima, Y. Honda, O. Kitao, H. Nakai, 
 T. Vreven, K. Throssell, J. A. Montgomery, Jr., J. E. Peralta, 
 F. Ogliaro, M. J. Bearpark, J. J. Heyd, E. N. Brothers, K. N. Kudin, 
 V. N. Staroverov, T. A. Keith, R. Kobayashi, J. Normand, 
 K. Raghavachari, A. P. Rendell, J. C. Burant, S. S. Iyengar, 
 J. Tomasi, M. Cossi, J. M. Millam, M. Klene, C. Adamo, R. Cammi, 
 J. W. Ochterski, R. L. Martin, K. Morokuma, O. Farkas, 
 J. B. Foresman, and D. J. Fox, Gaussian, Inc., Wallingford CT, 2019.
 
 ******************************************
 Gaussian 16:  ES64L-G16RevC.01  3-Jul-2019
                21-Sep-2024 
 ******************************************
 %nprocs=16
 Will use up to   16 processors via shared memory.
 %mem=30GB
 %chk=09_23TS.chk
 ----------------------------------------------------------------------
 #t symm=none mp2 aug-cc-pvdz geom=allcheck guess=(read,tcheck) int=(gr
 id=ultrafine)
 ----------------------------------------------------------------------
 Structure from the checkpoint file:  "09_23TS.chk"
 -----
 title
 -----
 Charge = -1 Multiplicity = 1
 Z-Matrix found in chk file.
 C,0,3.415369,-0.625664,-1.249144
 C,0,2.594564,-0.084837,-0.074413
 H,0,4.045881,-1.469069,-0.945939
 H,0,4.067947,0.155316,-1.655399
 H,0,2.758074,-0.966526,-2.053575
 C,0,3.542988,0.201285,1.093123
 H,0,3.987824,-0.724508,1.475542
 H,0,3.005241,0.68262,1.913866
 H,0,4.356329,0.867095,0.784261
 C,0,1.857273,1.217953,-0.490997
 C,0,0.550388,1.291932,0.2258
 H,0,1.653901,1.172287,-1.571944
 H,0,2.564905,2.069652,-0.37221
 C,0,-0.519618,2.231897,-0.302477
 C,0,-1.835317,1.552846,-0.02049
 H,0,-0.400085,2.3402,-1.387338
 H,0,-0.491911,3.258423,0.120402
 C,0,-2.237297,1.531197,1.426153
 H,0,-1.489423,0.994177,2.014977
 H,0,-3.207262,1.061087,1.589502
 H,0,-2.283609,2.555718,1.81387
 C,0,-2.40786,0.803797,-0.961827
 C,0,-3.171803,-0.462978,-0.734973
 C,0,-2.147744,-1.626269,-0.899243
 H,0,-3.990563,-0.595834,-1.455907
 H,0,-3.612472,-0.499997,0.264428
 C,0,-0.953316,-1.616466,0.025277
 H,0,-1.796525,-1.591528,-1.939648
 H,0,-2.695799,-2.577198,-0.793516
 C,0,0.183814,-0.899191,-0.292425
 C,0,-1.207591,-2.126886,1.416377
 H,0,-1.770093,-1.418963,2.05433
 H,0,-0.280266,-2.348361,1.951718
 H,0,-1.797908,-3.054419,1.401281
 C,0,1.528132,-1.11401,0.368873
 H,0,1.898889,-2.129515,0.158895
 H,0,1.403056,-1.055215,1.452608
 H,0,0.255764,-0.619028,-1.343944
 H,0,0.662569,1.35215,1.313376
 H,0,-1.996343,0.893804,-1.967313
 Recover connectivity data from disk.
                    Distance matrix (angstroms):
                    1          2          3          4          5
     1  C    0.000000
     2  C    1.531734   0.000000
     3  H    1.095815   2.186773   0.000000
     4  H    1.095824   2.174407   1.772695   0.000000
     5  H    1.093313   2.172831   1.771399   1.769983   0.000000
     6  C    2.487237   1.531181   2.683423   2.798583   3.446967
     7  H    2.785927   2.180072   2.534031   3.253199   3.745067
     8  H    3.447382   2.170461   3.727088   3.761256   4.303645
     9  H    2.692298   2.178833   2.923633   2.557681   3.737633
    10  C    2.530094   1.553835   3.495292   2.715163   2.832850
    11  C    3.749767   2.482796   4.605928   4.147774   3.894876
    12  H    2.537636   2.169748   3.618040   2.620842   2.454728
    13  H    2.959228   2.175175   3.878789   2.751434   3.476015
    14  C    4.954388   3.888110   5.912273   5.214244   4.903011
    15  C    5.815944   4.723215   6.676595   6.282877   5.619601
    16  H    4.834577   4.070933   5.871284   4.980852   4.620852
    17  H    5.677026   4.554302   6.639113   5.794398   5.756629
    18  C    6.615277   5.311322   7.355729   7.151581   6.580339
    19  H    6.110266   4.712618   6.743456   6.712653   6.199895
    20  H    7.400154   6.143528   8.089390   8.017385   7.277943
    21  H    7.209826   5.859583   7.992365   7.624960   7.265115
    22  C    6.002991   5.157656   6.842291   6.545047   5.568917
    23  C    6.609211   5.816384   7.290520   7.324169   6.095549
    24  C    5.663203   5.054289   6.195796   6.510041   5.082794
    25  H    7.408878   6.747855   8.099817   8.095901   6.785184
    26  H    7.190079   6.230126   7.813735   7.943803   6.795193
    27  C    4.657386   3.865654   5.094797   5.583634   4.303308
    28  H    5.345421   5.003087   5.927576   6.125708   4.598693
    29  H    6.431365   5.892106   6.833845   7.345593   5.824667
    30  C    3.381283   2.553902   3.958207   4.249255   3.119775
    31  C    5.543503   4.566049   5.797605   6.517327   5.395693
    32  H    6.199297   5.036037   6.544439   7.093881   6.130569
    33  H    5.183717   4.182511   5.280636   6.179535   5.213765
    34  H    6.332603   5.503626   6.494047   7.352139   6.087060
    35  C    2.533402   1.546925   2.862491   3.487051   2.720802
    36  H    2.558096   2.172350   2.503282   3.635509   2.643060
    37  H    3.396083   2.166361   3.592886   4.269278   3.759955
    38  H    3.161034   2.714232   3.904608   3.902480   2.624097
    39  H    4.249255   2.779118   4.950816   4.673611   4.593883
    40  H    5.666672   5.061347   6.567712   6.117047   5.106148
                    6          7          8          9         10
     6  C    0.000000
     7  H    1.096000   0.000000
     8  H    1.092920   1.771329   0.000000
     9  H    1.095547   1.773941   1.770728   0.000000
    10  C    2.526793   3.489940   2.718047   2.827484   0.000000
    11  C    3.301123   4.176584   3.040910   3.870084   1.492387
    12  H    3.407943   4.281612   3.770513   3.598328   1.100860
    13  H    2.568004   3.639535   2.709963   2.448013   1.113663
    14  C    4.751405   5.676153   4.442642   5.178662   2.590991
    15  C    5.656237   6.429108   5.284887   6.281270   3.737479
    16  H    5.125960   6.069783   5.024118   5.432251   2.675543
    17  H    5.154870   6.145581   4.699079   5.446521   3.171118
    18  C    5.940646   6.621388   5.333118   6.658000   4.532007
    19  H    5.177224   5.765857   4.506584   5.975251   4.186927
    20  H    6.822868   7.414216   6.232467   7.608808   5.477463
    21  H    6.325509   7.085564   5.611633   6.928226   4.924320
    22  C    6.324431   7.012935   6.130739   6.986207   4.310982
    23  C    6.990822   7.497669   6.817963   7.794225   5.308169
    24  C    6.300310   6.640630   6.308550   7.166172   4.929140
    25  H    7.992956   8.500859   7.869631   8.765222   6.198230
    26  H    7.237343   7.699461   6.921947   8.101911   5.782744
    27  C    4.966011   5.226253   4.952044   5.910707   4.024908
    28  H    6.397052   6.773030   6.563404   7.163946   4.831357
    29  H    7.085326   7.297390   7.103393   8.005313   5.935078
    30  C    3.796688   4.198418   3.915392   4.657134   2.705955
    31  C    5.300271   5.381682   5.088101   6.349858   4.921322
    32  H    5.637194   5.828454   5.219214   6.661245   5.156530
    33  H    4.674949   4.591322   4.470216   5.761955   4.822295
    34  H    6.262567   6.237683   6.107245   7.323498   5.932472
    35  C    2.512804   2.725163   2.792263   3.477934   2.507142
    36  H    3.001412   2.840995   3.494573   3.925527   3.410225
    37  H    2.507455   2.605939   2.408283   3.586612   3.025096
    38  H    4.173494   4.678557   4.457268   4.853087   2.582024
    39  H    3.109633   3.923790   2.509377   3.762858   2.168199
    40  H    6.366321   7.091011   6.334350   6.923028   4.139437
                   11         12         13         14         15
    11  C    0.000000
    12  H    2.112804   0.000000
    13  H    2.240701   1.753441   0.000000
    14  C    1.519054   2.731026   3.089574   0.000000
    15  C    2.412535   3.837509   4.444406   1.507213   0.000000
    16  H    2.145805   2.370012   3.145608   1.096787   2.132625
    17  H    2.228134   3.438096   3.316620   1.110563   2.175680
    18  C    3.044550   4.925325   5.156083   2.535658   1.501610
    19  H    2.729586   4.772652   4.826270   2.800547   2.138897
    20  H    4.004111   5.799829   6.179274   3.489099   2.171666
    21  H    3.485780   5.374161   5.340720   2.774067   2.138129
    22  C    3.224898   4.123825   5.165117   2.457574   1.332289
    23  C    4.225813   5.163529   6.281372   3.805718   2.521949
    24  C    4.130561   4.768327   6.012209   4.229937   3.313094
    25  H    5.197310   5.916054   7.159146   4.623194   3.364867
    26  H    4.532318   5.822670   6.720743   4.165378   2.730132
    27  C    3.280261   4.138338   5.111100   3.886568   3.290070
    28  H    4.302500   4.436138   5.906198   4.350793   3.683987
    29  H    5.152369   5.795212   7.031765   5.301347   4.288970
    30  C    2.281218   2.844178   3.806572   3.209148   3.187997
    31  C    4.024460   5.291762   5.919603   4.735690   3.999882
    32  H    4.009627   5.620336   6.070481   4.521837   3.625022
    33  H    4.113455   5.343422   5.745823   5.110523   4.639742
    34  H    5.078092   6.214507   6.959563   5.699294   4.821797
    35  C    2.600963   3.001623   3.429257   3.979835   4.310048
    36  H    3.678210   3.736003   4.284700   5.008388   5.247500
    37  H    2.782301   3.764652   3.800611   4.193102   4.411242
    38  H    2.490516   2.283765   3.674969   3.132674   3.292596
    39  H    1.095003   3.056168   2.641002   2.186893   2.838822
    40  H    3.384389   3.682139   4.973123   2.596707   2.061646
                   16         17         18         19         20
    16  H    0.000000
    17  H    1.767723   0.000000
    18  C    3.456236   2.781127   0.000000
    19  H    3.817615   3.116289   1.092895   0.000000
    20  H    4.286951   3.789416   1.090192   1.771010   0.000000
    21  H    3.720463   2.563554   1.096409   1.763402   1.771270
    22  C    2.563738   3.296554   2.502129   3.121079   2.685986
    23  C    3.995724   4.665009   3.085531   3.537786   2.779787
    24  C    4.361814   5.257535   3.922382   3.974016   3.812914
    25  H    4.638591   5.438806   3.988041   4.564085   3.554358
    26  H    4.595050   4.887163   2.714122   3.131184   2.087343
    27  C    4.237541   4.897600   3.676798   3.325924   3.833584
    28  H    4.208750   5.428430   4.612408   4.734896   4.634808
    29  H    5.459279   6.304510   4.692128   4.700819   4.379211
    30  C    3.468923   4.232350   3.836936   3.421793   4.345542
    31  C    5.335517   5.585096   3.800258   3.190421   3.767204
    32  H    5.277623   5.220322   3.052266   2.429726   2.903820
    33  H    5.757279   5.902079   4.376889   3.555084   4.508086
    34  H    6.231550   6.572538   4.606686   4.106448   4.354204
    35  C    4.328263   4.822912   4.721590   4.032338   5.352097
    36  H    5.258752   5.894683   5.666991   4.968214   6.188647
    37  H    4.779692   4.896238   4.465691   3.589248   5.074693
    38  H    3.031345   4.211645   4.302587   4.114664   4.839467
    39  H    3.065833   2.527823   2.907576   2.291606   3.890573
    40  H    2.230801   3.494752   3.461205   4.015679   3.761016
                   21         22         23         24         25
    21  H    0.000000
    22  C    3.284686   0.000000
    23  C    4.049446   1.496593   0.000000
    24  C    4.986828   2.444749   1.558502   0.000000
    25  H    4.851537   2.169800   1.098983   2.183496   0.000000
    26  H    3.674785   2.157468   1.092869   2.183586   1.763998
    27  C    4.730313   2.991278   2.613465   1.510461   3.529938
    28  H    5.614784   2.658467   2.148548   1.098637   2.457481
    29  H    5.771931   3.397406   2.167933   1.102637   2.457840
    30  C    4.739309   3.172545   3.412667   2.516552   4.344092
    31  C    4.821058   3.960480   3.354851   2.548843   4.282414
    32  H    4.014923   3.800607   3.264799   2.984827   4.234359
    33  H    5.299281   4.790772   4.374239   3.483801   5.333813
    34  H    5.646218   4.565321   3.628600   2.730276   4.360722
    35  C    5.484915   4.576110   4.871520   3.922065   5.835608
    36  H    6.494893   5.329955   5.411863   4.212855   6.296460
    37  H    5.173089   4.879396   5.105447   4.297149   6.145048
    38  H    5.147739   3.043902   3.484740   2.643699   4.247866
    39  H    3.221651   3.860670   4.710927   4.654516   5.754581
    40  H    4.140269   1.090160   2.177436   2.741252   2.541155
                   26         27         28         29         30
    26  H    0.000000
    27  C    2.893926   0.000000
    28  H    3.057295   2.138353   0.000000
    29  H    2.504855   2.151668   1.758937   0.000000
    30  C    3.857620   1.381478   2.667286   3.370307   0.000000
    31  C    3.123653   1.503444   3.449109   2.702068   2.522548
    32  H    2.728114   2.196176   3.997792   3.210711   3.097608
    33  H    4.167373   2.167912   4.244357   3.663806   2.711391
    34  H    3.333189   2.162043   3.647171   2.418901   3.382435
    35  C    5.178198   2.555016   4.075615   4.618838   1.513490
    36  H    5.748179   2.901060   4.283620   4.713668   2.158441
    37  H    5.184164   2.811541   4.693863   4.915498   2.134487
    38  H    4.190976   2.081231   2.347873   3.584568   1.090578
    39  H    4.775638   3.617038   5.029369   5.581882   2.806482
    40  H    3.087915   3.370427   2.493505   3.730267   3.282250
                   31         32         33         34         35
    31  C    0.000000
    32  H    1.106593   0.000000
    33  H    1.093423   1.758947   0.000000
    34  H    1.099554   1.761239   1.762026   0.000000
    35  C    3.099575   3.716457   2.701726   3.986677   0.000000
    36  H    3.351341   4.190344   2.830340   4.008151   1.101273
    37  H    2.822281   3.250116   2.180576   3.774337   1.092512
    38  H    3.469066   4.036367   3.760227   4.205349   2.190358
    39  H    3.951177   3.761107   3.871718   5.047725   2.779070
    40  H    4.603917   4.644749   5.367994   5.193772   4.680919
                   36         37         38         39         40
    36  H    0.000000
    37  H    1.753187   0.000000
    38  H    2.690717   3.054053   0.000000
    39  H    3.870827   2.522521   3.333524   0.000000
    40  H    5.369735   5.201005   2.783745   4.247683   0.000000
 Symmetry turned off by external request.
 Rotational constants (GHZ):           0.9111486           0.4344998           0.3675330
   570 basis functions,   920 primitive gaussians,   600 cartesian basis functions
    58 alpha electrons       58 beta electrons
       nuclear repulsion energy      1077.9066164422 Hartrees.
 NAtoms=   40 NActive=   40 NUniq=   40 SFac= 1.00D+00 NAtFMM=   60 NAOKFM=F Big=F
 Initial guess from the checkpoint file:  "09_23TS.chk"
 B after Tr=     0.000000    0.000000    0.000000
         Rot=    1.000000    0.000000    0.000000    0.000000 Ang=   0.00 deg.
 SCF Done:  E(RHF) =  -582.465067720     A.U. after    1 cycles
            NFock=  1  Conv=0.58D-08     -V/T= 2.0005
 ExpMin= 2.97D-02 ExpMax= 6.67D+03 ExpMxC= 2.28D+02 IAcc=3 IRadAn=         5 AccDes= 0.00D+00
 HarFok:  IExCor=  205 AccDes= 0.00D+00 IRadAn=         5 IDoV=-2 UseB2=F ITyADJ=14
 ICtDFT= 12500011 ScaDFX=  1.000000  1.000000  1.000000  1.000000
 NROrb=    555 NOA=    43 NOB=    43 NVA=   512 NVB=   512

 **** Warning!!: The largest alpha MO coefficient is  0.94196681D+02

 Estimated scratch disk usage= 15495174656 words.
 Actual    scratch disk usage= 11501935616 words.
 ANorm=    0.1350834702D+01
 E2 =    -0.2265571873D+01 EUMP2 =    -0.58473063959277D+03

 **********************************************************************

            Population analysis using the SCF Density.

 **********************************************************************

 Alpha  occ. eigenvalues --  -11.09546 -11.09442 -11.09379 -11.08740 -11.08720
 Alpha  occ. eigenvalues --  -11.08561 -11.08474 -11.07716 -11.07462 -11.07214
 Alpha  occ. eigenvalues --  -11.06814 -11.06548 -11.06477 -11.02052 -10.99981
 Alpha  occ. eigenvalues --   -0.98285  -0.96271  -0.92000  -0.87460  -0.83680
 Alpha  occ. eigenvalues --   -0.81624  -0.80733  -0.78705  -0.76435  -0.72624
 Alpha  occ. eigenvalues --   -0.68361  -0.61365  -0.57560  -0.56105  -0.55208
 Alpha  occ. eigenvalues --   -0.50618  -0.47945  -0.47518  -0.45928  -0.45772
 Alpha  occ. eigenvalues --   -0.45215  -0.43868  -0.43206  -0.41642  -0.40898
 Alpha  occ. eigenvalues --   -0.40565  -0.39631  -0.38172  -0.37736  -0.36901
 Alpha  occ. eigenvalues --   -0.36681  -0.35720  -0.34612  -0.33915  -0.32463
 Alpha  occ. eigenvalues --   -0.31477  -0.30791  -0.29051  -0.28333  -0.27972
 Alpha  occ. eigenvalues --   -0.18776  -0.16787  -0.02933
 Alpha virt. eigenvalues --    0.11447   0.11813   0.12050   0.12292   0.12887
 Alpha virt. eigenvalues --    0.13294   0.13423   0.14052   0.14196   0.14904
 Alpha virt. eigenvalues --    0.15267   0.15348   0.15554   0.16103   0.16359
 Alpha virt. eigenvalues --    0.17140   0.17702   0.17833   0.18238   0.18365
 Alpha virt. eigenvalues --    0.19215   0.19446   0.20717   0.20998   0.21470
 Alpha virt. eigenvalues --    0.21659   0.22735   0.23128   0.23663   0.23702
 Alpha virt. eigenvalues --    0.23878   0.24098   0.24807   0.25275   0.25426
 Alpha virt. eigenvalues --    0.25702   0.25965   0.26281   0.26921   0.27390
 Alpha virt. eigenvalues --    0.27813   0.28344   0.28397   0.29061   0.29258
 Alpha virt. eigenvalues --    0.29339   0.29922   0.30149   0.30536   0.30876
 Alpha virt. eigenvalues --    0.31072   0.31407   0.31533   0.32096   0.32588
 Alpha virt. eigenvalues --    0.32854   0.33068   0.33350   0.33849   0.34016
 Alpha virt. eigenvalues --    0.34523   0.34770   0.35012   0.35188   0.35493
 Alpha virt. eigenvalues --    0.35892   0.36635   0.37085   0.37753   0.37976
 Alpha virt. eigenvalues --    0.38822   0.39214   0.39392   0.40054   0.40265
 Alpha virt. eigenvalues --    0.40920   0.41257   0.41808   0.42207   0.42627
 Alpha virt. eigenvalues --    0.43127   0.43460   0.43601   0.44992   0.45196
 Alpha virt. eigenvalues --    0.46051   0.46293   0.46662   0.47911   0.48661
 Alpha virt. eigenvalues --    0.48840   0.49360   0.49504   0.50038   0.50606
 Alpha virt. eigenvalues --    0.51051   0.51425   0.51794   0.52233   0.52755
 Alpha virt. eigenvalues --    0.53268   0.53614   0.54074   0.54370   0.55146
 Alpha virt. eigenvalues --    0.55403   0.55705   0.56003   0.56932   0.57136
 Alpha virt. eigenvalues --    0.57339   0.57674   0.58280   0.58857   0.59322
 Alpha virt. eigenvalues --    0.59859   0.59947   0.60087   0.60194   0.60729
 Alpha virt. eigenvalues --    0.61142   0.61589   0.61723   0.62366   0.62602
 Alpha virt. eigenvalues --    0.63135   0.63400   0.63584   0.63957   0.64402
 Alpha virt. eigenvalues --    0.64864   0.65072   0.65345   0.65633   0.65933
 Alpha virt. eigenvalues --    0.66484   0.67152   0.67625   0.68109   0.68479
 Alpha virt. eigenvalues --    0.68610   0.69189   0.69444   0.70231   0.70284
 Alpha virt. eigenvalues --    0.70637   0.71183   0.71302   0.72601   0.72916
 Alpha virt. eigenvalues --    0.73144   0.73560   0.73779   0.74128   0.74634
 Alpha virt. eigenvalues --    0.75004   0.75652   0.76170   0.76310   0.76812
 Alpha virt. eigenvalues --    0.77329   0.77767   0.78180   0.78543   0.79581
 Alpha virt. eigenvalues --    0.79920   0.79999   0.80766   0.81004   0.81944
 Alpha virt. eigenvalues --    0.82083   0.82448   0.82599   0.83210   0.83561
 Alpha virt. eigenvalues --    0.84068   0.84740   0.85132   0.85688   0.85777
 Alpha virt. eigenvalues --    0.86211   0.86387   0.86760   0.87611   0.87863
 Alpha virt. eigenvalues --    0.88029   0.88525   0.88908   0.89115   0.89679
 Alpha virt. eigenvalues --    0.90016   0.90498   0.90762   0.91337   0.91931
 Alpha virt. eigenvalues --    0.92274   0.92681   0.92940   0.93986   0.94171
 Alpha virt. eigenvalues --    0.94481   0.94985   0.95618   0.95821   0.96135
 Alpha virt. eigenvalues --    0.96390   0.96695   0.97350   0.98138   0.98289
 Alpha virt. eigenvalues --    0.98835   0.99167   0.99662   0.99887   1.00573
 Alpha virt. eigenvalues --    1.00881   1.01407   1.01820   1.02429   1.02652
 Alpha virt. eigenvalues --    1.03133   1.03515   1.04227   1.04356   1.04755
 Alpha virt. eigenvalues --    1.05481   1.05597   1.06103   1.06524   1.07316
 Alpha virt. eigenvalues --    1.07618   1.07962   1.08160   1.08618   1.09318
 Alpha virt. eigenvalues --    1.09780   1.10169   1.10328   1.10902   1.11655
 Alpha virt. eigenvalues --    1.12125   1.12710   1.13625   1.14087   1.14581
 Alpha virt. eigenvalues --    1.14967   1.16097   1.16583   1.16870   1.17094
 Alpha virt. eigenvalues --    1.17337   1.18123   1.18546   1.19695   1.20631
 Alpha virt. eigenvalues --    1.20940   1.21234   1.21863   1.22085   1.23966
 Alpha virt. eigenvalues --    1.24521   1.25315   1.26171   1.27178   1.27342
 Alpha virt. eigenvalues --    1.28144   1.29200   1.29910   1.30532   1.30861
 Alpha virt. eigenvalues --    1.31823   1.32449   1.33326   1.34186   1.34824
 Alpha virt. eigenvalues --    1.35068   1.35829   1.36814   1.37620   1.39587
 Alpha virt. eigenvalues --    1.40469   1.41334   1.41638   1.43135   1.43755
 Alpha virt. eigenvalues --    1.44256   1.45090   1.46905   1.47359   1.48842
 Alpha virt. eigenvalues --    1.49832   1.51529   1.52371   1.53174   1.54052
 Alpha virt. eigenvalues --    1.55537   1.56512   1.56700   1.57365   1.58918
 Alpha virt. eigenvalues --    1.60293   1.60458   1.61588   1.62752   1.64548
 Alpha virt. eigenvalues --    1.65203   1.65697   1.67235   1.67405   1.69029
 Alpha virt. eigenvalues --    1.70523   1.71404   1.72324   1.73784   1.74395
 Alpha virt. eigenvalues --    1.74531   1.77866   1.78525   1.79328   1.80515
 Alpha virt. eigenvalues --    1.81298   1.82227   1.83812   1.84462   1.84961
 Alpha virt. eigenvalues --    1.85478   1.86602   1.87739   1.88084   1.88650
 Alpha virt. eigenvalues --    1.89632   1.91480   1.92001   1.92439   1.94267
 Alpha virt. eigenvalues --    1.94536   1.97071   1.97491   1.98065   1.99074
 Alpha virt. eigenvalues --    1.99439   2.00265   2.01258   2.02197   2.03704
 Alpha virt. eigenvalues --    2.04010   2.05263   2.06028   2.06652   2.07251
 Alpha virt. eigenvalues --    2.08042   2.08895   2.09427   2.10519   2.11153
 Alpha virt. eigenvalues --    2.11768   2.12077   2.12978   2.13742   2.14850
 Alpha virt. eigenvalues --    2.15041   2.15988   2.16450   2.18074   2.18288
 Alpha virt. eigenvalues --    2.19072   2.20045   2.21214   2.21696   2.22474
 Alpha virt. eigenvalues --    2.23091   2.23683   2.24448   2.24924   2.25700
 Alpha virt. eigenvalues --    2.27205   2.28310   2.28699   2.29773   2.30203
 Alpha virt. eigenvalues --    2.31476   2.32429   2.32729   2.33773   2.34542
 Alpha virt. eigenvalues --    2.35541   2.36283   2.37139   2.37829   2.38290
 Alpha virt. eigenvalues --    2.38625   2.39973   2.41109   2.41754   2.42610
 Alpha virt. eigenvalues --    2.42834   2.44660   2.44884   2.45747   2.46934
 Alpha virt. eigenvalues --    2.47383   2.48334   2.48545   2.49395   2.49719
 Alpha virt. eigenvalues --    2.50408   2.52386   2.53221   2.53620   2.54449
 Alpha virt. eigenvalues --    2.55911   2.56214   2.56957   2.57170   2.58785
 Alpha virt. eigenvalues --    2.59090   2.60316   2.60610   2.60938   2.61684
 Alpha virt. eigenvalues --    2.63185   2.63438   2.63807   2.65148   2.65755
 Alpha virt. eigenvalues --    2.67014   2.67695   2.68506   2.69322   2.69979
 Alpha virt. eigenvalues --    2.71075   2.72582   2.73117   2.73955   2.74967
 Alpha virt. eigenvalues --    2.75678   2.76420   2.76932   2.78803   2.79376
 Alpha virt. eigenvalues --    2.80529   2.81062   2.82981   2.83319   2.84370
 Alpha virt. eigenvalues --    2.85284   2.86362   2.87240   2.88145   2.89215
 Alpha virt. eigenvalues --    2.90048   2.90300   2.90907   2.92327   2.93551
 Alpha virt. eigenvalues --    2.93721   2.94942   2.95294   2.96626   2.97059
 Alpha virt. eigenvalues --    2.98043   3.00807   3.01455   3.02545   3.03379
 Alpha virt. eigenvalues --    3.03908   3.05000   3.05514   3.07474   3.08168
 Alpha virt. eigenvalues --    3.08917   3.09849   3.10971   3.12340   3.13958
 Alpha virt. eigenvalues --    3.15072   3.16620   3.17690   3.19980   3.21952
 Alpha virt. eigenvalues --    3.22794   3.23326   3.24337   3.26793   3.27839
 Alpha virt. eigenvalues --    3.29164   3.29602   3.32290   3.33906   3.34472
 Alpha virt. eigenvalues --    3.38948   3.40374   3.41592   3.43079   3.45122
 Alpha virt. eigenvalues --    3.46877   3.48768   3.52842   3.53124   3.53884
 Alpha virt. eigenvalues --    3.59681   3.62377   3.67456   3.74481   3.79010
 Alpha virt. eigenvalues --    3.84009   4.03466   4.18289   4.33660   4.46927
 Alpha virt. eigenvalues --    4.68600   5.15169
          Condensed to atoms (all electrons):
 Mulliken charges:
               1
     1  C    1.075613
     2  C   -3.150838
     3  H   -0.055877
     4  H   -0.058115
     5  H    0.045181
     6  C    1.197084
     7  H   -0.053616
     8  H    0.051292
     9  H   -0.091242
    10  C    0.680049
    11  C    0.480417
    12  H   -0.206611
    13  H   -0.282176
    14  C    0.356653
    15  C   -0.351192
    16  H   -0.111643
    17  H   -0.169381
    18  C    0.699251
    19  H    0.115665
    20  H   -0.157972
    21  H   -0.045546
    22  C    0.541972
    23  C    0.297580
    24  C    0.803069
    25  H   -0.168642
    26  H   -0.233795
    27  C   -1.167775
    28  H   -0.147087
    29  H   -0.266137
    30  C    1.510369
    31  C    0.659259
    32  H   -0.119114
    33  H   -0.198103
    34  H   -0.132229
    35  C    0.442658
    36  H   -0.261244
    37  H   -0.191508
    38  H   -0.884169
    39  H   -0.877598
    40  H   -0.574504
 Sum of Mulliken charges =  -1.00000
 Mulliken charges with hydrogens summed into heavy atoms:
               1
     1  C    1.006802
     2  C   -3.150838
     6  C    1.103519
    10  C    0.191262
    11  C   -0.397181
    14  C    0.075629
    15  C   -0.351192
    18  C    0.611398
    22  C   -0.032532
    23  C   -0.104856
    24  C    0.389845
    27  C   -1.167775
    30  C    0.626200
    31  C    0.209814
    35  C   -0.010094
 Electronic spatial extent (au):  <R**2>=           3549.6516
 Charge=             -1.0000 electrons
 Dipole moment (field-independent basis, Debye):
    X=              1.2831    Y=             -0.4770    Z=              0.3238  Tot=              1.4066
 Unable to Open any file for archive entry.
 1\1\GINC-SE205\SP\RMP2-FC\Aug-CC-pVDZ\C15H25\OHZDE\21-Sep-2024\0\\#t s
 ymm=none mp2 aug-cc-pvdz geom=allcheck guess=(read,tcheck) int=(grid=u
 ltrafine)\\title\\-1,1\C,0,3.415369,-0.625664,-1.249144\C,0,2.594564,-
 0.084837,-0.074413\H,0,4.045881,-1.469069,-0.945939\H,0,4.067947,0.155
 316,-1.655399\H,0,2.758074,-0.966526,-2.053575\C,0,3.542988,0.201285,1
 .093123\H,0,3.987824,-0.724508,1.475542\H,0,3.005241,0.68262,1.913866\
 H,0,4.356329,0.867095,0.784261\C,0,1.857273,1.217953,-0.490997\C,0,0.5
 50388,1.291932,0.2258\H,0,1.653901,1.172287,-1.571944\H,0,2.564905,2.0
 69652,-0.37221\C,0,-0.519618,2.231897,-0.302477\C,0,-1.835317,1.552846
 ,-0.02049\H,0,-0.400085,2.3402,-1.387338\H,0,-0.491911,3.258423,0.1204
 02\C,0,-2.237297,1.531197,1.426153\H,0,-1.489423,0.994177,2.014977\H,0
 ,-3.207262,1.061087,1.589502\H,0,-2.283609,2.555718,1.81387\C,0,-2.407
 86,0.803797,-0.961827\C,0,-3.171803,-0.462978,-0.734973\C,0,-2.147744,
 -1.626269,-0.899243\H,0,-3.990563,-0.595834,-1.455907\H,0,-3.612472,-0
 .499997,0.264428\C,0,-0.953316,-1.616466,0.025277\H,0,-1.796525,-1.591
 528,-1.939648\H,0,-2.695799,-2.577198,-0.793516\C,0,0.183814,-0.899191
 ,-0.292425\C,0,-1.207591,-2.126886,1.416377\H,0,-1.770093,-1.418963,2.
 05433\H,0,-0.280266,-2.348361,1.951718\H,0,-1.797908,-3.054419,1.40128
 1\C,0,1.528132,-1.11401,0.368873\H,0,1.898889,-2.129515,0.158895\H,0,1
 .403056,-1.055215,1.452608\H,0,0.255764,-0.619028,-1.343944\H,0,0.6625
 69,1.35215,1.313376\H,0,-1.996343,0.893804,-1.967313\\Version=ES64L-G1
 6RevC.01\HF=-582.4650677\MP2=-584.7306396\RMSD=5.770e-09\PG=Unknown\\@
 The archive entry for this job was punched.


 WE LEARN WISDOM FROM FAILURE MUCH MORE THAN FROM SUCCESS.
 WE DISCOVER WHAT WILL DO BY FINDING OUT WHAT WILL NOT DO...
 AND HE WHO NEVER MADE A MISTAKE NEVER MADE A DISCOVERY
 Job cpu time:       0 days  2 hours 48 minutes 58.1 seconds.
 Elapsed time:       0 days  0 hours 30 minutes 55.4 seconds.
 File lengths (MBytes):  RWF=  87924 Int=      0 D2E=      0 Chk=     39 Scr=      1
 Normal termination of Gaussian 16 at Sat Sep 21 00:53:47 2024.
