 Entering Gaussian System, Link 0=g16
 Input=09_24P.gjf
 Output=09_24P.log
 Initial command:
 /arc/software/Gaussian/g16.c01/l1.exe "/tmp/slurm/2341461/Gau-2375365.inp" -scrdir="/tmp/slurm/2341461/"
 Entering Link 1 = /arc/software/Gaussian/g16.c01/l1.exe PID=   2375366.
  
 Copyright (c) 1988-2019, Gaussian, Inc.  All Rights Reserved.
  
 This is part of the Gaussian(R) 16 program.  It is based on
 the Gaussian(R) 09 system (copyright 2009, Gaussian, Inc.),
 the Gaussian(R) 03 system (copyright 2003, Gaussian, Inc.),
 the Gaussian(R) 98 system (copyright 1998, Gaussian, Inc.),
 the Gaussian(R) 94 system (copyright 1995, Gaussian, Inc.),
 the Gaussian 92(TM) system (copyright 1992, Gaussian, Inc.),
 the Gaussian 90(TM) system (copyright 1990, Gaussian, Inc.),
 the Gaussian 88(TM) system (copyright 1988, Gaussian, Inc.),
 the Gaussian 86(TM) system (copyright 1986, Carnegie Mellon
 University), and the Gaussian 82(TM) system (copyright 1983,
 Carnegie Mellon University). Gaussian is a federally registered
 trademark of Gaussian, Inc.
  
 This software contains proprietary and confidential information,
 including trade secrets, belonging to Gaussian, Inc.
  
 This software is provided under written license and may be
 used, copied, transmitted, or stored only in accord with that
 written license.
  
 The following legend is applicable only to US Government
 contracts under FAR:
  
                    RESTRICTED RIGHTS LEGEND
  
 Use, reproduction and disclosure by the US Government is
 subject to restrictions as set forth in subparagraphs (a)
 and (c) of the Commercial Computer Software - Restricted
 Rights clause in FAR 52.227-19.
  
 Gaussian, Inc.
 340 Quinnipiac St., Bldg. 40, Wallingford CT 06492
  
  
 ---------------------------------------------------------------
 Warning -- This program may not be used in any manner that
 competes with the business of Gaussian, Inc. or will provide
 assistance to any competitor of Gaussian, Inc.  The licensee
 of this program is prohibited from giving any competitor of
 Gaussian, Inc. access to this program.  By using this program,
 the user acknowledges that Gaussian, Inc. is engaged in the
 business of creating and licensing software in the field of
 computational chemistry and represents and warrants to the
 licensee that it is not a competitor of Gaussian, Inc. and that
 it will not use this program in any manner prohibited above.
 ---------------------------------------------------------------
  

 Cite this work as:
 Gaussian 16, Revision C.01,
 M. J. Frisch, G. W. Trucks, H. B. Schlegel, G. E. Scuseria, 
 M. A. Robb, J. R. Cheeseman, G. Scalmani, V. Barone, 
 G. A. Petersson, H. Nakatsuji, X. Li, M. Caricato, A. V. Marenich, 
 J. Bloino, B. G. Janesko, R. Gomperts, B. Mennucci, H. P. Hratchian, 
 J. V. Ortiz, A. F. Izmaylov, J. L. Sonnenberg, D. Williams-Young, 
 F. Ding, F. Lipparini, F. Egidi, J. Goings, B. Peng, A. Petrone, 
 T. Henderson, D. Ranasinghe, V. G. Zakrzewski, J. Gao, N. Rega, 
 G. Zheng, W. Liang, M. Hada, M. Ehara, K. Toyota, R. Fukuda, 
 J. Hasegawa, M. Ishida, T. Nakajima, Y. Honda, O. Kitao, H. Nakai, 
 T. Vreven, K. Throssell, J. A. Montgomery, Jr., J. E. Peralta, 
 F. Ogliaro, M. J. Bearpark, J. J. Heyd, E. N. Brothers, K. N. Kudin, 
 V. N. Staroverov, T. A. Keith, R. Kobayashi, J. Normand, 
 K. Raghavachari, A. P. Rendell, J. C. Burant, S. S. Iyengar, 
 J. Tomasi, M. Cossi, J. M. Millam, M. Klene, C. Adamo, R. Cammi, 
 J. W. Ochterski, R. L. Martin, K. Morokuma, O. Farkas, 
 J. B. Foresman, and D. J. Fox, Gaussian, Inc., Wallingford CT, 2019.
 
 ******************************************
 Gaussian 16:  ES64L-G16RevC.01  3-Jul-2019
                21-Sep-2024 
 ******************************************
 %nprocs=16
 Will use up to   16 processors via shared memory.
 %mem=30GB
 %chk=09_24P.chk
 ----------------------------------------------------------------------
 #t hf aug-cc-pvdz symm=none int=(grid=ultrafine) guess=(read,tcheck) s
 table=(opt,rrhf)
 ----------------------------------------------------------------------
 -----
 title
 -----
 Symbolic Z-matrix:
 Charge = -1 Multiplicity = 1
 C                    -3.35849   0.47425  -0.25091 
 C                    -3.54499  -1.03467  -0.13414 
 C                    -2.41438  -1.74908  -0.90531 
 H                    -4.53908  -1.30988  -0.52108 
 H                    -3.52205  -1.34029   0.91841 
 C                    -1.03478  -1.3759   -0.43349 
 H                    -2.5507   -1.48281  -1.97192 
 H                    -2.5635   -2.83668  -0.84217 
 C                    -0.86404   0.13287  -0.46628 
 C                    -0.62993  -2.10415   0.82716 
 H                    -1.22629  -1.93368   1.76698 
 H                     0.40888  -1.89654   1.11723 
 H                    -0.68422  -3.18871   0.66073 
 C                     0.53913   0.58695  -0.03067 
 C                     1.63766  -0.0088   -0.91616 
 H                     0.72478   0.27418   1.00197 
 H                     0.61065   1.67951  -0.04128 
 C                     3.03178   0.21425  -0.39349 
 H                     1.55168   0.43307  -1.91873 
 H                     1.41489  -1.07139  -1.02856 
 C                     3.76955  -0.81256   0.03143 
 C                     5.15093  -0.78991   0.61659 
 H                     3.31509  -1.79838  -0.03517 
 H                     5.58504   0.20978   0.64901 
 H                     5.83119  -1.429     0.04293 
 H                     5.14584  -1.17889   1.64074 
 C                     3.48978   1.64831  -0.3674 
 H                     2.88875   2.22741   0.33947 
 H                     3.33943   2.10589  -1.35057 
 H                     4.53847   1.76721  -0.09458 
 C                    -1.99123   0.9923    0.23928 
 H                    -4.155     1.01685   0.27893 
 H                    -3.45626   0.74307  -1.31323 
 C                    -1.9246    0.90888   1.76744 
 H                    -2.72524   1.51126   2.21704 
 H                    -0.97332   1.29272   2.14507 
 H                    -2.0285   -0.11465   2.1225 
 C                    -1.90481   2.47183  -0.16076 
 H                    -2.79512   3.01585   0.17878 
 H                    -1.84345   2.57618  -1.24882 
 H                    -1.03374   2.9676    0.27518 
 H                    -0.96774   0.43288  -1.52844 
 
                    Distance matrix (angstroms):
                    1          2          3          4          5
     1  C    0.000000
     2  C    1.524882   0.000000
     3  C    2.502554   1.543813   0.000000
     4  H    2.156360   1.101670   2.203384   0.000000
     5  H    2.164860   1.096266   2.172565   1.762783   0.000000
     6  C    2.975903   2.550919   1.505051   3.506018   2.831156
     7  H    2.728455   2.137020   1.107756   2.467491   3.052517
     8  H    3.455986   2.170679   1.099590   2.517369   2.501534
     9  C    2.526897   2.942954   2.477510   3.948478   3.339556
    10  C    3.905818   3.250455   2.512330   4.210713   2.992694
    11  H    3.796874   3.130308   2.930321   4.074177   2.518473
    12  H    4.656763   4.235771   3.476087   5.245044   3.975064
    13  H    4.626018   3.668197   2.741981   4.448217   3.396522
    14  C    3.905458   4.395495   3.865911   5.443038   4.594366
    15  C    5.063333   5.340767   4.409957   6.324635   5.635704
    16  H    4.275839   4.608117   4.193521   5.704132   4.544125
    17  H    4.153387   4.964344   4.653232   5.973803   5.207629
    18  C    6.397140   6.699321   5.811819   7.723803   6.862243
    19  H    5.185847   5.595981   4.638791   6.487573   6.077574
    20  H    5.077284   5.040006   3.890722   5.980311   5.313791
    21  C    7.248761   7.319785   6.324206   8.341822   7.364291
    22  C    8.646430   8.731691   7.776250   9.770410   8.695666
    23  H    7.053221   6.903161   5.795373   7.884331   6.918498
    24  H    8.992575   9.247667   8.381154  10.304186   9.241990
    25  H    9.389294   9.386136   8.306085  10.386281   9.394547
    26  H    8.867622   8.871382   7.997774   9.924124   8.699432
    27  C    6.949150   7.532643   6.833058   8.557863   7.729863
    28  H    6.515374   7.229003   6.744269   8.271978   7.359487
    29  H    6.980947   7.664077   6.940129   8.627078   8.006524
    30  H    8.003626   8.555368   7.833495   9.594384   8.697968
    31  C    1.542098   2.581134   3.000724   3.517062   2.871522
    32  H    1.099813   2.179792   3.476000   2.490217   2.523024
    33  H    1.100151   2.135061   2.731802   2.452464   3.053674
    34  C    2.513695   3.165287   3.801083   4.122579   2.886423
    35  H    2.750854   3.561157   4.524996   4.329679   3.233060
    36  H    3.478454   4.150307   4.542473   5.157179   3.864384
    37  H    2.783656   2.870295   3.462357   3.836673   2.276554
    38  C    2.472176   3.871239   4.316266   4.622828   4.279296
    39  H    2.638509   4.131213   4.901505   4.716253   4.477877
    40  H    2.776558   4.144394   4.376282   4.785129   4.780516
    41  H    3.449347   4.742581   5.054383   5.587324   5.016306
    42  H    2.710989   3.277194   2.691101   4.099570   3.956734
                    6          7          8          9         10
     6  C    0.000000
     7  H    2.162452   0.000000
     8  H    2.153579   1.763363   0.000000
     9  C    1.518755   2.778885   3.442052   0.000000
    10  C    1.511119   3.451121   2.657440   2.594618   0.000000
    11  H    2.278125   3.992077   3.067773   3.064195   1.126045
    12  H    2.181725   4.298029   3.682140   2.871635   1.098339
    13  H    2.146270   3.650292   2.431940   3.512174   1.098598
    14  C    2.547988   4.195164   4.691070   1.537796   3.056890
    15  C    3.040373   4.563953   5.064798   2.545767   3.545646
    16  H    2.807017   4.760226   4.887853   2.167960   2.742668
    17  H    3.492389   4.870496   5.577870   2.178854   4.075447
    18  C    4.366584   6.044458   6.388791   3.897343   4.502556
    19  H    3.488274   4.528013   5.365160   2.834677   4.328596
    20  H    2.539230   4.096955   4.356440   2.638158   2.948138
    21  C    4.859539   6.663949   6.705809   4.755175   4.653688
    22  C    6.301509   8.154478   8.113551   6.180930   5.932101
    23  H    4.388447   6.185305   6.023881   4.623919   4.049716
    24  H    6.892617   8.713458   8.826285   6.545252   6.634137
    25  H    6.882684   8.620822   8.557797   6.893821   6.543460
    26  H    6.522366   8.507663   8.267229   6.502216   5.905713
    27  C    5.442594   6.990404   7.548693   4.611075   5.699110
    28  H    5.382881   6.978244   7.534481   4.372613   5.601904
    29  H    5.665476   6.925206   7.715706   4.726935   6.182453
    30  H    6.407422   8.021426   8.496627   5.656522   6.522981
    31  C    2.641175   3.365798   4.019722   1.583352   3.433187
    32  H    3.996071   3.726718   4.317342   3.488154   4.739972
    33  H    3.335800   2.491683   3.719347   2.794514   4.547096
    34  C    3.294857   4.482739   4.609498   2.591619   3.411547
    35  H    4.268336   5.151925   5.318794   3.544613   4.403787
    36  H    3.711374   5.209731   5.338940   2.859432   3.659722
    37  H    3.018496   4.348425   4.060167   2.849392   2.755366
    38  C    3.954288   4.397350   5.392452   2.578238   4.851901
    39  H    4.770861   4.992310   5.945423   3.529412   5.596679
    40  H    4.115537   4.183119   5.475665   2.746157   5.261919
    41  H    4.400931   5.211213   6.105596   2.935004   5.117654
    42  H    2.115444   2.524347   3.702362   1.108575   3.478429
                   11         12         13         14         15
    11  H    0.000000
    12  H    1.759920   0.000000
    13  H    1.758620   1.752986   0.000000
    14  C    3.563959   2.739042   4.028676   0.000000
    15  C    4.371111   3.034494   4.241409   1.531596   0.000000
    16  H    3.044099   2.196609   3.754107   1.094818   2.143045
    17  H    4.438383   3.764433   5.086161   1.094945   2.161142
    18  C    5.235680   3.690163   5.147827   2.546342   1.505491
    19  H    5.186812   3.993756   4.976955   2.147957   1.098988
    20  H    3.941367   2.509447   3.426800   2.124345   1.091499
    21  C    5.406246   3.694339   5.087064   3.521099   2.467578
    22  C    6.580311   4.895133   6.309132   4.856271   3.911844
    23  H    4.887751   3.127891   4.290888   3.660022   2.606248
    24  H    7.227616   5.607893   7.131163   5.105431   4.251983
    25  H    7.282518   5.547452   6.777083   5.663514   4.530182
    26  H    6.417914   4.819532   6.244147   5.208989   4.496021
    27  C    6.295035   4.925649   6.471171   3.153759   2.545091
    28  H    6.023784   4.874591   6.496436   2.889435   2.853503
    29  H    6.847118   5.540543   6.947508   3.448336   2.748933
    30  H    7.098898   5.651994   7.239341   4.170347   3.499125
    31  C    3.388269   3.857032   4.400768   2.576796   3.937773
    32  H    4.415567   5.479007   5.466151   4.723929   6.002924
    33  H    4.650314   5.273891   5.199962   4.199104   5.164397
    34  C    2.927074   3.706514   4.421944   3.067048   4.553409
    35  H    3.783784   4.758717   5.355150   4.069725   5.582334
    36  H    3.258313   3.624681   4.729704   2.742161   4.228748
    37  H    2.019603   3.182217   3.659743   3.423610   4.762921
    38  C    4.856450   5.105788   5.848627   3.089099   4.390129
    39  H    5.429677   5.939511   6.571505   4.130449   5.476942
    40  H    5.460287   5.538622   6.182566   3.334305   4.348661
    41  H    5.126895   5.142958   6.178264   2.869658   4.173079
    42  H    4.065369   3.784283   4.241314   2.130187   2.712571
                   16         17         18         19         20
    16  H    0.000000
    17  H    1.753950   0.000000
    18  C    2.696875   2.851825   0.000000
    19  H    3.039650   2.442123   2.136571   0.000000
    20  H    2.531766   3.031330   2.161138   1.753427   0.000000
    21  C    3.375439   4.024221   1.333865   3.205256   2.595194
    22  C    4.568541   5.210079   2.553308   4.569257   4.091914
    23  H    3.475746   4.405644   2.063812   3.411271   2.264090
    24  H    4.873481   5.232698   2.757892   4.786561   4.673953
    25  H    5.467722   6.076507   3.275274   5.062571   4.558479
    26  H    4.697358   5.618501   3.247796   5.309071   4.588762
    27  C    3.377662   2.897705   1.505651   2.763999   3.484120
    28  H    2.989445   2.373798   2.147214   3.179140   3.863405
    29  H    3.965604   3.056519   2.142187   2.513406   3.728630
    30  H    4.239782   3.929157   2.184296   3.745447   4.322815
    31  C    2.911029   2.705683   5.122143   4.185919   4.179456
    32  H    4.988646   4.822143   7.262651   6.143020   6.090477
    33  H    4.802196   4.362857   6.574210   5.053930   5.205900
    34  C    2.829844   3.208244   5.451406   5.089081   4.784479
    35  H    3.861274   4.031935   6.452939   6.046417   5.860434
    36  H    2.286409   2.727397   4.862944   4.860977   4.622174
    37  H    2.997891   3.855655   5.660815   5.426714   4.764604
    38  C    3.618891   2.639997   5.433301   4.381133   4.932331
    39  H    4.536969   3.665174   6.490702   5.474026   5.990603
    40  H    4.118378   2.878326   5.484354   4.070454   4.895919
    41  H    3.297747   2.112663   4.955453   4.233376   4.899892
    42  H    3.048400   2.501401   4.163175   2.549466   2.861749
                   21         22         23         24         25
    21  C    0.000000
    22  C    1.500373   0.000000
    23  H    1.087575   2.193653   0.000000
    24  H    2.173149   1.090360   3.107008   0.000000
    25  H    2.151854   1.095572   2.544275   1.764519   0.000000
    26  H    2.149012   1.095548   2.558142   1.762054   1.756495
    27  C    2.508627   3.110074   3.467069   2.737256   3.888496
    28  H    3.179956   3.781329   4.065600   3.381804   4.702680
    29  H    3.257645   3.941683   4.119974   3.554757   4.543798
    30  H    2.694865   2.723914   3.770093   2.018369   3.450473
    31  C    6.040474   7.370821   6.001681   7.627581   8.190938
    32  H    8.136741   9.485708   7.989139   9.780421  10.284059
    33  H    7.512689   8.953096   7.344628   9.267140   9.633993
    34  C    6.196813   7.367050   6.167085   7.624584   8.282023
    35  H    7.235982   8.360076   7.246496   8.556477   9.305075
    36  H    5.603085   6.646805   5.718283   6.813442   7.624180
    37  H    6.202993   7.366678   6.003698   7.761598   8.235709
    38  C    6.559159   7.811955   6.745205   7.865774   8.666236
    39  H    7.600878   8.821288   7.781848   8.849981   9.705067
    40  H    6.680446   7.983205   6.871694   8.023963   8.752721
    41  H    6.117242   7.244690   6.459345   7.180079   8.155444
    42  H    5.140644   6.598061   5.054795   6.908684   7.222271
                   26         27         28         29         30
    26  H    0.000000
    27  C    3.842944   0.000000
    28  H    4.288428   1.093735   0.000000
    29  H    4.795917   1.094813   1.753324   0.000000
    30  H    3.472712   1.090099   1.766848   1.769154   0.000000
    31  C    7.590511   5.553359   5.034849   5.673062   6.583983
    32  H    9.653048   7.697992   7.147275   7.746472   8.733779
    33  H    9.296019   7.068345   6.722639   6.931100   8.151665
    34  C    7.373324   5.866836   5.190950   6.234171   6.780493
    35  H    8.338039   6.732351   5.962804   7.061285   7.626963
    36  H    6.618707   5.134020   4.364563   5.610758   5.968330
    37  H    7.268826   6.305475   5.730952   6.768143   7.182055
    38  C    8.141547   5.460992   4.825784   5.389957   6.482027
    39  H    9.099008   6.455106   5.740545   6.387465   7.444147
    40  H    8.443945   5.484626   5.003800   5.205169   6.535712
    41  H    7.566063   4.755590   3.992237   4.744498   5.712019
    42  H    7.072290   4.763896   4.645635   4.624099   5.844198
                   31         32         33         34         35
    31  C    0.000000
    32  H    2.164276   0.000000
    33  H    2.149119   1.760159   0.000000
    34  C    1.531884   2.683649   3.444409   0.000000
    35  H    2.172475   2.458641   3.686095   1.098196   0.000000
    36  H    2.181381   3.698871   4.292658   1.093105   1.766965
    37  H    2.184779   3.033317   3.818165   1.088336   1.771434
    38  C    1.535093   2.715451   2.593029   2.482172   2.692539
    39  H    2.178216   2.419769   2.797978   2.778660   2.534398
    40  H    2.178287   3.179436   2.442459   3.447359   3.731462
    41  H    2.195416   3.680718   3.652416   2.694217   2.958536
    42  H    2.117854   3.710291   2.517001   3.464817   4.275552
                   36         37         38         39         40
    36  H    0.000000
    37  H    1.759153   0.000000
    38  C    2.752242   3.452317   0.000000
    39  H    3.186598   3.763743   1.097221   0.000000
    40  H    3.731335   4.317476   1.094770   1.771165   0.000000
    41  H    2.511048   3.728594   1.092969   1.764676   1.769574
    42  H    3.772799   3.841140   2.627920   3.595222   2.332119
                   41         42
    41  H    0.000000
    42  H    3.111617   0.000000
 Symmetry turned off by external request.
 Rotational constants (GHZ):           1.0450069           0.3018461           0.2640173
   588 basis functions,   942 primitive gaussians,   618 cartesian basis functions
    59 alpha electrons       59 beta electrons
       nuclear repulsion energy      1065.2308601121 Hartrees.
 NAtoms=   42 NActive=   42 NUniq=   42 SFac= 1.00D+00 NAtFMM=   60 NAOKFM=F Big=F
 ExpMin= 2.97D-02 ExpMax= 6.67D+03 ExpMxC= 2.28D+02 IAcc=3 IRadAn=         5 AccDes= 0.00D+00
 Harris functional with IExCor=  205 and IRadAn=       5 diagonalized for initial guess.
 HarFok:  IExCor=  205 AccDes= 0.00D+00 IRadAn=         5 IDoV= 1 UseB2=F ITyADJ=14
 ICtDFT=  3500011 ScaDFX=  1.000000  1.000000  1.000000  1.000000
 FoFCou: FMM=F IPFlag=           0 FMFlag=      100000 FMFlg1=           0
         NFxFlg=           0 DoJE=T BraDBF=F KetDBF=T FulRan=T
         wScrn=  0.000000 ICntrl=       500 IOpCl=  0 I1Cent=   200000004 NGrid=           0
         NMat0=    1 NMatS0=      1 NMatT0=    0 NMatD0=    1 NMtDS0=    0 NMtDT0=    0
 Symmetry not used in FoFCou.
 SCF Done:  E(RHF) =  -583.686756759     A.U. after   19 cycles
            NFock= 19  Conv=0.78D-08     -V/T= 2.0005

 **********************************************************************

            Population analysis using the SCF Density.

 **********************************************************************

 Alpha  occ. eigenvalues --  -11.13104 -11.12211 -11.11986 -11.10873 -11.08688
 Alpha  occ. eigenvalues --  -11.08238 -11.07825 -11.07753 -11.07586 -11.07033
 Alpha  occ. eigenvalues --  -11.06226 -11.05479 -11.04110 -11.04005 -10.95978
 Alpha  occ. eigenvalues --   -0.99205  -0.97558  -0.90566  -0.88511  -0.87134
 Alpha  occ. eigenvalues --   -0.82426  -0.79766  -0.79284  -0.75374  -0.74305
 Alpha  occ. eigenvalues --   -0.69036  -0.63015  -0.59715  -0.58770  -0.53404
 Alpha  occ. eigenvalues --   -0.52639  -0.49484  -0.47876  -0.47541  -0.46672
 Alpha  occ. eigenvalues --   -0.45784  -0.45560  -0.43885  -0.43570  -0.43042
 Alpha  occ. eigenvalues --   -0.40720  -0.40448  -0.39975  -0.37959  -0.37845
 Alpha  occ. eigenvalues --   -0.37142  -0.36507  -0.35345  -0.34611  -0.33079
 Alpha  occ. eigenvalues --   -0.32268  -0.30990  -0.30534  -0.29517  -0.28312
 Alpha  occ. eigenvalues --   -0.25663  -0.23848  -0.21828  -0.02763
 Alpha virt. eigenvalues --    0.10361   0.11028   0.11851   0.12124   0.12556
 Alpha virt. eigenvalues --    0.12978   0.13044   0.13856   0.14038   0.14401
 Alpha virt. eigenvalues --    0.14648   0.15048   0.15459   0.15960   0.16460
 Alpha virt. eigenvalues --    0.16655   0.16730   0.17436   0.17750   0.18393
 Alpha virt. eigenvalues --    0.18563   0.19200   0.19295   0.19770   0.20370
 Alpha virt. eigenvalues --    0.20901   0.20971   0.21622   0.22548   0.23302
 Alpha virt. eigenvalues --    0.23488   0.23763   0.24425   0.24510   0.24769
 Alpha virt. eigenvalues --    0.25172   0.25424   0.25890   0.25995   0.26285
 Alpha virt. eigenvalues --    0.27115   0.27222   0.27453   0.27871   0.28182
 Alpha virt. eigenvalues --    0.28501   0.28718   0.29103   0.29470   0.29672
 Alpha virt. eigenvalues --    0.30009   0.30611   0.31168   0.31483   0.31596
 Alpha virt. eigenvalues --    0.31672   0.32007   0.32473   0.32809   0.32995
 Alpha virt. eigenvalues --    0.33176   0.34323   0.34628   0.35050   0.35064
 Alpha virt. eigenvalues --    0.35356   0.35663   0.36108   0.36262   0.36883
 Alpha virt. eigenvalues --    0.37496   0.37813   0.38242   0.38786   0.39288
 Alpha virt. eigenvalues --    0.40029   0.40236   0.40784   0.41083   0.41454
 Alpha virt. eigenvalues --    0.42055   0.42372   0.42790   0.43436   0.43940
 Alpha virt. eigenvalues --    0.44548   0.44845   0.45018   0.46573   0.46870
 Alpha virt. eigenvalues --    0.47452   0.47842   0.48253   0.48774   0.49421
 Alpha virt. eigenvalues --    0.49750   0.50088   0.50490   0.50803   0.51219
 Alpha virt. eigenvalues --    0.51581   0.51974   0.52159   0.52669   0.53224
 Alpha virt. eigenvalues --    0.53807   0.54050   0.54659   0.55125   0.55378
 Alpha virt. eigenvalues --    0.55602   0.55811   0.56397   0.56950   0.57247
 Alpha virt. eigenvalues --    0.57500   0.57761   0.58030   0.58375   0.58663
 Alpha virt. eigenvalues --    0.59338   0.59570   0.59915   0.60106   0.60354
 Alpha virt. eigenvalues --    0.61199   0.61377   0.61743   0.62145   0.62919
 Alpha virt. eigenvalues --    0.63166   0.63395   0.63637   0.63663   0.64119
 Alpha virt. eigenvalues --    0.64789   0.64961   0.65024   0.65398   0.65698
 Alpha virt. eigenvalues --    0.65920   0.66305   0.66949   0.67040   0.67559
 Alpha virt. eigenvalues --    0.67839   0.68355   0.68553   0.69210   0.69553
 Alpha virt. eigenvalues --    0.70134   0.70242   0.70869   0.71320   0.71678
 Alpha virt. eigenvalues --    0.71973   0.72439   0.73424   0.73689   0.74018
 Alpha virt. eigenvalues --    0.74587   0.74982   0.75462   0.75801   0.76088
 Alpha virt. eigenvalues --    0.76493   0.76515   0.77505   0.77571   0.77779
 Alpha virt. eigenvalues --    0.78350   0.78696   0.79103   0.79746   0.79859
 Alpha virt. eigenvalues --    0.80205   0.80564   0.81064   0.81164   0.81533
 Alpha virt. eigenvalues --    0.81736   0.82034   0.82859   0.83417   0.83723
 Alpha virt. eigenvalues --    0.84292   0.84452   0.84741   0.85298   0.86081
 Alpha virt. eigenvalues --    0.86550   0.86590   0.87014   0.87487   0.87843
 Alpha virt. eigenvalues --    0.88564   0.88823   0.89062   0.89829   0.90002
 Alpha virt. eigenvalues --    0.90755   0.90863   0.92115   0.92228   0.92564
 Alpha virt. eigenvalues --    0.92713   0.93209   0.93799   0.94384   0.94626
 Alpha virt. eigenvalues --    0.95138   0.95859   0.96026   0.96188   0.96495
 Alpha virt. eigenvalues --    0.96703   0.97274   0.97383   0.98284   0.98515
 Alpha virt. eigenvalues --    0.99149   0.99601   1.00289   1.00662   1.00911
 Alpha virt. eigenvalues --    1.01319   1.01740   1.02049   1.03260   1.03372
 Alpha virt. eigenvalues --    1.03968   1.04364   1.04587   1.05137   1.05598
 Alpha virt. eigenvalues --    1.05879   1.06391   1.07037   1.07178   1.07676
 Alpha virt. eigenvalues --    1.08163   1.08649   1.08803   1.09437   1.10608
 Alpha virt. eigenvalues --    1.10788   1.11140   1.11523   1.12151   1.12514
 Alpha virt. eigenvalues --    1.12613   1.13343   1.14264   1.14721   1.14961
 Alpha virt. eigenvalues --    1.15586   1.15732   1.16184   1.16479   1.17391
 Alpha virt. eigenvalues --    1.18001   1.18609   1.18798   1.19642   1.20571
 Alpha virt. eigenvalues --    1.20737   1.21415   1.22147   1.22900   1.23040
 Alpha virt. eigenvalues --    1.23494   1.24521   1.25788   1.26116   1.26747
 Alpha virt. eigenvalues --    1.27277   1.27703   1.29195   1.29623   1.30546
 Alpha virt. eigenvalues --    1.31207   1.31874   1.32024   1.33356   1.34018
 Alpha virt. eigenvalues --    1.34687   1.35370   1.35945   1.36939   1.38854
 Alpha virt. eigenvalues --    1.39537   1.40340   1.40946   1.42488   1.42832
 Alpha virt. eigenvalues --    1.43056   1.43595   1.46061   1.46948   1.48416
 Alpha virt. eigenvalues --    1.49296   1.50482   1.50985   1.52311   1.53222
 Alpha virt. eigenvalues --    1.54131   1.54628   1.54927   1.56979   1.57628
 Alpha virt. eigenvalues --    1.58296   1.60100   1.60838   1.61804   1.63348
 Alpha virt. eigenvalues --    1.64389   1.64543   1.66100   1.68188   1.68266
 Alpha virt. eigenvalues --    1.69730   1.70383   1.71419   1.72203   1.72620
 Alpha virt. eigenvalues --    1.75308   1.75564   1.76627   1.77479   1.77760
 Alpha virt. eigenvalues --    1.78911   1.79668   1.80471   1.81803   1.82561
 Alpha virt. eigenvalues --    1.84696   1.85274   1.86121   1.86713   1.88459
 Alpha virt. eigenvalues --    1.89125   1.89437   1.90462   1.90823   1.91233
 Alpha virt. eigenvalues --    1.92735   1.94659   1.95529   1.96007   1.96427
 Alpha virt. eigenvalues --    1.97409   1.97822   1.99154   1.99459   2.00241
 Alpha virt. eigenvalues --    2.00746   2.02013   2.02146   2.02863   2.04366
 Alpha virt. eigenvalues --    2.05150   2.05680   2.07078   2.07285   2.08418
 Alpha virt. eigenvalues --    2.09547   2.10215   2.10933   2.12051   2.12144
 Alpha virt. eigenvalues --    2.12933   2.13603   2.14482   2.15556   2.16444
 Alpha virt. eigenvalues --    2.16640   2.18266   2.18563   2.19672   2.21081
 Alpha virt. eigenvalues --    2.21601   2.22462   2.22808   2.24057   2.24924
 Alpha virt. eigenvalues --    2.25194   2.26131   2.26584   2.28252   2.28571
 Alpha virt. eigenvalues --    2.30014   2.30254   2.30508   2.31718   2.31799
 Alpha virt. eigenvalues --    2.32901   2.33495   2.34091   2.34483   2.35363
 Alpha virt. eigenvalues --    2.35661   2.36143   2.37551   2.37690   2.39371
 Alpha virt. eigenvalues --    2.40339   2.40826   2.41230   2.41895   2.42319
 Alpha virt. eigenvalues --    2.44120   2.44502   2.45105   2.45805   2.46312
 Alpha virt. eigenvalues --    2.46985   2.47848   2.48795   2.50001   2.50421
 Alpha virt. eigenvalues --    2.50978   2.51385   2.52343   2.53571   2.54212
 Alpha virt. eigenvalues --    2.54762   2.55404   2.56711   2.57284   2.57672
 Alpha virt. eigenvalues --    2.58945   2.60304   2.61006   2.61997   2.62424
 Alpha virt. eigenvalues --    2.63118   2.64895   2.65050   2.65510   2.66110
 Alpha virt. eigenvalues --    2.67146   2.68237   2.68943   2.69022   2.70206
 Alpha virt. eigenvalues --    2.71745   2.73011   2.74516   2.74979   2.75594
 Alpha virt. eigenvalues --    2.76145   2.76743   2.77941   2.78534   2.79087
 Alpha virt. eigenvalues --    2.79937   2.81999   2.82589   2.83298   2.83700
 Alpha virt. eigenvalues --    2.84306   2.85196   2.86142   2.86908   2.87389
 Alpha virt. eigenvalues --    2.88562   2.89304   2.90929   2.92254   2.93164
 Alpha virt. eigenvalues --    2.94442   2.95188   2.96749   2.97683   2.98252
 Alpha virt. eigenvalues --    2.99065   2.99265   3.00781   3.02143   3.03005
 Alpha virt. eigenvalues --    3.03524   3.04434   3.05026   3.05424   3.06543
 Alpha virt. eigenvalues --    3.09129   3.10077   3.10837   3.11646   3.12487
 Alpha virt. eigenvalues --    3.14300   3.14402   3.15716   3.16129   3.17849
 Alpha virt. eigenvalues --    3.18927   3.19803   3.22309   3.23107   3.24714
 Alpha virt. eigenvalues --    3.25178   3.27587   3.28843   3.29165   3.30286
 Alpha virt. eigenvalues --    3.33576   3.35836   3.37749   3.38830   3.41100
 Alpha virt. eigenvalues --    3.41770   3.43407   3.46877   3.47129   3.51189
 Alpha virt. eigenvalues --    3.52359   3.55731   3.58664   3.64807   3.66717
 Alpha virt. eigenvalues --    3.70253   3.85757   3.89571   4.09391   4.18658
 Alpha virt. eigenvalues --    4.22472   4.45151   4.61739   5.00765
          Condensed to atoms (all electrons):
 Mulliken charges:
               1
     1  C    1.248913
     2  C    0.435378
     3  C    0.701377
     4  H   -0.191178
     5  H   -0.161267
     6  C   -1.193222
     7  H   -0.132897
     8  H   -0.221223
     9  C    0.682332
    10  C    0.716388
    11  H   -0.125325
    12  H   -0.301504
    13  H   -0.164687
    14  C    0.043662
    15  C    1.127433
    16  H   -0.343457
    17  H   -0.474081
    18  C    0.015498
    19  H   -0.192403
    20  H   -0.392414
    21  C    0.090107
    22  C    0.319709
    23  H   -0.651940
    24  H   -0.207457
    25  H    0.072969
    26  H    0.109365
    27  C    0.394207
    28  H    0.129417
    29  H    0.078346
    30  H   -0.236096
    31  C   -3.820811
    32  H   -0.210716
    33  H   -0.179891
    34  C    1.338366
    35  H   -0.037262
    36  H   -0.144534
    37  H   -0.134247
    38  C    1.682452
    39  H   -0.108091
    40  H   -0.076546
    41  H   -0.058793
    42  H   -0.425877
 Sum of Mulliken charges =  -1.00000
 Mulliken charges with hydrogens summed into heavy atoms:
               1
     1  C    0.858307
     2  C    0.082934
     3  C    0.347256
     6  C   -1.193222
     9  C    0.256455
    10  C    0.124871
    14  C   -0.773877
    15  C    0.542616
    18  C    0.015498
    21  C   -0.561833
    22  C    0.294586
    27  C    0.365874
    31  C   -3.820811
    34  C    1.022323
    38  C    1.439022
 Electronic spatial extent (au):  <R**2>=           4577.7403
 Charge=             -1.0000 electrons
 Dipole moment (field-independent basis, Debye):
    X=              4.0655    Y=              4.6386    Z=              1.3343  Tot=              6.3107
 NROrb=    588 NOA=    59 NOB=    59 NVA=   529 NVB=   529

 **** Warning!!: The largest alpha MO coefficient is  0.12406710D+03

    12 initial guesses have been made.
 Iteration     1 Dimension    12 NMult     0 NNew     12
 New state      1 was old state      4
 Iteration     2 Dimension    24 NMult    12 NNew     12
 Iteration     3 Dimension    27 NMult    24 NNew      3
 Iteration     4 Dimension    30 NMult    27 NNew      3
 Iteration     5 Dimension    33 NMult    30 NNew      3
 Iteration     6 Dimension    36 NMult    33 NNew      3
 ***********************************************************************
 Stability analysis using <AA,BB:AA,BB> singles matrix:
 ***********************************************************************
 Ground to excited state transition densities written to RWF  633

 Eigenvectors of the stability matrix:
 
 Excited state symmetry could not be determined.
 Eigenvector   1:      Singlet-?Sym  Eigenvalue= 0.0562546  <S**2>=0.000
      59 -> 60        -0.16387
      59 -> 62         0.18931
      59 -> 63         0.20434
      59 -> 64         0.25701
      59 -> 65        -0.31889
      59 -> 66        -0.23368
      59 -> 68        -0.22668
      59 -> 69        -0.23659
 The wavefunction is stable under the perturbations considered.
 The wavefunction is already stable.

 **********************************************************************

            Population analysis using the SCF Density.

 **********************************************************************

 Alpha  occ. eigenvalues --  -11.13104 -11.12211 -11.11986 -11.10873 -11.08688
 Alpha  occ. eigenvalues --  -11.08238 -11.07825 -11.07753 -11.07586 -11.07033
 Alpha  occ. eigenvalues --  -11.06226 -11.05479 -11.04110 -11.04005 -10.95978
 Alpha  occ. eigenvalues --   -0.99205  -0.97558  -0.90566  -0.88511  -0.87134
 Alpha  occ. eigenvalues --   -0.82426  -0.79766  -0.79284  -0.75374  -0.74305
 Alpha  occ. eigenvalues --   -0.69036  -0.63015  -0.59715  -0.58770  -0.53404
 Alpha  occ. eigenvalues --   -0.52639  -0.49484  -0.47876  -0.47541  -0.46672
 Alpha  occ. eigenvalues --   -0.45784  -0.45560  -0.43885  -0.43570  -0.43042
 Alpha  occ. eigenvalues --   -0.40720  -0.40448  -0.39975  -0.37959  -0.37845
 Alpha  occ. eigenvalues --   -0.37142  -0.36507  -0.35345  -0.34611  -0.33079
 Alpha  occ. eigenvalues --   -0.32268  -0.30990  -0.30534  -0.29517  -0.28312
 Alpha  occ. eigenvalues --   -0.25663  -0.23848  -0.21828  -0.02763
 Alpha virt. eigenvalues --    0.10361   0.11028   0.11851   0.12124   0.12556
 Alpha virt. eigenvalues --    0.12978   0.13044   0.13856   0.14038   0.14401
 Alpha virt. eigenvalues --    0.14648   0.15048   0.15459   0.15960   0.16460
 Alpha virt. eigenvalues --    0.16655   0.16730   0.17436   0.17750   0.18393
 Alpha virt. eigenvalues --    0.18563   0.19200   0.19295   0.19770   0.20370
 Alpha virt. eigenvalues --    0.20901   0.20971   0.21622   0.22548   0.23302
 Alpha virt. eigenvalues --    0.23488   0.23763   0.24425   0.24510   0.24769
 Alpha virt. eigenvalues --    0.25172   0.25424   0.25890   0.25995   0.26285
 Alpha virt. eigenvalues --    0.27115   0.27222   0.27453   0.27871   0.28182
 Alpha virt. eigenvalues --    0.28501   0.28718   0.29103   0.29470   0.29672
 Alpha virt. eigenvalues --    0.30009   0.30611   0.31168   0.31483   0.31596
 Alpha virt. eigenvalues --    0.31672   0.32007   0.32473   0.32809   0.32995
 Alpha virt. eigenvalues --    0.33176   0.34323   0.34628   0.35050   0.35064
 Alpha virt. eigenvalues --    0.35356   0.35663   0.36108   0.36262   0.36883
 Alpha virt. eigenvalues --    0.37496   0.37813   0.38242   0.38786   0.39288
 Alpha virt. eigenvalues --    0.40029   0.40236   0.40784   0.41083   0.41454
 Alpha virt. eigenvalues --    0.42055   0.42372   0.42790   0.43436   0.43940
 Alpha virt. eigenvalues --    0.44548   0.44845   0.45018   0.46573   0.46870
 Alpha virt. eigenvalues --    0.47452   0.47842   0.48253   0.48774   0.49421
 Alpha virt. eigenvalues --    0.49750   0.50088   0.50490   0.50803   0.51219
 Alpha virt. eigenvalues --    0.51581   0.51974   0.52159   0.52669   0.53224
 Alpha virt. eigenvalues --    0.53807   0.54050   0.54659   0.55125   0.55378
 Alpha virt. eigenvalues --    0.55602   0.55811   0.56397   0.56950   0.57247
 Alpha virt. eigenvalues --    0.57500   0.57761   0.58030   0.58375   0.58663
 Alpha virt. eigenvalues --    0.59338   0.59570   0.59915   0.60106   0.60354
 Alpha virt. eigenvalues --    0.61199   0.61377   0.61743   0.62145   0.62919
 Alpha virt. eigenvalues --    0.63166   0.63395   0.63637   0.63663   0.64119
 Alpha virt. eigenvalues --    0.64789   0.64961   0.65024   0.65398   0.65698
 Alpha virt. eigenvalues --    0.65920   0.66305   0.66949   0.67040   0.67559
 Alpha virt. eigenvalues --    0.67839   0.68355   0.68553   0.69210   0.69553
 Alpha virt. eigenvalues --    0.70134   0.70242   0.70869   0.71320   0.71678
 Alpha virt. eigenvalues --    0.71973   0.72439   0.73424   0.73689   0.74018
 Alpha virt. eigenvalues --    0.74587   0.74982   0.75462   0.75801   0.76088
 Alpha virt. eigenvalues --    0.76493   0.76515   0.77505   0.77571   0.77779
 Alpha virt. eigenvalues --    0.78350   0.78696   0.79103   0.79746   0.79859
 Alpha virt. eigenvalues --    0.80205   0.80564   0.81064   0.81164   0.81533
 Alpha virt. eigenvalues --    0.81736   0.82034   0.82859   0.83417   0.83723
 Alpha virt. eigenvalues --    0.84292   0.84452   0.84741   0.85298   0.86081
 Alpha virt. eigenvalues --    0.86550   0.86590   0.87014   0.87487   0.87843
 Alpha virt. eigenvalues --    0.88564   0.88823   0.89062   0.89829   0.90002
 Alpha virt. eigenvalues --    0.90755   0.90863   0.92115   0.92228   0.92564
 Alpha virt. eigenvalues --    0.92713   0.93209   0.93799   0.94384   0.94626
 Alpha virt. eigenvalues --    0.95138   0.95859   0.96026   0.96188   0.96495
 Alpha virt. eigenvalues --    0.96703   0.97274   0.97383   0.98284   0.98515
 Alpha virt. eigenvalues --    0.99149   0.99601   1.00289   1.00662   1.00911
 Alpha virt. eigenvalues --    1.01319   1.01740   1.02049   1.03260   1.03372
 Alpha virt. eigenvalues --    1.03968   1.04364   1.04587   1.05137   1.05598
 Alpha virt. eigenvalues --    1.05879   1.06391   1.07037   1.07178   1.07676
 Alpha virt. eigenvalues --    1.08163   1.08649   1.08803   1.09437   1.10608
 Alpha virt. eigenvalues --    1.10788   1.11140   1.11523   1.12151   1.12514
 Alpha virt. eigenvalues --    1.12613   1.13343   1.14264   1.14721   1.14961
 Alpha virt. eigenvalues --    1.15586   1.15732   1.16184   1.16479   1.17391
 Alpha virt. eigenvalues --    1.18001   1.18609   1.18798   1.19642   1.20571
 Alpha virt. eigenvalues --    1.20737   1.21415   1.22147   1.22900   1.23040
 Alpha virt. eigenvalues --    1.23494   1.24521   1.25788   1.26116   1.26747
 Alpha virt. eigenvalues --    1.27277   1.27703   1.29195   1.29623   1.30546
 Alpha virt. eigenvalues --    1.31207   1.31874   1.32024   1.33356   1.34018
 Alpha virt. eigenvalues --    1.34687   1.35370   1.35945   1.36939   1.38854
 Alpha virt. eigenvalues --    1.39537   1.40340   1.40946   1.42488   1.42832
 Alpha virt. eigenvalues --    1.43056   1.43595   1.46061   1.46948   1.48416
 Alpha virt. eigenvalues --    1.49296   1.50482   1.50985   1.52311   1.53222
 Alpha virt. eigenvalues --    1.54131   1.54628   1.54927   1.56979   1.57628
 Alpha virt. eigenvalues --    1.58296   1.60100   1.60838   1.61804   1.63348
 Alpha virt. eigenvalues --    1.64389   1.64543   1.66100   1.68188   1.68266
 Alpha virt. eigenvalues --    1.69730   1.70383   1.71419   1.72203   1.72620
 Alpha virt. eigenvalues --    1.75308   1.75564   1.76627   1.77479   1.77760
 Alpha virt. eigenvalues --    1.78911   1.79668   1.80471   1.81803   1.82561
 Alpha virt. eigenvalues --    1.84696   1.85274   1.86121   1.86713   1.88459
 Alpha virt. eigenvalues --    1.89125   1.89437   1.90462   1.90823   1.91233
 Alpha virt. eigenvalues --    1.92735   1.94659   1.95529   1.96007   1.96427
 Alpha virt. eigenvalues --    1.97409   1.97822   1.99154   1.99459   2.00241
 Alpha virt. eigenvalues --    2.00746   2.02013   2.02146   2.02863   2.04366
 Alpha virt. eigenvalues --    2.05150   2.05680   2.07078   2.07285   2.08418
 Alpha virt. eigenvalues --    2.09547   2.10215   2.10933   2.12051   2.12144
 Alpha virt. eigenvalues --    2.12933   2.13603   2.14482   2.15556   2.16444
 Alpha virt. eigenvalues --    2.16640   2.18266   2.18563   2.19672   2.21081
 Alpha virt. eigenvalues --    2.21601   2.22462   2.22808   2.24057   2.24924
 Alpha virt. eigenvalues --    2.25194   2.26131   2.26584   2.28252   2.28571
 Alpha virt. eigenvalues --    2.30014   2.30254   2.30508   2.31718   2.31799
 Alpha virt. eigenvalues --    2.32901   2.33495   2.34091   2.34483   2.35363
 Alpha virt. eigenvalues --    2.35661   2.36143   2.37551   2.37690   2.39371
 Alpha virt. eigenvalues --    2.40339   2.40826   2.41230   2.41895   2.42319
 Alpha virt. eigenvalues --    2.44120   2.44502   2.45105   2.45805   2.46312
 Alpha virt. eigenvalues --    2.46985   2.47848   2.48795   2.50001   2.50421
 Alpha virt. eigenvalues --    2.50978   2.51385   2.52343   2.53571   2.54212
 Alpha virt. eigenvalues --    2.54762   2.55404   2.56711   2.57284   2.57672
 Alpha virt. eigenvalues --    2.58945   2.60304   2.61006   2.61997   2.62424
 Alpha virt. eigenvalues --    2.63118   2.64895   2.65050   2.65510   2.66110
 Alpha virt. eigenvalues --    2.67146   2.68237   2.68943   2.69022   2.70206
 Alpha virt. eigenvalues --    2.71745   2.73011   2.74516   2.74979   2.75594
 Alpha virt. eigenvalues --    2.76145   2.76743   2.77941   2.78534   2.79087
 Alpha virt. eigenvalues --    2.79937   2.81999   2.82589   2.83298   2.83700
 Alpha virt. eigenvalues --    2.84306   2.85196   2.86142   2.86908   2.87389
 Alpha virt. eigenvalues --    2.88562   2.89304   2.90929   2.92254   2.93164
 Alpha virt. eigenvalues --    2.94442   2.95188   2.96749   2.97683   2.98252
 Alpha virt. eigenvalues --    2.99065   2.99265   3.00781   3.02143   3.03005
 Alpha virt. eigenvalues --    3.03524   3.04434   3.05026   3.05424   3.06543
 Alpha virt. eigenvalues --    3.09129   3.10077   3.10837   3.11646   3.12487
 Alpha virt. eigenvalues --    3.14300   3.14402   3.15716   3.16129   3.17849
 Alpha virt. eigenvalues --    3.18927   3.19803   3.22309   3.23107   3.24714
 Alpha virt. eigenvalues --    3.25178   3.27587   3.28843   3.29165   3.30286
 Alpha virt. eigenvalues --    3.33576   3.35836   3.37749   3.38830   3.41100
 Alpha virt. eigenvalues --    3.41770   3.43407   3.46877   3.47129   3.51189
 Alpha virt. eigenvalues --    3.52359   3.55731   3.58664   3.64807   3.66717
 Alpha virt. eigenvalues --    3.70253   3.85757   3.89571   4.09391   4.18658
 Alpha virt. eigenvalues --    4.22472   4.45151   4.61739   5.00765
          Condensed to atoms (all electrons):
 Mulliken charges:
               1
     1  C    1.248913
     2  C    0.435378
     3  C    0.701377
     4  H   -0.191178
     5  H   -0.161267
     6  C   -1.193222
     7  H   -0.132897
     8  H   -0.221223
     9  C    0.682332
    10  C    0.716388
    11  H   -0.125325
    12  H   -0.301504
    13  H   -0.164687
    14  C    0.043662
    15  C    1.127433
    16  H   -0.343457
    17  H   -0.474081
    18  C    0.015498
    19  H   -0.192403
    20  H   -0.392414
    21  C    0.090107
    22  C    0.319709
    23  H   -0.651940
    24  H   -0.207457
    25  H    0.072969
    26  H    0.109365
    27  C    0.394207
    28  H    0.129417
    29  H    0.078346
    30  H   -0.236096
    31  C   -3.820811
    32  H   -0.210716
    33  H   -0.179891
    34  C    1.338366
    35  H   -0.037262
    36  H   -0.144534
    37  H   -0.134247
    38  C    1.682452
    39  H   -0.108091
    40  H   -0.076546
    41  H   -0.058793
    42  H   -0.425877
 Sum of Mulliken charges =  -1.00000
 Mulliken charges with hydrogens summed into heavy atoms:
               1
     1  C    0.858307
     2  C    0.082934
     3  C    0.347256
     6  C   -1.193222
     9  C    0.256455
    10  C    0.124871
    14  C   -0.773877
    15  C    0.542616
    18  C    0.015498
    21  C   -0.561833
    22  C    0.294586
    27  C    0.365874
    31  C   -3.820811
    34  C    1.022323
    38  C    1.439022
 Electronic spatial extent (au):  <R**2>=           4577.7403
 Charge=             -1.0000 electrons
 Dipole moment (field-independent basis, Debye):
    X=              4.0655    Y=              4.6386    Z=              1.3343  Tot=              6.3107
 Unable to Open any file for archive entry.
 1\1\GINC-SE372\Stability\RHF\Aug-CC-pVDZ\C15H27\OHZDE\21-Sep-2024\0\\#
 t hf aug-cc-pvdz symm=none int=(grid=ultrafine) guess=(read,tcheck) st
 able=(opt,rrhf)\\title\\-1,1\C,0,-3.358486,0.474248,-0.250913\C,0,-3.5
 44987,-1.034674,-0.134142\C,0,-2.414379,-1.749082,-0.905314\H,0,-4.539
 081,-1.309875,-0.521077\H,0,-3.522053,-1.340288,0.918414\C,0,-1.034779
 ,-1.375901,-0.43349\H,0,-2.550698,-1.482813,-1.971917\H,0,-2.563504,-2
 .836682,-0.842172\C,0,-0.864035,0.132869,-0.466281\C,0,-0.629925,-2.10
 415,0.827156\H,0,-1.226289,-1.933677,1.766979\H,0,0.408875,-1.896538,1
 .117227\H,0,-0.68422,-3.18871,0.660725\C,0,0.539128,0.586952,-0.030668
 \C,0,1.637658,-0.008796,-0.916164\H,0,0.72478,0.274178,1.001966\H,0,0.
 610649,1.679507,-0.041282\C,0,3.031778,0.214246,-0.393492\H,0,1.551677
 ,0.433065,-1.918731\H,0,1.414885,-1.071392,-1.02856\C,0,3.769554,-0.81
 2558,0.031426\C,0,5.150927,-0.789907,0.616589\H,0,3.315085,-1.798379,-
 0.035165\H,0,5.585037,0.209784,0.649014\H,0,5.831191,-1.428995,0.04293
 \H,0,5.145836,-1.178888,1.640744\C,0,3.489776,1.648311,-0.367397\H,0,2
 .88875,2.227411,0.339474\H,0,3.339433,2.105887,-1.350574\H,0,4.538466,
 1.767208,-0.09458\C,0,-1.991227,0.992304,0.239278\H,0,-4.155,1.016849,
 0.278934\H,0,-3.456263,0.743071,-1.313225\C,0,-1.924602,0.908878,1.767
 437\H,0,-2.725242,1.511262,2.217042\H,0,-0.973321,1.292723,2.145069\H,
 0,-2.028503,-0.114651,2.122499\C,0,-1.904809,2.471834,-0.160763\H,0,-2
 .795122,3.015845,0.178778\H,0,-1.843448,2.576179,-1.24882\H,0,-1.03374
 2,2.967598,0.275175\H,0,-0.967737,0.432882,-1.528438\\Version=ES64L-G1
 6RevC.01\HF=-583.6867568\RMSD=7.845e-09\Dipole=1.5994811,1.8249539,0.5
 249366\Quadrupole=-7.0168164,0.7284417,6.2883747,-2.0604723,-0.0156936
 ,-2.4534674\PG=Unknown\\@
 The archive entry for this job was punched.


 NOBODY LOSES ALL THE TIME
 I HAD AN UNCLE NAMED
 SOL WHO WAS A BORN FAILURE AND
 NEARLY EVERYBODY SAID HE SHOULD HAVE GONE
 INTO VAUDEVILLE PERHAPS BECAUSE MY UNCLE SOL COULD
 SING MCCANN HE WAS A DIVER ON XMAS EVE LIKE HELL ITSELF WHICH
 MAY OR MAY NOT ACCOUNT FOR THE FACT THAT MY UNCLE
 SOL INDULGED IN THAT POSSIBLY MOST INEXCUSABLE
 OF ALL TO USE A HIGHFALOOTIN PHRASE
 LUXURIES THAT IS OR TO
 WIT FARMING AND BE
 IT NEEDLESSLY
 ADDED
 MY UNCLE SOL'S FARM     
 FAILED BECAUSE THE CHICKENS
 ATE THE VEGETABLES SO
 MY UNCLE SOL HAD A
 CHICKEN FARM TILL THE
 SKUNKS ATE THE CHICKENS WHEN 
 MY UNCLE SOL
 HAD A SKUNK FARM BUT
 THE SKUNKS CAUGHT COLD AND
 DIED AND SO
 MY UNCLE SOL IMITATED THE
 SKUNKS IN A SUBTLE MANNER
 OR BY DROWNING HIMSELF IN THE WATERTANK
 BUT SOMEBODY WHO'D GIVEN MY UNCLE SOL A VICTOR     
 VICTROLA AND RECORDS WHILE HE LIVED PRESENTED TO
 HIM UPON THE AUSPICIOUS OCCASION OF HIS DECEASE A
 SCRUMPTIOUS NOT TO MENTION SPLENDIFEROUS FUNERAL WITH
 TALL BOYS IN BLACK GLOVES AND FLOWERS AND EVERYTHING AND
 I REMEMBER WE ALL CRIED LIKE THE MISSOURI
 WHEN MY UNCLE SOL'S COFFIN LURCHED BECAUSE     
 SOMEBODY PRESSED A BUTTON
 (AND DOWN WENT
 MY UNCLE
 SOL
 AND STARTED A WORM FARM)
           E. E. CUMMINGS
 Job cpu time:       0 days  5 hours  1 minutes  0.2 seconds.
 Elapsed time:       0 days  0 hours 19 minutes 14.3 seconds.
 File lengths (MBytes):  RWF=   1231 Int=      0 D2E=      0 Chk=     42 Scr=      1
 Normal termination of Gaussian 16 at Sat Sep 21 00:21:45 2024.
 Initial command:
 /arc/software/Gaussian/g16.c01/l1.exe "/tmp/slurm/2341461/Gau-2375365.inp" -scrdir="/tmp/slurm/2341461/"
 Entering Link 1 = /arc/software/Gaussian/g16.c01/l1.exe PID=   2376108.
  
 Copyright (c) 1988-2019, Gaussian, Inc.  All Rights Reserved.
  
 This is part of the Gaussian(R) 16 program.  It is based on
 the Gaussian(R) 09 system (copyright 2009, Gaussian, Inc.),
 the Gaussian(R) 03 system (copyright 2003, Gaussian, Inc.),
 the Gaussian(R) 98 system (copyright 1998, Gaussian, Inc.),
 the Gaussian(R) 94 system (copyright 1995, Gaussian, Inc.),
 the Gaussian 92(TM) system (copyright 1992, Gaussian, Inc.),
 the Gaussian 90(TM) system (copyright 1990, Gaussian, Inc.),
 the Gaussian 88(TM) system (copyright 1988, Gaussian, Inc.),
 the Gaussian 86(TM) system (copyright 1986, Carnegie Mellon
 University), and the Gaussian 82(TM) system (copyright 1983,
 Carnegie Mellon University). Gaussian is a federally registered
 trademark of Gaussian, Inc.
  
 This software contains proprietary and confidential information,
 including trade secrets, belonging to Gaussian, Inc.
  
 This software is provided under written license and may be
 used, copied, transmitted, or stored only in accord with that
 written license.
  
 The following legend is applicable only to US Government
 contracts under FAR:
  
                    RESTRICTED RIGHTS LEGEND
  
 Use, reproduction and disclosure by the US Government is
 subject to restrictions as set forth in subparagraphs (a)
 and (c) of the Commercial Computer Software - Restricted
 Rights clause in FAR 52.227-19.
  
 Gaussian, Inc.
 340 Quinnipiac St., Bldg. 40, Wallingford CT 06492
  
  
 ---------------------------------------------------------------
 Warning -- This program may not be used in any manner that
 competes with the business of Gaussian, Inc. or will provide
 assistance to any competitor of Gaussian, Inc.  The licensee
 of this program is prohibited from giving any competitor of
 Gaussian, Inc. access to this program.  By using this program,
 the user acknowledges that Gaussian, Inc. is engaged in the
 business of creating and licensing software in the field of
 computational chemistry and represents and warrants to the
 licensee that it is not a competitor of Gaussian, Inc. and that
 it will not use this program in any manner prohibited above.
 ---------------------------------------------------------------
  

 Cite this work as:
 Gaussian 16, Revision C.01,
 M. J. Frisch, G. W. Trucks, H. B. Schlegel, G. E. Scuseria, 
 M. A. Robb, J. R. Cheeseman, G. Scalmani, V. Barone, 
 G. A. Petersson, H. Nakatsuji, X. Li, M. Caricato, A. V. Marenich, 
 J. Bloino, B. G. Janesko, R. Gomperts, B. Mennucci, H. P. Hratchian, 
 J. V. Ortiz, A. F. Izmaylov, J. L. Sonnenberg, D. Williams-Young, 
 F. Ding, F. Lipparini, F. Egidi, J. Goings, B. Peng, A. Petrone, 
 T. Henderson, D. Ranasinghe, V. G. Zakrzewski, J. Gao, N. Rega, 
 G. Zheng, W. Liang, M. Hada, M. Ehara, K. Toyota, R. Fukuda, 
 J. Hasegawa, M. Ishida, T. Nakajima, Y. Honda, O. Kitao, H. Nakai, 
 T. Vreven, K. Throssell, J. A. Montgomery, Jr., J. E. Peralta, 
 F. Ogliaro, M. J. Bearpark, J. J. Heyd, E. N. Brothers, K. N. Kudin, 
 V. N. Staroverov, T. A. Keith, R. Kobayashi, J. Normand, 
 K. Raghavachari, A. P. Rendell, J. C. Burant, S. S. Iyengar, 
 J. Tomasi, M. Cossi, J. M. Millam, M. Klene, C. Adamo, R. Cammi, 
 J. W. Ochterski, R. L. Martin, K. Morokuma, O. Farkas, 
 J. B. Foresman, and D. J. Fox, Gaussian, Inc., Wallingford CT, 2019.
 
 ******************************************
 Gaussian 16:  ES64L-G16RevC.01  3-Jul-2019
                21-Sep-2024 
 ******************************************
 %nprocs=16
 Will use up to   16 processors via shared memory.
 %mem=30GB
 %chk=09_24P.chk
 ----------------------------------------------------------------------
 #t symm=none mp2 aug-cc-pvdz geom=allcheck guess=(read,tcheck) int=(gr
 id=ultrafine)
 ----------------------------------------------------------------------
 Structure from the checkpoint file:  "09_24P.chk"
 -----
 title
 -----
 Charge = -1 Multiplicity = 1
 Z-Matrix found in chk file.
 C,0,-3.358486,0.474248,-0.250913
 C,0,-3.544987,-1.034674,-0.134142
 C,0,-2.414379,-1.749082,-0.905314
 H,0,-4.539081,-1.309875,-0.521077
 H,0,-3.522053,-1.340288,0.918414
 C,0,-1.034779,-1.375901,-0.43349
 H,0,-2.550698,-1.482813,-1.971917
 H,0,-2.563504,-2.836682,-0.842172
 C,0,-0.864035,0.132869,-0.466281
 C,0,-0.629925,-2.10415,0.827156
 H,0,-1.226289,-1.933677,1.766979
 H,0,0.408875,-1.896538,1.117227
 H,0,-0.68422,-3.18871,0.660725
 C,0,0.539128,0.586952,-0.030668
 C,0,1.637658,-0.008796,-0.916164
 H,0,0.72478,0.274178,1.001966
 H,0,0.610649,1.679507,-0.041282
 C,0,3.031778,0.214246,-0.393492
 H,0,1.551677,0.433065,-1.918731
 H,0,1.414885,-1.071392,-1.02856
 C,0,3.769554,-0.812558,0.031426
 C,0,5.150927,-0.789907,0.616589
 H,0,3.315085,-1.798379,-0.035165
 H,0,5.585037,0.209784,0.649014
 H,0,5.831191,-1.428995,0.04293
 H,0,5.145836,-1.178888,1.640744
 C,0,3.489776,1.648311,-0.367397
 H,0,2.88875,2.227411,0.339474
 H,0,3.339433,2.105887,-1.350574
 H,0,4.538466,1.767208,-0.09458
 C,0,-1.991227,0.992304,0.239278
 H,0,-4.155,1.016849,0.278934
 H,0,-3.456263,0.743071,-1.313225
 C,0,-1.924602,0.908878,1.767437
 H,0,-2.725242,1.511262,2.217042
 H,0,-0.973321,1.292723,2.145069
 H,0,-2.028503,-0.114651,2.122499
 C,0,-1.904809,2.471834,-0.160763
 H,0,-2.795122,3.015845,0.178778
 H,0,-1.843448,2.576179,-1.24882
 H,0,-1.033742,2.967598,0.275175
 H,0,-0.967737,0.432882,-1.528438
 Recover connectivity data from disk.
                    Distance matrix (angstroms):
                    1          2          3          4          5
     1  C    0.000000
     2  C    1.524882   0.000000
     3  C    2.502554   1.543813   0.000000
     4  H    2.156360   1.101670   2.203384   0.000000
     5  H    2.164860   1.096266   2.172565   1.762783   0.000000
     6  C    2.975903   2.550919   1.505051   3.506018   2.831156
     7  H    2.728455   2.137020   1.107756   2.467491   3.052517
     8  H    3.455986   2.170679   1.099590   2.517369   2.501534
     9  C    2.526897   2.942954   2.477510   3.948478   3.339556
    10  C    3.905818   3.250455   2.512330   4.210713   2.992694
    11  H    3.796874   3.130308   2.930321   4.074177   2.518473
    12  H    4.656763   4.235771   3.476087   5.245044   3.975064
    13  H    4.626018   3.668197   2.741981   4.448217   3.396522
    14  C    3.905458   4.395495   3.865911   5.443038   4.594366
    15  C    5.063333   5.340767   4.409957   6.324635   5.635704
    16  H    4.275839   4.608117   4.193521   5.704132   4.544125
    17  H    4.153387   4.964344   4.653232   5.973803   5.207629
    18  C    6.397140   6.699321   5.811819   7.723803   6.862243
    19  H    5.185847   5.595981   4.638791   6.487573   6.077574
    20  H    5.077284   5.040006   3.890722   5.980311   5.313791
    21  C    7.248761   7.319785   6.324206   8.341822   7.364291
    22  C    8.646430   8.731691   7.776250   9.770410   8.695666
    23  H    7.053221   6.903161   5.795373   7.884331   6.918498
    24  H    8.992575   9.247667   8.381154  10.304186   9.241990
    25  H    9.389294   9.386136   8.306085  10.386281   9.394547
    26  H    8.867622   8.871382   7.997774   9.924124   8.699432
    27  C    6.949150   7.532643   6.833058   8.557863   7.729863
    28  H    6.515374   7.229003   6.744269   8.271978   7.359487
    29  H    6.980947   7.664077   6.940129   8.627078   8.006524
    30  H    8.003626   8.555368   7.833495   9.594384   8.697968
    31  C    1.542098   2.581134   3.000724   3.517062   2.871522
    32  H    1.099813   2.179792   3.476000   2.490217   2.523024
    33  H    1.100151   2.135061   2.731802   2.452464   3.053674
    34  C    2.513695   3.165287   3.801083   4.122579   2.886423
    35  H    2.750854   3.561157   4.524996   4.329679   3.233060
    36  H    3.478454   4.150307   4.542473   5.157179   3.864384
    37  H    2.783656   2.870295   3.462357   3.836673   2.276554
    38  C    2.472176   3.871239   4.316266   4.622828   4.279296
    39  H    2.638509   4.131213   4.901505   4.716253   4.477877
    40  H    2.776558   4.144394   4.376282   4.785129   4.780516
    41  H    3.449347   4.742581   5.054383   5.587324   5.016306
    42  H    2.710989   3.277194   2.691101   4.099570   3.956734
                    6          7          8          9         10
     6  C    0.000000
     7  H    2.162452   0.000000
     8  H    2.153579   1.763363   0.000000
     9  C    1.518755   2.778885   3.442052   0.000000
    10  C    1.511119   3.451121   2.657440   2.594618   0.000000
    11  H    2.278125   3.992077   3.067773   3.064195   1.126045
    12  H    2.181725   4.298029   3.682140   2.871635   1.098339
    13  H    2.146270   3.650292   2.431940   3.512174   1.098598
    14  C    2.547988   4.195164   4.691070   1.537796   3.056890
    15  C    3.040373   4.563953   5.064798   2.545767   3.545646
    16  H    2.807017   4.760226   4.887853   2.167960   2.742668
    17  H    3.492389   4.870496   5.577870   2.178854   4.075447
    18  C    4.366584   6.044458   6.388791   3.897343   4.502556
    19  H    3.488274   4.528013   5.365160   2.834677   4.328596
    20  H    2.539230   4.096955   4.356440   2.638158   2.948138
    21  C    4.859539   6.663949   6.705809   4.755175   4.653688
    22  C    6.301509   8.154478   8.113551   6.180930   5.932101
    23  H    4.388447   6.185305   6.023881   4.623919   4.049716
    24  H    6.892617   8.713458   8.826285   6.545252   6.634137
    25  H    6.882684   8.620822   8.557797   6.893821   6.543460
    26  H    6.522366   8.507663   8.267229   6.502216   5.905713
    27  C    5.442594   6.990404   7.548693   4.611075   5.699110
    28  H    5.382881   6.978244   7.534481   4.372613   5.601904
    29  H    5.665476   6.925206   7.715706   4.726935   6.182453
    30  H    6.407422   8.021426   8.496627   5.656522   6.522981
    31  C    2.641175   3.365798   4.019722   1.583352   3.433187
    32  H    3.996071   3.726718   4.317342   3.488154   4.739972
    33  H    3.335800   2.491683   3.719347   2.794514   4.547096
    34  C    3.294857   4.482739   4.609498   2.591619   3.411547
    35  H    4.268336   5.151925   5.318794   3.544613   4.403787
    36  H    3.711374   5.209731   5.338940   2.859432   3.659722
    37  H    3.018496   4.348425   4.060167   2.849392   2.755366
    38  C    3.954288   4.397350   5.392452   2.578238   4.851901
    39  H    4.770861   4.992310   5.945423   3.529412   5.596679
    40  H    4.115537   4.183119   5.475665   2.746157   5.261919
    41  H    4.400931   5.211213   6.105596   2.935004   5.117654
    42  H    2.115444   2.524347   3.702362   1.108575   3.478429
                   11         12         13         14         15
    11  H    0.000000
    12  H    1.759920   0.000000
    13  H    1.758620   1.752986   0.000000
    14  C    3.563959   2.739042   4.028676   0.000000
    15  C    4.371111   3.034494   4.241409   1.531596   0.000000
    16  H    3.044099   2.196609   3.754107   1.094818   2.143045
    17  H    4.438383   3.764433   5.086161   1.094945   2.161142
    18  C    5.235680   3.690163   5.147827   2.546342   1.505491
    19  H    5.186812   3.993756   4.976955   2.147957   1.098988
    20  H    3.941367   2.509447   3.426800   2.124345   1.091499
    21  C    5.406246   3.694339   5.087064   3.521099   2.467578
    22  C    6.580311   4.895133   6.309132   4.856271   3.911844
    23  H    4.887751   3.127891   4.290888   3.660022   2.606248
    24  H    7.227616   5.607893   7.131163   5.105431   4.251983
    25  H    7.282518   5.547452   6.777083   5.663514   4.530182
    26  H    6.417914   4.819532   6.244147   5.208989   4.496021
    27  C    6.295035   4.925649   6.471171   3.153759   2.545091
    28  H    6.023784   4.874591   6.496436   2.889435   2.853503
    29  H    6.847118   5.540543   6.947508   3.448336   2.748933
    30  H    7.098898   5.651994   7.239341   4.170347   3.499125
    31  C    3.388269   3.857032   4.400768   2.576796   3.937773
    32  H    4.415567   5.479007   5.466151   4.723929   6.002924
    33  H    4.650314   5.273891   5.199962   4.199104   5.164397
    34  C    2.927074   3.706514   4.421944   3.067048   4.553409
    35  H    3.783784   4.758717   5.355150   4.069725   5.582334
    36  H    3.258313   3.624681   4.729704   2.742161   4.228748
    37  H    2.019603   3.182217   3.659743   3.423610   4.762921
    38  C    4.856450   5.105788   5.848627   3.089099   4.390129
    39  H    5.429677   5.939511   6.571505   4.130449   5.476942
    40  H    5.460287   5.538622   6.182566   3.334305   4.348661
    41  H    5.126895   5.142958   6.178264   2.869658   4.173079
    42  H    4.065369   3.784283   4.241314   2.130187   2.712571
                   16         17         18         19         20
    16  H    0.000000
    17  H    1.753950   0.000000
    18  C    2.696875   2.851825   0.000000
    19  H    3.039650   2.442123   2.136571   0.000000
    20  H    2.531766   3.031330   2.161138   1.753427   0.000000
    21  C    3.375439   4.024221   1.333865   3.205256   2.595194
    22  C    4.568541   5.210079   2.553308   4.569257   4.091914
    23  H    3.475746   4.405644   2.063812   3.411271   2.264090
    24  H    4.873481   5.232698   2.757892   4.786561   4.673953
    25  H    5.467722   6.076507   3.275274   5.062571   4.558479
    26  H    4.697358   5.618501   3.247796   5.309071   4.588762
    27  C    3.377662   2.897705   1.505651   2.763999   3.484120
    28  H    2.989445   2.373798   2.147214   3.179140   3.863405
    29  H    3.965604   3.056519   2.142187   2.513406   3.728630
    30  H    4.239782   3.929157   2.184296   3.745447   4.322815
    31  C    2.911029   2.705683   5.122143   4.185919   4.179456
    32  H    4.988646   4.822143   7.262651   6.143020   6.090477
    33  H    4.802196   4.362857   6.574210   5.053930   5.205900
    34  C    2.829844   3.208244   5.451406   5.089081   4.784479
    35  H    3.861274   4.031935   6.452939   6.046417   5.860434
    36  H    2.286409   2.727397   4.862944   4.860977   4.622174
    37  H    2.997891   3.855655   5.660815   5.426714   4.764604
    38  C    3.618891   2.639997   5.433301   4.381133   4.932331
    39  H    4.536969   3.665174   6.490702   5.474026   5.990603
    40  H    4.118378   2.878326   5.484354   4.070454   4.895919
    41  H    3.297747   2.112663   4.955453   4.233376   4.899892
    42  H    3.048400   2.501401   4.163175   2.549466   2.861749
                   21         22         23         24         25
    21  C    0.000000
    22  C    1.500373   0.000000
    23  H    1.087575   2.193653   0.000000
    24  H    2.173149   1.090360   3.107008   0.000000
    25  H    2.151854   1.095572   2.544275   1.764519   0.000000
    26  H    2.149012   1.095548   2.558142   1.762054   1.756495
    27  C    2.508627   3.110074   3.467069   2.737256   3.888496
    28  H    3.179956   3.781329   4.065600   3.381804   4.702680
    29  H    3.257645   3.941683   4.119974   3.554757   4.543798
    30  H    2.694865   2.723914   3.770093   2.018369   3.450473
    31  C    6.040474   7.370821   6.001681   7.627581   8.190938
    32  H    8.136741   9.485708   7.989139   9.780421  10.284059
    33  H    7.512689   8.953096   7.344628   9.267140   9.633993
    34  C    6.196813   7.367050   6.167085   7.624584   8.282023
    35  H    7.235982   8.360076   7.246496   8.556477   9.305075
    36  H    5.603085   6.646805   5.718283   6.813442   7.624180
    37  H    6.202993   7.366678   6.003698   7.761598   8.235709
    38  C    6.559159   7.811955   6.745205   7.865774   8.666236
    39  H    7.600878   8.821288   7.781848   8.849981   9.705067
    40  H    6.680446   7.983205   6.871694   8.023963   8.752721
    41  H    6.117242   7.244690   6.459345   7.180079   8.155444
    42  H    5.140644   6.598061   5.054795   6.908684   7.222271
                   26         27         28         29         30
    26  H    0.000000
    27  C    3.842944   0.000000
    28  H    4.288428   1.093735   0.000000
    29  H    4.795917   1.094813   1.753324   0.000000
    30  H    3.472712   1.090099   1.766848   1.769154   0.000000
    31  C    7.590511   5.553359   5.034849   5.673062   6.583983
    32  H    9.653048   7.697992   7.147275   7.746472   8.733779
    33  H    9.296019   7.068345   6.722639   6.931100   8.151665
    34  C    7.373324   5.866836   5.190950   6.234171   6.780493
    35  H    8.338039   6.732351   5.962804   7.061285   7.626963
    36  H    6.618707   5.134020   4.364563   5.610758   5.968330
    37  H    7.268826   6.305475   5.730952   6.768143   7.182055
    38  C    8.141547   5.460992   4.825784   5.389957   6.482027
    39  H    9.099008   6.455106   5.740545   6.387465   7.444147
    40  H    8.443945   5.484626   5.003800   5.205169   6.535712
    41  H    7.566063   4.755590   3.992237   4.744498   5.712019
    42  H    7.072290   4.763896   4.645635   4.624099   5.844198
                   31         32         33         34         35
    31  C    0.000000
    32  H    2.164276   0.000000
    33  H    2.149119   1.760159   0.000000
    34  C    1.531884   2.683649   3.444409   0.000000
    35  H    2.172475   2.458641   3.686095   1.098196   0.000000
    36  H    2.181381   3.698871   4.292658   1.093105   1.766965
    37  H    2.184779   3.033317   3.818165   1.088336   1.771434
    38  C    1.535093   2.715451   2.593029   2.482172   2.692539
    39  H    2.178216   2.419769   2.797978   2.778660   2.534398
    40  H    2.178287   3.179436   2.442459   3.447359   3.731462
    41  H    2.195416   3.680718   3.652416   2.694217   2.958536
    42  H    2.117854   3.710291   2.517001   3.464817   4.275552
                   36         37         38         39         40
    36  H    0.000000
    37  H    1.759153   0.000000
    38  C    2.752242   3.452317   0.000000
    39  H    3.186598   3.763743   1.097221   0.000000
    40  H    3.731335   4.317476   1.094770   1.771165   0.000000
    41  H    2.511048   3.728594   1.092969   1.764676   1.769574
    42  H    3.772799   3.841140   2.627920   3.595222   2.332119
                   41         42
    41  H    0.000000
    42  H    3.111617   0.000000
 Symmetry turned off by external request.
 Rotational constants (GHZ):           1.0450069           0.3018461           0.2640173
   588 basis functions,   942 primitive gaussians,   618 cartesian basis functions
    59 alpha electrons       59 beta electrons
       nuclear repulsion energy      1065.2308601121 Hartrees.
 NAtoms=   42 NActive=   42 NUniq=   42 SFac= 1.00D+00 NAtFMM=   60 NAOKFM=F Big=F
 Initial guess from the checkpoint file:  "09_24P.chk"
 B after Tr=     0.000000    0.000000    0.000000
         Rot=    1.000000    0.000000    0.000000    0.000000 Ang=   0.00 deg.
 SCF Done:  E(RHF) =  -583.686756759     A.U. after    2 cycles
            NFock=  2  Conv=0.20D-08     -V/T= 2.0005
 ExpMin= 2.97D-02 ExpMax= 6.67D+03 ExpMxC= 2.28D+02 IAcc=3 IRadAn=         5 AccDes= 0.00D+00
 HarFok:  IExCor=  205 AccDes= 0.00D+00 IRadAn=         5 IDoV=-2 UseB2=F ITyADJ=14
 ICtDFT= 12500011 ScaDFX=  1.000000  1.000000  1.000000  1.000000
 NROrb=    573 NOA=    44 NOB=    44 NVA=   529 NVB=   529

 **** Warning!!: The largest alpha MO coefficient is  0.12406713D+03

 Estimated scratch disk usage= 16498737668 words.
 Actual    scratch disk usage= 12509136900 words.
 ANorm=    0.1343988916D+01
 E2 =    -0.2265697926D+01 EUMP2 =    -0.58595245468556D+03

 **********************************************************************

            Population analysis using the SCF Density.

 **********************************************************************

 Alpha  occ. eigenvalues --  -11.13104 -11.12211 -11.11986 -11.10873 -11.08688
 Alpha  occ. eigenvalues --  -11.08238 -11.07825 -11.07753 -11.07586 -11.07033
 Alpha  occ. eigenvalues --  -11.06226 -11.05479 -11.04110 -11.04005 -10.95978
 Alpha  occ. eigenvalues --   -0.99205  -0.97558  -0.90566  -0.88511  -0.87134
 Alpha  occ. eigenvalues --   -0.82426  -0.79766  -0.79284  -0.75374  -0.74305
 Alpha  occ. eigenvalues --   -0.69036  -0.63015  -0.59715  -0.58770  -0.53404
 Alpha  occ. eigenvalues --   -0.52639  -0.49484  -0.47876  -0.47541  -0.46672
 Alpha  occ. eigenvalues --   -0.45784  -0.45560  -0.43885  -0.43570  -0.43042
 Alpha  occ. eigenvalues --   -0.40720  -0.40448  -0.39975  -0.37959  -0.37845
 Alpha  occ. eigenvalues --   -0.37142  -0.36507  -0.35345  -0.34611  -0.33079
 Alpha  occ. eigenvalues --   -0.32268  -0.30990  -0.30534  -0.29517  -0.28312
 Alpha  occ. eigenvalues --   -0.25663  -0.23848  -0.21828  -0.02763
 Alpha virt. eigenvalues --    0.10361   0.11028   0.11851   0.12124   0.12556
 Alpha virt. eigenvalues --    0.12978   0.13044   0.13856   0.14038   0.14401
 Alpha virt. eigenvalues --    0.14648   0.15048   0.15459   0.15960   0.16460
 Alpha virt. eigenvalues --    0.16655   0.16730   0.17436   0.17750   0.18393
 Alpha virt. eigenvalues --    0.18563   0.19200   0.19295   0.19770   0.20370
 Alpha virt. eigenvalues --    0.20901   0.20971   0.21622   0.22548   0.23302
 Alpha virt. eigenvalues --    0.23488   0.23763   0.24425   0.24510   0.24769
 Alpha virt. eigenvalues --    0.25172   0.25424   0.25890   0.25995   0.26285
 Alpha virt. eigenvalues --    0.27115   0.27222   0.27453   0.27871   0.28182
 Alpha virt. eigenvalues --    0.28501   0.28718   0.29103   0.29470   0.29672
 Alpha virt. eigenvalues --    0.30009   0.30611   0.31168   0.31483   0.31596
 Alpha virt. eigenvalues --    0.31672   0.32007   0.32473   0.32809   0.32995
 Alpha virt. eigenvalues --    0.33176   0.34323   0.34628   0.35050   0.35064
 Alpha virt. eigenvalues --    0.35356   0.35663   0.36108   0.36262   0.36883
 Alpha virt. eigenvalues --    0.37496   0.37813   0.38242   0.38786   0.39288
 Alpha virt. eigenvalues --    0.40029   0.40236   0.40784   0.41083   0.41454
 Alpha virt. eigenvalues --    0.42055   0.42372   0.42790   0.43436   0.43940
 Alpha virt. eigenvalues --    0.44548   0.44845   0.45018   0.46573   0.46870
 Alpha virt. eigenvalues --    0.47452   0.47842   0.48253   0.48774   0.49421
 Alpha virt. eigenvalues --    0.49750   0.50088   0.50490   0.50803   0.51219
 Alpha virt. eigenvalues --    0.51581   0.51974   0.52159   0.52669   0.53224
 Alpha virt. eigenvalues --    0.53807   0.54050   0.54659   0.55125   0.55378
 Alpha virt. eigenvalues --    0.55602   0.55811   0.56397   0.56950   0.57247
 Alpha virt. eigenvalues --    0.57500   0.57761   0.58030   0.58375   0.58663
 Alpha virt. eigenvalues --    0.59338   0.59570   0.59915   0.60106   0.60354
 Alpha virt. eigenvalues --    0.61199   0.61377   0.61743   0.62145   0.62919
 Alpha virt. eigenvalues --    0.63166   0.63395   0.63637   0.63663   0.64119
 Alpha virt. eigenvalues --    0.64789   0.64961   0.65024   0.65398   0.65698
 Alpha virt. eigenvalues --    0.65920   0.66305   0.66949   0.67040   0.67559
 Alpha virt. eigenvalues --    0.67839   0.68355   0.68553   0.69210   0.69553
 Alpha virt. eigenvalues --    0.70134   0.70242   0.70869   0.71320   0.71678
 Alpha virt. eigenvalues --    0.71973   0.72439   0.73424   0.73689   0.74018
 Alpha virt. eigenvalues --    0.74587   0.74982   0.75462   0.75801   0.76088
 Alpha virt. eigenvalues --    0.76493   0.76515   0.77505   0.77571   0.77779
 Alpha virt. eigenvalues --    0.78350   0.78696   0.79103   0.79746   0.79859
 Alpha virt. eigenvalues --    0.80205   0.80564   0.81064   0.81164   0.81533
 Alpha virt. eigenvalues --    0.81736   0.82034   0.82859   0.83417   0.83723
 Alpha virt. eigenvalues --    0.84292   0.84452   0.84741   0.85298   0.86081
 Alpha virt. eigenvalues --    0.86550   0.86590   0.87014   0.87487   0.87843
 Alpha virt. eigenvalues --    0.88564   0.88823   0.89062   0.89829   0.90002
 Alpha virt. eigenvalues --    0.90755   0.90863   0.92115   0.92228   0.92564
 Alpha virt. eigenvalues --    0.92713   0.93209   0.93799   0.94384   0.94626
 Alpha virt. eigenvalues --    0.95138   0.95859   0.96026   0.96188   0.96495
 Alpha virt. eigenvalues --    0.96703   0.97274   0.97383   0.98284   0.98515
 Alpha virt. eigenvalues --    0.99149   0.99601   1.00289   1.00662   1.00911
 Alpha virt. eigenvalues --    1.01319   1.01740   1.02049   1.03260   1.03372
 Alpha virt. eigenvalues --    1.03968   1.04364   1.04587   1.05137   1.05598
 Alpha virt. eigenvalues --    1.05879   1.06391   1.07037   1.07178   1.07676
 Alpha virt. eigenvalues --    1.08163   1.08649   1.08803   1.09437   1.10608
 Alpha virt. eigenvalues --    1.10788   1.11140   1.11523   1.12151   1.12514
 Alpha virt. eigenvalues --    1.12613   1.13343   1.14264   1.14721   1.14961
 Alpha virt. eigenvalues --    1.15586   1.15732   1.16184   1.16479   1.17391
 Alpha virt. eigenvalues --    1.18001   1.18609   1.18798   1.19642   1.20571
 Alpha virt. eigenvalues --    1.20737   1.21415   1.22147   1.22900   1.23040
 Alpha virt. eigenvalues --    1.23494   1.24521   1.25788   1.26116   1.26747
 Alpha virt. eigenvalues --    1.27277   1.27703   1.29195   1.29623   1.30546
 Alpha virt. eigenvalues --    1.31207   1.31874   1.32024   1.33356   1.34018
 Alpha virt. eigenvalues --    1.34687   1.35370   1.35945   1.36939   1.38854
 Alpha virt. eigenvalues --    1.39537   1.40340   1.40946   1.42488   1.42832
 Alpha virt. eigenvalues --    1.43056   1.43595   1.46061   1.46948   1.48416
 Alpha virt. eigenvalues --    1.49296   1.50482   1.50985   1.52311   1.53222
 Alpha virt. eigenvalues --    1.54131   1.54628   1.54927   1.56979   1.57628
 Alpha virt. eigenvalues --    1.58296   1.60100   1.60838   1.61804   1.63348
 Alpha virt. eigenvalues --    1.64389   1.64543   1.66100   1.68188   1.68266
 Alpha virt. eigenvalues --    1.69730   1.70383   1.71419   1.72203   1.72620
 Alpha virt. eigenvalues --    1.75308   1.75564   1.76627   1.77479   1.77760
 Alpha virt. eigenvalues --    1.78911   1.79668   1.80471   1.81803   1.82561
 Alpha virt. eigenvalues --    1.84696   1.85274   1.86121   1.86713   1.88459
 Alpha virt. eigenvalues --    1.89125   1.89437   1.90462   1.90823   1.91233
 Alpha virt. eigenvalues --    1.92735   1.94659   1.95529   1.96007   1.96427
 Alpha virt. eigenvalues --    1.97409   1.97822   1.99154   1.99459   2.00241
 Alpha virt. eigenvalues --    2.00746   2.02013   2.02146   2.02863   2.04366
 Alpha virt. eigenvalues --    2.05150   2.05680   2.07078   2.07285   2.08418
 Alpha virt. eigenvalues --    2.09547   2.10215   2.10933   2.12051   2.12144
 Alpha virt. eigenvalues --    2.12933   2.13603   2.14482   2.15556   2.16444
 Alpha virt. eigenvalues --    2.16640   2.18266   2.18563   2.19672   2.21081
 Alpha virt. eigenvalues --    2.21601   2.22462   2.22808   2.24057   2.24924
 Alpha virt. eigenvalues --    2.25194   2.26131   2.26584   2.28252   2.28571
 Alpha virt. eigenvalues --    2.30014   2.30254   2.30508   2.31718   2.31799
 Alpha virt. eigenvalues --    2.32901   2.33495   2.34091   2.34483   2.35363
 Alpha virt. eigenvalues --    2.35661   2.36143   2.37551   2.37690   2.39371
 Alpha virt. eigenvalues --    2.40339   2.40826   2.41230   2.41895   2.42319
 Alpha virt. eigenvalues --    2.44120   2.44502   2.45105   2.45805   2.46312
 Alpha virt. eigenvalues --    2.46985   2.47848   2.48795   2.50001   2.50421
 Alpha virt. eigenvalues --    2.50978   2.51385   2.52343   2.53571   2.54212
 Alpha virt. eigenvalues --    2.54762   2.55404   2.56711   2.57284   2.57672
 Alpha virt. eigenvalues --    2.58945   2.60304   2.61006   2.61997   2.62424
 Alpha virt. eigenvalues --    2.63118   2.64895   2.65050   2.65510   2.66110
 Alpha virt. eigenvalues --    2.67146   2.68237   2.68943   2.69022   2.70206
 Alpha virt. eigenvalues --    2.71745   2.73011   2.74516   2.74979   2.75594
 Alpha virt. eigenvalues --    2.76145   2.76743   2.77941   2.78534   2.79087
 Alpha virt. eigenvalues --    2.79937   2.81999   2.82589   2.83298   2.83700
 Alpha virt. eigenvalues --    2.84306   2.85196   2.86142   2.86908   2.87389
 Alpha virt. eigenvalues --    2.88562   2.89304   2.90929   2.92254   2.93164
 Alpha virt. eigenvalues --    2.94442   2.95188   2.96749   2.97683   2.98252
 Alpha virt. eigenvalues --    2.99065   2.99265   3.00781   3.02143   3.03005
 Alpha virt. eigenvalues --    3.03524   3.04434   3.05026   3.05424   3.06543
 Alpha virt. eigenvalues --    3.09129   3.10077   3.10837   3.11646   3.12487
 Alpha virt. eigenvalues --    3.14300   3.14402   3.15716   3.16129   3.17849
 Alpha virt. eigenvalues --    3.18927   3.19803   3.22309   3.23107   3.24714
 Alpha virt. eigenvalues --    3.25178   3.27587   3.28843   3.29165   3.30286
 Alpha virt. eigenvalues --    3.33576   3.35836   3.37749   3.38830   3.41100
 Alpha virt. eigenvalues --    3.41770   3.43407   3.46877   3.47129   3.51189
 Alpha virt. eigenvalues --    3.52359   3.55731   3.58664   3.64807   3.66717
 Alpha virt. eigenvalues --    3.70253   3.85757   3.89571   4.09391   4.18658
 Alpha virt. eigenvalues --    4.22472   4.45151   4.61739   5.00765
          Condensed to atoms (all electrons):
 Mulliken charges:
               1
     1  C    1.248914
     2  C    0.435378
     3  C    0.701377
     4  H   -0.191177
     5  H   -0.161267
     6  C   -1.193223
     7  H   -0.132897
     8  H   -0.221223
     9  C    0.682332
    10  C    0.716388
    11  H   -0.125326
    12  H   -0.301504
    13  H   -0.164687
    14  C    0.043662
    15  C    1.127433
    16  H   -0.343457
    17  H   -0.474081
    18  C    0.015498
    19  H   -0.192403
    20  H   -0.392414
    21  C    0.090106
    22  C    0.319709
    23  H   -0.651939
    24  H   -0.207457
    25  H    0.072969
    26  H    0.109365
    27  C    0.394207
    28  H    0.129417
    29  H    0.078346
    30  H   -0.236096
    31  C   -3.820811
    32  H   -0.210716
    33  H   -0.179891
    34  C    1.338366
    35  H   -0.037262
    36  H   -0.144534
    37  H   -0.134247
    38  C    1.682452
    39  H   -0.108091
    40  H   -0.076546
    41  H   -0.058793
    42  H   -0.425877
 Sum of Mulliken charges =  -1.00000
 Mulliken charges with hydrogens summed into heavy atoms:
               1
     1  C    0.858307
     2  C    0.082934
     3  C    0.347256
     6  C   -1.193223
     9  C    0.256455
    10  C    0.124871
    14  C   -0.773876
    15  C    0.542616
    18  C    0.015498
    21  C   -0.561833
    22  C    0.294586
    27  C    0.365874
    31  C   -3.820811
    34  C    1.022323
    38  C    1.439021
 Electronic spatial extent (au):  <R**2>=           4577.7403
 Charge=             -1.0000 electrons
 Dipole moment (field-independent basis, Debye):
    X=              4.0655    Y=              4.6386    Z=              1.3343  Tot=              6.3107
 Unable to Open any file for archive entry.
 1\1\GINC-SE372\SP\RMP2-FC\Aug-CC-pVDZ\C15H27\OHZDE\21-Sep-2024\0\\#t s
 ymm=none mp2 aug-cc-pvdz geom=allcheck guess=(read,tcheck) int=(grid=u
 ltrafine)\\title\\-1,1\C,0,-3.358486,0.474248,-0.250913\C,0,-3.544987,
 -1.034674,-0.134142\C,0,-2.414379,-1.749082,-0.905314\H,0,-4.539081,-1
 .309875,-0.521077\H,0,-3.522053,-1.340288,0.918414\C,0,-1.034779,-1.37
 5901,-0.43349\H,0,-2.550698,-1.482813,-1.971917\H,0,-2.563504,-2.83668
 2,-0.842172\C,0,-0.864035,0.132869,-0.466281\C,0,-0.629925,-2.10415,0.
 827156\H,0,-1.226289,-1.933677,1.766979\H,0,0.408875,-1.896538,1.11722
 7\H,0,-0.68422,-3.18871,0.660725\C,0,0.539128,0.586952,-0.030668\C,0,1
 .637658,-0.008796,-0.916164\H,0,0.72478,0.274178,1.001966\H,0,0.610649
 ,1.679507,-0.041282\C,0,3.031778,0.214246,-0.393492\H,0,1.551677,0.433
 065,-1.918731\H,0,1.414885,-1.071392,-1.02856\C,0,3.769554,-0.812558,0
 .031426\C,0,5.150927,-0.789907,0.616589\H,0,3.315085,-1.798379,-0.0351
 65\H,0,5.585037,0.209784,0.649014\H,0,5.831191,-1.428995,0.04293\H,0,5
 .145836,-1.178888,1.640744\C,0,3.489776,1.648311,-0.367397\H,0,2.88875
 ,2.227411,0.339474\H,0,3.339433,2.105887,-1.350574\H,0,4.538466,1.7672
 08,-0.09458\C,0,-1.991227,0.992304,0.239278\H,0,-4.155,1.016849,0.2789
 34\H,0,-3.456263,0.743071,-1.313225\C,0,-1.924602,0.908878,1.767437\H,
 0,-2.725242,1.511262,2.217042\H,0,-0.973321,1.292723,2.145069\H,0,-2.0
 28503,-0.114651,2.122499\C,0,-1.904809,2.471834,-0.160763\H,0,-2.79512
 2,3.015845,0.178778\H,0,-1.843448,2.576179,-1.24882\H,0,-1.033742,2.96
 7598,0.275175\H,0,-0.967737,0.432882,-1.528438\\Version=ES64L-G16RevC.
 01\HF=-583.6867568\MP2=-585.9524547\RMSD=1.950e-09\PG=Unknown\\@
 The archive entry for this job was punched.


 SIGN SEEN IN A RESTAURANT-
 WE RESERVE THE RIGHT TO SERVE REFUSE TO ANYONE.
 Job cpu time:       0 days  3 hours  3 minutes 42.7 seconds.
 Elapsed time:       0 days  0 hours 36 minutes 56.4 seconds.
 File lengths (MBytes):  RWF=  95618 Int=      0 D2E=      0 Chk=     42 Scr=      1
 Normal termination of Gaussian 16 at Sat Sep 21 00:58:44 2024.
