
                                 *****************
                                 * O   R   C   A *
                                 *****************

           --- An Ab Initio, DFT and Semiempirical electronic structure package ---

                  #######################################################
                  #                        -***-                        #
                  #          Department of theory and spectroscopy      #
                  #               Directorship: Frank Neese             #
                  #        Max Planck Institute fuer Kohlenforschung    #
                  #                Kaiser Wilhelm Platz 1               #
                  #                 D-45470 Muelheim/Ruhr               #
                  #                      Germany                        #
                  #                                                     #
                  #                  All rights reserved                #
                  #                        -***-                        #
                  #######################################################


                         Program Version 4.2.1 -  RELEASE  -


 With contributions from (in alphabetic order):
   Daniel Aravena         : Magnetic Suceptibility
   Michael Atanasov       : Ab Initio Ligand Field Theory (pilot matlab implementation)
   Alexander A. Auer      : GIAO ZORA, VPT2
   Ute Becker             : Parallelization
   Giovanni Bistoni       : ED, misc. LED, open-shell LED, HFLD
   Martin Brehm           : Molecular dynamics
   Dmytro Bykov           : SCF Hessian
   Vijay G. Chilkuri      : MRCI spin determinant printing, contributions to CSF-ICE
   Dipayan Datta          : RHF DLPNO-CCSD density
   Achintya Kumar Dutta   : EOM-CC, STEOM-CC
   Dmitry Ganyushin       : Spin-Orbit,Spin-Spin,Magnetic field MRCI
   Miquel Garcia          : C-PCM Hessian, Gaussian charge scheme
   Yang Guo               : DLPNO-NEVPT2, CIM, IAO-localization
   Andreas Hansen         : Spin unrestricted coupled pair/coupled cluster methods
   Benjamin Helmich-Paris : CASSCF linear response (MC-RPA)
   Lee Huntington         : MR-EOM, pCC
   Robert Izsak           : Overlap fitted RIJCOSX, COSX-SCS-MP3, EOM
   Christian Kollmar      : KDIIS, OOCD, Brueckner-CCSD(T), CCSD density
   Simone Kossmann        : Meta GGA functionals, TD-DFT gradient, OOMP2, MP2 Hessian
   Martin Krupicka        : AUTO-CI
   Lucas Lang             : DCDCAS
   Dagmar Lenk            : GEPOL surface, SMD
   Dimitrios Liakos       : Extrapolation schemes; Compound Job, initial MDCI parallelization
   Dimitrios Manganas     : Further ROCIS development; embedding schemes
   Dimitrios Pantazis     : SARC Basis sets
   Taras Petrenko         : DFT Hessian,TD-DFT gradient, ASA, ECA, R-Raman, ABS, FL, XAS/XES, NRVS
   Peter Pinski           : DLPNO-MP2, DLPNO-MP2 Gradient
   Christoph Reimann      : Effective Core Potentials
   Marius Retegan         : Local ZFS, SOC
   Christoph Riplinger    : Optimizer, TS searches, QM/MM, DLPNO-CCSD(T), (RO)-DLPNO pert. Triples
   Tobias Risthaus        : Range-separated hybrids, TD-DFT gradient, RPA, STAB
   Michael Roemelt        : Original ROCIS implementation
   Masaaki Saitow         : Open-shell DLPNO-CCSD energy and density
   Barbara Sandhoefer     : DKH picture change effects
   Avijit Sen             : IP-ROCIS
   Kantharuban Sivalingam : CASSCF convergence, NEVPT2, FIC-MRCI
   Bernardo de Souza      : ESD, SOC TD-DFT
   Georgi Stoychev        : AutoAux, RI-MP2 NMR
   Willem Van den Heuvel  : Paramagnetic NMR
   Boris Wezisla          : Elementary symmetry handling
   Frank Wennmohs         : Technical directorship


 We gratefully acknowledge several colleagues who have allowed us to
 interface, adapt or use parts of their codes:
   Stefan Grimme, W. Hujo, H. Kruse,             : VdW corrections, initial TS optimization,
                  C. Bannwarth                     DFT functionals, gCP, sTDA/sTD-DF
   Ed Valeev, F. Pavosevic, A. Kumar             : LibInt (2-el integral package), F12 methods
   Garnet Chan, S. Sharma, J. Yang, R. Olivares  : DMRG
   Ulf Ekstrom                                   : XCFun DFT Library
   Mihaly Kallay                                 : mrcc  (arbitrary order and MRCC methods)
   Andreas Klamt, Michael Diedenhofen            : otool_cosmo (COSMO solvation model)
   Jiri Pittner, Ondrej Demel                    : Mk-CCSD
   Frank Weinhold                                : gennbo (NPA and NBO analysis)
   Christopher J. Cramer and Donald G. Truhlar   : smd solvation model
   Lars Goerigk                                  : TD-DFT with DH, B97 family of functionals
   V. Asgeirsson, H. Jonsson                     : NEB implementation
   FAccTs GmbH                                   : IRC, NEB, NEB-TS, Multilevel, MM, QM/MM, CI optimization
   S Lehtola, MJT Oliveira, MAL Marques          : LibXC Library


 Your calculation uses the libint2 library for the computation of 2-el integrals
 For citations please refer to: http://libint.valeyev.net

 Your ORCA version has been built with support for libXC version: 4.2.3
 For citations please refer to: https://tddft.org/programs/libxc/

 This ORCA versions uses:
   CBLAS   interface :  Fast vector & matrix operations
   LAPACKE interface :  Fast linear algebra routines
   SCALAPACK package :  Parallel linear algebra routines




***************************************
The coordinates will be read from file: 02_47TS.xyz
***************************************


----- Orbital basis set information -----
Your calculation utilizes the basis: aug-cc-pVQZ 
    H, B-Ne : Obtained from the ccRepo (grant-hill.group.shef.ac.uk/ccrepo) Feb. 2017
              R. A. Kendall, T. H. Dunning, Jr., R. J. Harrison, J. Chem. Phys. 96, 6796 (1992)
         He : Obtained from the ccRepo (grant-hill.group.shef.ac.uk/ccrepo) Feb. 2017
              D. E. Woon, T. H. Dunning, Jr., J. Chem. Phys. 100, 2975 (1994)
  Li-Be, Na : Obtained from the ccRepo (grant-hill.group.shef.ac.uk/ccrepo) Feb. 2017
              B. P. Prascher, D. E. Woon, K. A. Peterson, T. H. Dunning, Jr., A. K. Wilson, Theor. Chem. Acc. 128, 69 (2011)
         Mg : Obtained from the Peterson Research Group Website (tyr0.chem.wsu.edu/~kipeters) Feb. 2017
              B. P. Prascher, D. E. Woon, K. A. Peterson, T. H. Dunning, Jr., A. K. Wilson, Theor. Chem. Acc. 128, 69 (2011)
      Al-Ar : Obtained from the ccRepo (grant-hill.group.shef.ac.uk/ccrepo) Feb. 2017
              D. E. Woon, T. H. Dunning, Jr., J. Chem. Phys. 98, 1358 (1993)
      Sc-Zn : Obtained from the ccRepo (grant-hill.group.shef.ac.uk/ccrepo) Feb. 2017
              N. B. Balabanov, K. A. Peterson, J. Chem. Phys. 123, 064107 (2005)
              N. B. Balabanov, K. A. Peterson, J. Chem. Phys. 125, 074110 (2006)
      Ga-Kr : Obtained from the ccRepo (grant-hill.group.shef.ac.uk/ccrepo) Feb. 2017
              A. K. Wilson, D. E. Woon, K. A. Peterson, T. H. Dunning, Jr., J. Chem. Phys. 110, 7667 (1999)

----- AuxC basis set information -----
Your calculation utilizes the auxiliary basis: aug-cc-pVQZ/C 
  H-He, B-F, Al-Ar, Ga-Kr : Obtained from the EMSL Basis Set Exchange (bse.pnl.gov) Feb. 2017
                            F. Weigend, A. Kohn, C. Hattig, J. Chem. Phys. 116, 3175 (2002)
                   Be, Mg : Obtained from the TURBOMOLE 7.0 basis set library
                            C. Haettig, Phys. Chem. Chem. Phys. 7, 59 (2005)
                       Ne : Obtained from the EMSL Basis Set Exchange (bse.pnl.gov) Feb. 2017
                            C. Haettig, Phys. Chem. Chem. Phys. 7, 59 (2005)
                            F. Weigend, A. Kohn, C. Hattig, J. Chem. Phys. 116, 3175 (2002)
                    Sc-Zn : Obtained from the EMSL Basis Set Exchange (bse.pnl.gov) Feb. 2017
                            D. H. Bross, J. G. Hill, H. J. Werner, K. A. Peterson, J. Chem. Phys. 139, 094302 (2013)

================================================================================
                                        WARNINGS
                       Please study these warnings very carefully!
================================================================================


WARNING: No MP2 level density has been requested!
         To caclulate MP2 level properties use
         %mp2 Density relaxed end
         or
         %mp2 Density unrelaxed end

WARNING: Post HF methods need fully converged wavefunctions
  ===> : Setting SCFConvForced true
         You can overwrite this default with %scf ConvForced false 


INFO   : the flag for use of LIBINT has been found!

================================================================================
                                       INPUT FILE
================================================================================
NAME = /tmp/pbs.2143120.pbsha.ib.sockeye/MP2augccpVQZ_02_47TS.inp
|  1> %pal
|  2>  nprocs 32
|  3> end
|  4> !RI-MP2 aug-cc-pVQZ aug-cc-pVQZ/C TightSCF
|  5> %maxcore 4500
|  6> *xyzfile 0 1  02_47TS.xyz
|  7> 
|  8> 
|  9>                          ****END OF INPUT****
================================================================================

                       ****************************
                       * Single Point Calculation *
                       ****************************

---------------------------------
CARTESIAN COORDINATES (ANGSTROEM)
---------------------------------
  C      1.478586    1.269997    0.000000
  C      1.478586   -1.269997    0.000000
  N      1.689025    0.646873    1.174381
  N      1.689025   -0.646873    1.174381
  C      1.346891   -2.755431   -0.000000
  H      0.819613   -3.084573   -0.893690
  H      2.339025   -3.212772    0.000000
  H      0.819613   -3.084573    0.893689
  C      1.346891    2.755431    0.000001
  H      2.339024    3.212772    0.000000
  H      0.819612    3.084573   -0.893688
  H      0.819612    3.084573    0.893690
  C     -3.282593    0.700480   -0.000001
  C     -2.097535    1.449198    0.000001
  C     -0.995069    0.623120    0.000001
  C     -0.995069   -0.623121    0.000000
  C     -2.097535   -1.449199   -0.000001
  C     -3.282593   -0.700481   -0.000001
  H     -4.231537    1.224580   -0.000001
  H     -2.094736    2.530876    0.000001
  H     -2.094736   -2.530876   -0.000002
  H     -4.231537   -1.224580   -0.000002
  N      1.689024    0.646874   -1.174380
  N      1.689025   -0.646873   -1.174381

----------------------------
CARTESIAN COORDINATES (A.U.)
----------------------------
  NO LB      ZA    FRAG     MASS         X           Y           Z
   0 C     6.0000    0    12.011    2.794123    2.399947    0.000000
   1 C     6.0000    0    12.011    2.794123   -2.399947    0.000000
   2 N     7.0000    0    14.007    3.191795    1.222413    2.219258
   3 N     7.0000    0    14.007    3.191795   -1.222413    2.219258
   4 C     6.0000    0    12.011    2.545255   -5.207010   -0.000000
   5 H     1.0000    0     1.008    1.548844   -5.828998   -1.688829
   6 H     1.0000    0     1.008    4.420117   -6.071259    0.000000
   7 H     1.0000    0     1.008    1.548844   -5.828998    1.688827
   8 C     6.0000    0    12.011    2.545255    5.207010    0.000002
   9 H     1.0000    0     1.008    4.420115    6.071259    0.000000
  10 H     1.0000    0     1.008    1.548842    5.828998   -1.688826
  11 H     1.0000    0     1.008    1.548842    5.828998    1.688829
  12 C     6.0000    0    12.011   -6.203202    1.323715   -0.000002
  13 C     6.0000    0    12.011   -3.963767    2.738587    0.000002
  14 C     6.0000    0    12.011   -1.880408    1.177526    0.000002
  15 C     6.0000    0    12.011   -1.880408   -1.177528    0.000000
  16 C     6.0000    0    12.011   -3.963767   -2.738589   -0.000002
  17 C     6.0000    0    12.011   -6.203202   -1.323717   -0.000002
  18 H     1.0000    0     1.008   -7.996446    2.314121   -0.000002
  19 H     1.0000    0     1.008   -3.958477    4.782663    0.000002
  20 H     1.0000    0     1.008   -3.958477   -4.782663   -0.000004
  21 H     1.0000    0     1.008   -7.996446   -2.314121   -0.000004
  22 N     7.0000    0    14.007    3.191793    1.222415   -2.219257
  23 N     7.0000    0    14.007    3.191795   -1.222413   -2.219258

--------------------------------
INTERNAL COORDINATES (ANGSTROEM)
--------------------------------
 C      0   0   0     0.000000000000     0.00000000     0.00000000
 C      1   0   0     2.539994000000     0.00000000     0.00000000
 N      1   2   0     1.346008478895    62.42288021     0.00000000
 N      3   1   2     1.293746000000   117.57711979     0.00000000
 C      2   1   3     1.491260453905   174.93354091   100.15909316
 H      5   2   4     1.088594672754   110.11762534   158.46116044
 H      5   2   4     1.092469983220   109.68168155   277.49893444
 H      5   2   4     1.088593851796   110.11764117    36.53673564
 C      1   2   3     1.491260453905   174.93354091   259.84134191
 H      9   1   3     1.092469075064   109.68170351    82.50113771
 H      9   1   3     1.088594336163   110.11760319   201.53891145
 H      9   1   3     1.088594336163   110.11767038   323.46321141
 C      1   2   3     4.795119923769    83.17887159   259.84089481
 C     13   1   2     1.401763570254    25.46351205   179.99983352
 C     14  13   1     1.377619738259   110.87113150     0.00000000
 C     15  14  13     1.246241000000   126.84422804     0.00000000
 C     16  15  14     1.377619738259   126.84422804     0.00000000
 C     13   1   2     1.400961000000    96.82112841     0.00000000
 H     13   1   2     1.084055130118   144.26708318   179.99998193
 H     14  13   1     1.081681621405   122.43290133   179.99980418
 H     17  16  15     1.081680621409   126.69596703   179.99999125
 H     18  13   1     1.084054646657   118.91174215   180.00004835
 N      1   2   3     1.346006987119    62.42289507   159.68185249
 N     23   1   2     1.293747000001   117.57715633     0.00000000

---------------------------
INTERNAL COORDINATES (A.U.)
---------------------------
 C      0   0   0     0.000000000000     0.00000000     0.00000000
 C      1   0   0     4.799893041803     0.00000000     0.00000000
 N      1   2   0     2.543587399048    62.42288021     0.00000000
 N      3   1   2     2.444825626856   117.57711979     0.00000000
 C      2   1   3     2.818073852228   174.93354091   100.15909316
 H      5   2   4     2.057145802350   110.11762534   158.46116044
 H      5   2   4     2.064469077816   109.68168155   277.49893444
 H      5   2   4     2.057144250966   110.11764117    36.53673564
 C      1   2   3     2.818073852228   174.93354091   259.84134191
 H      9   1   3     2.064467361649   109.68170351    82.50113771
 H      9   1   3     2.057145166286   110.11760319   201.53891145
 H      9   1   3     2.057145166286   110.11767038   323.46321141
 C      1   2   3     9.061463435234    83.17887159   259.84089481
 C     13   1   2     2.648949252288    25.46351205   179.99983352
 C     14  13   1     2.603324021993   110.87113150     0.00000000
 C     15  14  13     2.355054186865   126.84422804     0.00000000
 C     16  15  14     2.603324021994   126.84422804     0.00000000
 C     13   1   2     2.647432614304    96.82112841     0.00000000
 H     13   1   2     2.048567309996   144.26708318   179.99998193
 H     14  13   1     2.044082028551   122.43290133   179.99980418
 H     17  16  15     2.044080138832   126.69596703   179.99999125
 H     18  13   1     2.048566396386   118.91174215   180.00004835
 N      1   2   3     2.543584579999    62.42289507   159.68185249
 N     23   1   2     2.444827516584   117.57715633     0.00000000

---------------------
BASIS SET INFORMATION
---------------------
There are 3 groups of distinct atoms

 Group   1 Type C   : 22s7p4d3f2g contracted to 6s5p4d3f2g pattern {991111/31111/1111/111/11}
 Group   2 Type N   : 22s7p4d3f2g contracted to 6s5p4d3f2g pattern {991111/31111/1111/111/11}
 Group   3 Type H   : 7s4p3d2f contracted to 5s4p3d2f pattern {31111/1111/111/11}

Atom   0C    basis set group =>   1
Atom   1C    basis set group =>   1
Atom   2N    basis set group =>   2
Atom   3N    basis set group =>   2
Atom   4C    basis set group =>   1
Atom   5H    basis set group =>   3
Atom   6H    basis set group =>   3
Atom   7H    basis set group =>   3
Atom   8C    basis set group =>   1
Atom   9H    basis set group =>   3
Atom  10H    basis set group =>   3
Atom  11H    basis set group =>   3
Atom  12C    basis set group =>   1
Atom  13C    basis set group =>   1
Atom  14C    basis set group =>   1
Atom  15C    basis set group =>   1
Atom  16C    basis set group =>   1
Atom  17C    basis set group =>   1
Atom  18H    basis set group =>   3
Atom  19H    basis set group =>   3
Atom  20H    basis set group =>   3
Atom  21H    basis set group =>   3
Atom  22N    basis set group =>   2
Atom  23N    basis set group =>   2
---------------------------------
AUXILIARY/C BASIS SET INFORMATION
---------------------------------
There are 3 groups of distinct atoms

 Group   1 Type C   : 9s8p7d6f4g2h contracted to 9s8p7d6f4g2h pattern {111111111/11111111/1111111/111111/1111/11}
 Group   2 Type N   : 9s8p7d6f4g2h contracted to 9s8p7d6f4g2h pattern {111111111/11111111/1111111/111111/1111/11}
 Group   3 Type H   : 6s5p4d3f2g contracted to 6s5p4d3f2g pattern {111111/11111/1111/111/11}

Atom   0C    basis set group =>   1
Atom   1C    basis set group =>   1
Atom   2N    basis set group =>   2
Atom   3N    basis set group =>   2
Atom   4C    basis set group =>   1
Atom   5H    basis set group =>   3
Atom   6H    basis set group =>   3
Atom   7H    basis set group =>   3
Atom   8C    basis set group =>   1
Atom   9H    basis set group =>   3
Atom  10H    basis set group =>   3
Atom  11H    basis set group =>   3
Atom  12C    basis set group =>   1
Atom  13C    basis set group =>   1
Atom  14C    basis set group =>   1
Atom  15C    basis set group =>   1
Atom  16C    basis set group =>   1
Atom  17C    basis set group =>   1
Atom  18H    basis set group =>   3
Atom  19H    basis set group =>   3
Atom  20H    basis set group =>   3
Atom  21H    basis set group =>   3
Atom  22N    basis set group =>   2
Atom  23N    basis set group =>   2


           ************************************************************
           *        Program running with 32 parallel MPI-processes    *
           *              working on a common directory               *
           ************************************************************
------------------------------------------------------------------------------
                           ORCA GTO INTEGRAL CALCULATION
------------------------------------------------------------------------------

                         BASIS SET STATISTICS AND STARTUP INFO

 # of primitive gaussian shells          ...  692
 # of primitive gaussian functions       ... 1908
 # of contracted shells                  ...  420
 # of contracted basis functions         ... 1580
 Highest angular momentum                ...    4
 Maximum contraction depth               ...    9
 Integral package used                   ... LIBINT
 Integral threshhold            Thresh   ...  2.500e-11
 Primitive cut-off              TCut     ...  2.500e-12


------------------------------ INTEGRAL EVALUATION ----------------------------


 * One electron integrals 
 Pre-screening matrix                    ... done
 Shell pair data                         ... done (   0.027 sec)



           ************************************************************
           *        Program running with 32 parallel MPI-processes    *
           *              working on a common directory               *
           ************************************************************
-------------------------------------------------------------------------------
                                 ORCA SCF
-------------------------------------------------------------------------------

------------
SCF SETTINGS
------------
Hamiltonian:
 Ab initio Hamiltonian  Method          .... Hartree-Fock(GTOs)


General Settings:
 Integral files         IntName         .... /tmp/pbs.2143120.pbsha.ib.sockeye/MP2augccpVQZ_02_47TS
 Hartree-Fock type      HFTyp           .... RHF
 Total Charge           Charge          ....    0
 Multiplicity           Mult            ....    1
 Number of Electrons    NEL             ....   98
 Basis Dimension        Dim             .... 1580
 Nuclear Repulsion      ENuc            ....    841.7061182582 Eh

Convergence Acceleration:
 DIIS                   CNVDIIS         .... on
   Start iteration      DIISMaxIt       ....    12
   Startup error        DIISStart       ....  0.200000
   # of expansion vecs  DIISMaxEq       ....     5
   Bias factor          DIISBfac        ....   1.050
   Max. coefficient     DIISMaxC        ....  10.000
 Newton-Raphson         CNVNR           .... off
 SOSCF                  CNVSOSCF        .... on
   Start iteration      SOSCFMaxIt      ....   150
   Startup grad/error   SOSCFStart      ....  0.003300
 Level Shifting         CNVShift        .... on
   Level shift para.    LevelShift      ....    0.2500
   Turn off err/grad.   ShiftErr        ....    0.0010
 Zerner damping         CNVZerner       .... off
 Static damping         CNVDamp         .... on
   Fraction old density DampFac         ....    0.7000
   Max. Damping (<1)    DampMax         ....    0.9800
   Min. Damping (>=0)   DampMin         ....    0.0000
   Turn off err/grad.   DampErr         ....    0.1000
 Fernandez-Rico         CNVRico         .... off

SCF Procedure:
 Maximum # iterations   MaxIter         ....   125
 SCF integral mode      SCFMode         .... Direct
   Integral package                     .... LIBINT
 Reset frequency        DirectResetFreq ....    20
 Integral Threshold     Thresh          ....  2.500e-11 Eh
 Primitive CutOff       TCut            ....  2.500e-12 Eh

Convergence Tolerance:
 Convergence Check Mode ConvCheckMode   .... Total+1el-Energy
 Convergence forced     ConvForced      .... 1
 Energy Change          TolE            ....  1.000e-08 Eh
 1-El. energy change                    ....  1.000e-05 Eh
 Orbital Gradient       TolG            ....  1.000e-05
 Orbital Rotation angle TolX            ....  1.000e-05
 DIIS Error             TolErr          ....  5.000e-07


Diagonalization of the overlap matrix:
Smallest eigenvalue                        ... 1.146e-07
Time for diagonalization                   ...    0.329 sec
Threshold for overlap eigenvalues          ... 1.000e-08
Number of eigenvalues below threshold      ... 0
Time for construction of square roots      ...    0.230 sec
Total time needed                          ...    0.569 sec

-------------------
DFT GRID GENERATION
-------------------

General Integration Accuracy     IntAcc      ...  4.340
Radial Grid Type                 RadialGrid  ... Gauss-Chebyshev
Angular Grid (max. acc.)         AngularGrid ... Lebedev-110
Angular grid pruning method      GridPruning ... 3 (G Style)
Weight generation scheme         WeightScheme... Becke
Basis function cutoff            BFCut       ...    1.0000e-11
Integration weight cutoff        WCut        ...    1.0000e-14
Grids for H and He will be reduced by one unit

# of grid points (after initial pruning)     ...  31308 (   0.0 sec)
# of grid points (after weights+screening)   ...  28430 (   0.0 sec)
nearest neighbour list constructed           ...    0.0 sec
Grid point re-assignment to atoms done       ...    0.0 sec
Grid point division into batches done        ...    0.0 sec
Reduced shell lists constructed in    0.1 sec

Total number of grid points                  ...    28430
Total number of batches                      ...      456
Average number of points per batch           ...       62
Average number of grid points per atom       ...     1185
Average number of shells per batch           ...   283.00 (67.38%)
Average number of basis functions per batch  ...  1085.12 (68.68%)
Average number of large shells per batch     ...   230.38 (81.40%)
Average number of large basis fcns per batch ...   869.75 (80.15%)
Maximum spatial batch extension              ...   4.10,  2.77,  2.21 au
Average spatial batch extension              ...   0.06,  0.05,  0.05 au

Time for grid setup =    0.118 sec

------------------------------
INITIAL GUESS: MODEL POTENTIAL
------------------------------
Loading Hartree-Fock densities                     ... done
Calculating cut-offs                               ... done
Setting up the integral package                    ... done
Initializing the effective Hamiltonian             ... done
Starting the Coulomb interaction                   ... done (   0.2 sec)
Reading the grid                                   ... done
Mapping shells                                     ... done
Starting the XC term evaluation                    ... done (   0.3 sec)
Transforming the Hamiltonian                       ... done (   0.1 sec)
Diagonalizing the Hamiltonian                      ... done (   0.3 sec)
Back transforming the eigenvectors                 ... done (   0.1 sec)
Now organizing SCF variables                       ... done
                      ------------------
                      INITIAL GUESS DONE (   1.3 sec)
                      ------------------
--------------
SCF ITERATIONS
--------------
ITER       Energy         Delta-E        Max-DP      RMS-DP      [F,P]     Damp
               ***  Starting incremental Fock matrix formation  ***
  0   -601.7431965777   0.000000000000 0.48119229  0.00179193  0.2625832 0.7000
  1   -601.9234656365  -0.180269058747 0.38817389  0.00140715  0.1712602 0.7000
                               ***Turning on DIIS***
  2   -602.0381653481  -0.114699711653 0.28509917  0.00102009  0.1053562 0.7000
  3   -603.3991790966  -1.361013748474 0.70684980  0.00249535  0.0644208 0.0000
  4   -602.2052848569   1.193894239707 0.01728542  0.00011864  0.0077401 0.0000
  5   -602.2661432972  -0.060858440307 0.00828654  0.00004968  0.0028892 0.0000
                      *** Initiating the SOSCF procedure ***
                           *** Shutting down DIIS ***
                      *** Re-Reading the Fockian *** 
                      *** Removing any level shift *** 
ITER      Energy       Delta-E        Grad      Rot      Max-DP    RMS-DP
  6   -602.27590872  -0.0097654221  0.002905  0.002905  0.003163  0.000019
               *** Restarting incremental Fock matrix formation ***
  7   -602.28589479  -0.0099860662  0.001720  0.003905  0.004048  0.000015
  8   -602.28592885  -0.0000340661  0.001153  0.008075  0.007601  0.000024
  9   -602.28595642  -0.0000275654  0.000180  0.000909  0.001331  0.000007
 10   -602.28595872  -0.0000023034  0.000107  0.000170  0.000735  0.000004
 11   -602.28595964  -0.0000009148  0.000030  0.000133  0.000693  0.000004
 12   -602.28595974  -0.0000001059  0.000012  0.000024  0.000895  0.000006
 13   -602.28595974   0.0000000025  0.000004  0.000008  0.000861  0.000004
                  ***Gradient check signals convergence***
              ***Rediagonalizing the Fockian in SOSCF/NRSCF***

               *****************************************************
               *                     SUCCESS                       *
               *           SCF CONVERGED AFTER  14 CYCLES          *
               *****************************************************


----------------
TOTAL SCF ENERGY
----------------

Total Energy       :         -602.28595974 Eh          -16389.03417 eV

Components:
Nuclear Repulsion  :          841.70611826 Eh           22903.98789 eV
Electronic Energy  :        -1443.99207800 Eh          -39293.02206 eV
One Electron Energy:        -2486.97731158 Eh          -67674.09313 eV
Two Electron Energy:         1042.98523358 Eh           28381.07107 eV

Virial components:
Potential Energy   :        -1203.95216898 Eh          -32761.20407 eV
Kinetic Energy     :          601.66620925 Eh           16372.16990 eV
Virial Ratio       :            2.00103006


---------------
SCF CONVERGENCE
---------------

  Last Energy change         ...   -4.9636e-10  Tolerance :   1.0000e-08
  Last MAX-Density change    ...    2.8457e-03  Tolerance :   1.0000e-07
  Last RMS-Density change    ...    1.8337e-05  Tolerance :   5.0000e-09
  Last Orbital Gradient      ...    1.1128e-06  Tolerance :   1.0000e-05
  Last Orbital Rotation      ...    5.7093e-06  Tolerance :   1.0000e-05

             **** THE GBW FILE WAS UPDATED (/tmp/pbs.2143120.pbsha.ib.sockeye/MP2augccpVQZ_02_47TS.gbw) ****
             **** DENSITY FILE WAS UPDATED (/tmp/pbs.2143120.pbsha.ib.sockeye/MP2augccpVQZ_02_47TS.scfp) ****
             **** ENERGY FILE WAS UPDATED (/tmp/pbs.2143120.pbsha.ib.sockeye/MP2augccpVQZ_02_47TS.en.tmp) ****
             **** THE GBW FILE WAS UPDATED (/tmp/pbs.2143120.pbsha.ib.sockeye/MP2augccpVQZ_02_47TS.gbw) ****
             **** DENSITY FILE WAS UPDATED (/tmp/pbs.2143120.pbsha.ib.sockeye/MP2augccpVQZ_02_47TS.scfp) ****
----------------
ORBITAL ENERGIES
----------------

  NO   OCC          E(Eh)            E(eV) 
   0   2.0000     -15.631062      -425.3428 
   1   2.0000     -15.631028      -425.3419 
   2   2.0000     -15.630044      -425.3151 
   3   2.0000     -15.630041      -425.3150 
   4   2.0000     -11.328142      -308.2544 
   5   2.0000     -11.328109      -308.2535 
   6   2.0000     -11.274648      -306.7988 
   7   2.0000     -11.274636      -306.7984 
   8   2.0000     -11.254655      -306.2547 
   9   2.0000     -11.253471      -306.2225 
  10   2.0000     -11.250614      -306.1448 
  11   2.0000     -11.247583      -306.0623 
  12   2.0000     -11.239038      -305.8298 
  13   2.0000     -11.239038      -305.8298 
  14   2.0000      -1.429232       -38.8914 
  15   2.0000      -1.322212       -35.9792 
  16   2.0000      -1.186746       -32.2930 
  17   2.0000      -1.182397       -32.1747 
  18   2.0000      -1.042788       -28.3757 
  19   2.0000      -1.036134       -28.1946 
  20   2.0000      -1.022755       -27.8306 
  21   2.0000      -0.995694       -27.0942 
  22   2.0000      -0.961506       -26.1639 
  23   2.0000      -0.879399       -23.9297 
  24   2.0000      -0.853853       -23.2345 
  25   2.0000      -0.801899       -21.8208 
  26   2.0000      -0.782036       -21.2803 
  27   2.0000      -0.707239       -19.2449 
  28   2.0000      -0.682749       -18.5785 
  29   2.0000      -0.653476       -17.7820 
  30   2.0000      -0.649612       -17.6769 
  31   2.0000      -0.641145       -17.4465 
  32   2.0000      -0.618717       -16.8361 
  33   2.0000      -0.596178       -16.2228 
  34   2.0000      -0.578893       -15.7525 
  35   2.0000      -0.575473       -15.6594 
  36   2.0000      -0.560004       -15.2385 
  37   2.0000      -0.557757       -15.1773 
  38   2.0000      -0.550152       -14.9704 
  39   2.0000      -0.539122       -14.6703 
  40   2.0000      -0.532967       -14.5028 
  41   2.0000      -0.506274       -13.7764 
  42   2.0000      -0.502684       -13.6787 
  43   2.0000      -0.483980       -13.1698 
  44   2.0000      -0.385578       -10.4921 
  45   2.0000      -0.380444       -10.3524 
  46   2.0000      -0.373939       -10.1754 
  47   2.0000      -0.359186        -9.7740 
  48   2.0000      -0.359062        -9.7706 
  49   0.0000       0.021525         0.5857 
  50   0.0000       0.023579         0.6416 
  51   0.0000       0.028696         0.7809 
  52   0.0000       0.033931         0.9233 
  53   0.0000       0.040097         1.0911 
  54   0.0000       0.041931         1.1410 
  55   0.0000       0.047760         1.2996 
  56   0.0000       0.050736         1.3806 
  57   0.0000       0.055287         1.5044 
  58   0.0000       0.061733         1.6798 
  59   0.0000       0.061757         1.6805 
  60   0.0000       0.065468         1.7815 
  61   0.0000       0.070655         1.9226 
  62   0.0000       0.077969         2.1216 
  63   0.0000       0.082941         2.2570 
  64   0.0000       0.083892         2.2828 
  65   0.0000       0.083923         2.2837 
  66   0.0000       0.089837         2.4446 
  67   0.0000       0.090119         2.4523 
  68   0.0000       0.095827         2.6076 
  69   0.0000       0.095912         2.6099 
  70   0.0000       0.098608         2.6833 
  71   0.0000       0.101651         2.7661 
  72   0.0000       0.102851         2.7987 
  73   0.0000       0.104850         2.8531 
  74   0.0000       0.108215         2.9447 
  75   0.0000       0.113489         3.0882 
  76   0.0000       0.119168         3.2427 
  77   0.0000       0.123338         3.3562 
  78   0.0000       0.124580         3.3900 
  79   0.0000       0.125242         3.4080 
  80   0.0000       0.127474         3.4687 
  81   0.0000       0.132866         3.6155 
  82   0.0000       0.132940         3.6175 
  83   0.0000       0.133134         3.6228 
  84   0.0000       0.135466         3.6862 
  85   0.0000       0.135967         3.6999 
  86   0.0000       0.141200         3.8422 
  87   0.0000       0.151295         4.1170 
  88   0.0000       0.153527         4.1777 
  89   0.0000       0.160485         4.3670 
  90   0.0000       0.160552         4.3688 
  91   0.0000       0.163120         4.4387 
  92   0.0000       0.174752         4.7553 
  93   0.0000       0.175827         4.7845 
  94   0.0000       0.177705         4.8356 
  95   0.0000       0.184292         5.0148 
  96   0.0000       0.186486         5.0745 
  97   0.0000       0.193255         5.2587 
  98   0.0000       0.199113         5.4181 
  99   0.0000       0.199743         5.4353 
 100   0.0000       0.201676         5.4879 
 101   0.0000       0.205693         5.5972 
 102   0.0000       0.208573         5.6756 
 103   0.0000       0.213966         5.8223 
 104   0.0000       0.216944         5.9033 
 105   0.0000       0.217101         5.9076 
 106   0.0000       0.217534         5.9194 
 107   0.0000       0.222438         6.0528 
 108   0.0000       0.223970         6.0945 
 109   0.0000       0.230587         6.2746 
 110   0.0000       0.233978         6.3669 
 111   0.0000       0.235690         6.4135 
 112   0.0000       0.237563         6.4644 
 113   0.0000       0.238835         6.4990 
 114   0.0000       0.244014         6.6399 
 115   0.0000       0.245234         6.6731 
 116   0.0000       0.254447         6.9239 
 117   0.0000       0.261052         7.1036 
 118   0.0000       0.261567         7.1176 
 119   0.0000       0.263275         7.1641 
 120   0.0000       0.265357         7.2207 
 121   0.0000       0.267281         7.2731 
 122   0.0000       0.267351         7.2750 
 123   0.0000       0.276144         7.5143 
 124   0.0000       0.277826         7.5600 
 125   0.0000       0.281793         7.6680 
 126   0.0000       0.289296         7.8721 
 127   0.0000       0.293183         7.9779 
 128   0.0000       0.294492         8.0135 
 129   0.0000       0.300662         8.1814 
 130   0.0000       0.303633         8.2623 
 131   0.0000       0.304565         8.2876 
 132   0.0000       0.307123         8.3573 
 133   0.0000       0.309078         8.4104 
 134   0.0000       0.311499         8.4763 
 135   0.0000       0.315766         8.5924 
 136   0.0000       0.327015         8.8985 
 137   0.0000       0.327155         8.9023 
 138   0.0000       0.328445         8.9375 
 139   0.0000       0.330088         8.9821 
 140   0.0000       0.336409         9.1541 
 141   0.0000       0.340832         9.2745 
 142   0.0000       0.342479         9.3193 
 143   0.0000       0.342835         9.3290 
 144   0.0000       0.346771         9.4361 
 145   0.0000       0.348077         9.4717 
 146   0.0000       0.349565         9.5122 
 147   0.0000       0.353007         9.6058 
 148   0.0000       0.358164         9.7461 
 149   0.0000       0.362920         9.8755 
 150   0.0000       0.366653         9.9771 
 151   0.0000       0.369993        10.0680 
 152   0.0000       0.370002        10.0683 
 153   0.0000       0.372121        10.1259 
 154   0.0000       0.376106        10.2344 
 155   0.0000       0.381371        10.3776 
 156   0.0000       0.384416        10.4605 
 157   0.0000       0.386533        10.5181 
 158   0.0000       0.391011        10.6399 
 159   0.0000       0.393482        10.7072 
 160   0.0000       0.394862        10.7447 
 161   0.0000       0.397434        10.8147 
 162   0.0000       0.406799        11.0696 
 163   0.0000       0.407454        11.0874 
 164   0.0000       0.408846        11.1253 
 165   0.0000       0.409304        11.1377 
 166   0.0000       0.413147        11.2423 
 167   0.0000       0.415413        11.3040 
 168   0.0000       0.415883        11.3167 
 169   0.0000       0.419292        11.4095 
 170   0.0000       0.422648        11.5008 
 171   0.0000       0.425610        11.5814 
 172   0.0000       0.431791        11.7496 
 173   0.0000       0.433680        11.8010 
 174   0.0000       0.434601        11.8261 
 175   0.0000       0.436582        11.8800 
 176   0.0000       0.439851        11.9690 
 177   0.0000       0.441210        12.0059 
 178   0.0000       0.450264        12.2523 
 179   0.0000       0.450512        12.2590 
 180   0.0000       0.457583        12.4515 
 181   0.0000       0.457983        12.4624 
 182   0.0000       0.461622        12.5614 
 183   0.0000       0.462615        12.5884 
 184   0.0000       0.467571        12.7233 
 185   0.0000       0.469556        12.7773 
 186   0.0000       0.472950        12.8696 
 187   0.0000       0.475897        12.9498 
 188   0.0000       0.477193        12.9851 
 189   0.0000       0.486882        13.2487 
 190   0.0000       0.488435        13.2910 
 191   0.0000       0.491993        13.3878 
 192   0.0000       0.495019        13.4702 
 193   0.0000       0.500746        13.6260 
 194   0.0000       0.504879        13.7385 
 195   0.0000       0.507062        13.7979 
 196   0.0000       0.507845        13.8192 
 197   0.0000       0.508504        13.8371 
 198   0.0000       0.515449        14.0261 
 199   0.0000       0.516777        14.0622 
 200   0.0000       0.521322        14.1859 
 201   0.0000       0.523513        14.2455 
 202   0.0000       0.529369        14.4049 
 203   0.0000       0.531596        14.4655 
 204   0.0000       0.534320        14.5396 
 205   0.0000       0.535808        14.5801 
 206   0.0000       0.541104        14.7242 
 207   0.0000       0.547877        14.9085 
 208   0.0000       0.548378        14.9221 
 209   0.0000       0.552352        15.0303 
 210   0.0000       0.552565        15.0361 
 211   0.0000       0.552942        15.0463 
 212   0.0000       0.554958        15.1012 
 213   0.0000       0.560773        15.2594 
 214   0.0000       0.562488        15.3061 
 215   0.0000       0.565393        15.3851 
 216   0.0000       0.574206        15.6249 
 217   0.0000       0.576714        15.6932 
 218   0.0000       0.580922        15.8077 
 219   0.0000       0.586798        15.9676 
 220   0.0000       0.589995        16.0546 
 221   0.0000       0.592621        16.1260 
 222   0.0000       0.599251        16.3064 
 223   0.0000       0.605517        16.4770 
 224   0.0000       0.605631        16.4801 
 225   0.0000       0.609108        16.5747 
 226   0.0000       0.614509        16.7216 
 227   0.0000       0.616185        16.7672 
 228   0.0000       0.620502        16.8847 
 229   0.0000       0.625994        17.0342 
 230   0.0000       0.632914        17.2225 
 231   0.0000       0.633689        17.2435 
 232   0.0000       0.641281        17.4501 
 233   0.0000       0.644029        17.5249 
 234   0.0000       0.649108        17.6631 
 235   0.0000       0.651221        17.7206 
 236   0.0000       0.653322        17.7778 
 237   0.0000       0.658326        17.9140 
 238   0.0000       0.665483        18.1087 
 239   0.0000       0.669930        18.2297 
 240   0.0000       0.673137        18.3170 
 241   0.0000       0.674954        18.3664 
 242   0.0000       0.683295        18.5934 
 243   0.0000       0.684871        18.6363 
 244   0.0000       0.686235        18.6734 
 245   0.0000       0.689672        18.7669 
 246   0.0000       0.691676        18.8214 
 247   0.0000       0.693293        18.8655 
 248   0.0000       0.700465        19.0606 
 249   0.0000       0.701517        19.0892 
 250   0.0000       0.709577        19.3086 
 251   0.0000       0.714180        19.4338 
 252   0.0000       0.715479        19.4692 
 253   0.0000       0.716045        19.4846 
 254   0.0000       0.717561        19.5258 
 255   0.0000       0.722298        19.6547 
 256   0.0000       0.729969        19.8635 
 257   0.0000       0.734899        19.9976 
 258   0.0000       0.738771        20.1030 
 259   0.0000       0.741147        20.1676 
 260   0.0000       0.743935        20.2435 
 261   0.0000       0.744906        20.2699 
 262   0.0000       0.749275        20.3888 
 263   0.0000       0.758419        20.6376 
 264   0.0000       0.759721        20.6731 
 265   0.0000       0.761742        20.7280 
 266   0.0000       0.763002        20.7623 
 267   0.0000       0.770043        20.9539 
 268   0.0000       0.772649        21.0249 
 269   0.0000       0.775324        21.0976 
 270   0.0000       0.783145        21.3105 
 271   0.0000       0.784488        21.3470 
 272   0.0000       0.784843        21.3567 
 273   0.0000       0.790408        21.5081 
 274   0.0000       0.793697        21.5976 
 275   0.0000       0.795370        21.6431 
 276   0.0000       0.798356        21.7244 
 277   0.0000       0.800831        21.7917 
 278   0.0000       0.802783        21.8448 
 279   0.0000       0.806867        21.9560 
 280   0.0000       0.814291        22.1580 
 281   0.0000       0.819321        22.2949 
 282   0.0000       0.820534        22.3279 
 283   0.0000       0.820927        22.3386 
 284   0.0000       0.827015        22.5042 
 285   0.0000       0.828186        22.5361 
 286   0.0000       0.832785        22.6612 
 287   0.0000       0.836315        22.7573 
 288   0.0000       0.837772        22.7969 
 289   0.0000       0.840613        22.8742 
 290   0.0000       0.846112        23.0239 
 291   0.0000       0.848163        23.0797 
 292   0.0000       0.851784        23.1782 
 293   0.0000       0.851834        23.1796 
 294   0.0000       0.853375        23.2215 
 295   0.0000       0.865213        23.5436 
 296   0.0000       0.865355        23.5475 
 297   0.0000       0.869489        23.6600 
 298   0.0000       0.873674        23.7739 
 299   0.0000       0.874461        23.7953 
 300   0.0000       0.886611        24.1259 
 301   0.0000       0.890864        24.2416 
 302   0.0000       0.892747        24.2929 
 303   0.0000       0.896691        24.4002 
 304   0.0000       0.907106        24.6836 
 305   0.0000       0.914350        24.8807 
 306   0.0000       0.917201        24.9583 
 307   0.0000       0.919289        25.0151 
 308   0.0000       0.921522        25.0759 
 309   0.0000       0.924537        25.1579 
 310   0.0000       0.926943        25.2234 
 311   0.0000       0.927418        25.2363 
 312   0.0000       0.928436        25.2640 
 313   0.0000       0.930144        25.3105 
 314   0.0000       0.935859        25.4660 
 315   0.0000       0.937658        25.5150 
 316   0.0000       0.939787        25.5729 
 317   0.0000       0.943177        25.6652 
 318   0.0000       0.948141        25.8002 
 319   0.0000       0.948403        25.8074 
 320   0.0000       0.958467        26.0812 
 321   0.0000       0.962289        26.1852 
 322   0.0000       0.973011        26.4770 
 323   0.0000       0.976539        26.5730 
 324   0.0000       0.977059        26.5871 
 325   0.0000       0.979311        26.6484 
 326   0.0000       0.979353        26.6495 
 327   0.0000       0.989504        26.9258 
 328   0.0000       0.991766        26.9873 
 329   0.0000       0.993926        27.0461 
 330   0.0000       0.995329        27.0843 
 331   0.0000       0.999606        27.2006 
 332   0.0000       1.004846        27.3432 
 333   0.0000       1.013793        27.5867 
 334   0.0000       1.015801        27.6414 
 335   0.0000       1.036563        28.2063 
 336   0.0000       1.036875        28.2148 
 337   0.0000       1.043966        28.4077 
 338   0.0000       1.046733        28.4831 
 339   0.0000       1.047823        28.5127 
 340   0.0000       1.059577        28.8326 
 341   0.0000       1.064720        28.9725 
 342   0.0000       1.069130        29.0925 
 343   0.0000       1.072297        29.1787 
 344   0.0000       1.073401        29.2087 
 345   0.0000       1.074435        29.2369 
 346   0.0000       1.076150        29.2835 
 347   0.0000       1.080809        29.4103 
 348   0.0000       1.086141        29.5554 
 349   0.0000       1.086735        29.5716 
 350   0.0000       1.095974        29.8230 
 351   0.0000       1.101017        29.9602 
 352   0.0000       1.101256        29.9667 
 353   0.0000       1.106555        30.1109 
 354   0.0000       1.107634        30.1403 
 355   0.0000       1.115974        30.3672 
 356   0.0000       1.119417        30.4609 
 357   0.0000       1.120875        30.5006 
 358   0.0000       1.123970        30.5848 
 359   0.0000       1.126889        30.6642 
 360   0.0000       1.127620        30.6841 
 361   0.0000       1.131841        30.7990 
 362   0.0000       1.135287        30.8927 
 363   0.0000       1.142516        31.0894 
 364   0.0000       1.147836        31.2342 
 365   0.0000       1.152745        31.3678 
 366   0.0000       1.154056        31.4035 
 367   0.0000       1.161644        31.6099 
 368   0.0000       1.164071        31.6760 
 369   0.0000       1.168570        31.7984 
 370   0.0000       1.170477        31.8503 
 371   0.0000       1.178433        32.0668 
 372   0.0000       1.182237        32.1703 
 373   0.0000       1.183441        32.2031 
 374   0.0000       1.189437        32.3662 
 375   0.0000       1.196895        32.5692 
 376   0.0000       1.199600        32.6428 
 377   0.0000       1.204724        32.7822 
 378   0.0000       1.205649        32.8074 
 379   0.0000       1.208554        32.8864 
 380   0.0000       1.212554        32.9953 
 381   0.0000       1.217584        33.1321 
 382   0.0000       1.218902        33.1680 
 383   0.0000       1.219391        33.1813 
 384   0.0000       1.227842        33.4113 
 385   0.0000       1.231946        33.5229 
 386   0.0000       1.238265        33.6949 
 387   0.0000       1.241294        33.7773 
 388   0.0000       1.245094        33.8807 
 389   0.0000       1.252755        34.0892 
 390   0.0000       1.258881        34.2559 
 391   0.0000       1.260972        34.3128 
 392   0.0000       1.261991        34.3405 
 393   0.0000       1.267502        34.4905 
 394   0.0000       1.269670        34.5495 
 395   0.0000       1.272898        34.6373 
 396   0.0000       1.282548        34.8999 
 397   0.0000       1.284766        34.9603 
 398   0.0000       1.286240        35.0004 
 399   0.0000       1.287093        35.0236 
 400   0.0000       1.301419        35.4134 
 401   0.0000       1.305045        35.5121 
 402   0.0000       1.312683        35.7199 
 403   0.0000       1.315843        35.8059 
 404   0.0000       1.322604        35.9899 
 405   0.0000       1.324120        36.0311 
 406   0.0000       1.324732        36.0478 
 407   0.0000       1.324845        36.0509 
 408   0.0000       1.345278        36.6069 
 409   0.0000       1.345853        36.6225 
 410   0.0000       1.348617        36.6977 
 411   0.0000       1.351931        36.7879 
 412   0.0000       1.357516        36.9399 
 413   0.0000       1.363635        37.1064 
 414   0.0000       1.368331        37.2342 
 415   0.0000       1.372350        37.3436 
 416   0.0000       1.381127        37.5824 
 417   0.0000       1.381249        37.5857 
 418   0.0000       1.384595        37.6768 
 419   0.0000       1.389161        37.8010 
 420   0.0000       1.390929        37.8491 
 421   0.0000       1.395332        37.9689 
 422   0.0000       1.402899        38.1748 
 423   0.0000       1.404316        38.2134 
 424   0.0000       1.404455        38.2172 
 425   0.0000       1.409427        38.3525 
 426   0.0000       1.413121        38.4530 
 427   0.0000       1.425806        38.7981 
 428   0.0000       1.427840        38.8535 
 429   0.0000       1.433956        39.0199 
 430   0.0000       1.436577        39.0912 
 431   0.0000       1.439060        39.1588 
 432   0.0000       1.448754        39.4226 
 433   0.0000       1.451292        39.4917 
 434   0.0000       1.462197        39.7884 
 435   0.0000       1.465228        39.8709 
 436   0.0000       1.467491        39.9325 
 437   0.0000       1.470222        40.0068 
 438   0.0000       1.483074        40.3565 
 439   0.0000       1.486335        40.4452 
 440   0.0000       1.492746        40.6197 
 441   0.0000       1.497440        40.7474 
 442   0.0000       1.498811        40.7847 
 443   0.0000       1.505926        40.9783 
 444   0.0000       1.507208        41.0132 
 445   0.0000       1.530078        41.6355 
 446   0.0000       1.536305        41.8050 
 447   0.0000       1.545875        42.0654 
 448   0.0000       1.546705        42.0880 
 449   0.0000       1.549197        42.1558 
 450   0.0000       1.552588        42.2481 
 451   0.0000       1.554469        42.2992 
 452   0.0000       1.557725        42.3878 
 453   0.0000       1.566179        42.6179 
 454   0.0000       1.569965        42.7209 
 455   0.0000       1.571984        42.7759 
 456   0.0000       1.574373        42.8409 
 457   0.0000       1.588223        43.2177 
 458   0.0000       1.591554        43.3084 
 459   0.0000       1.591694        43.3122 
 460   0.0000       1.603819        43.6421 
 461   0.0000       1.607340        43.7380 
 462   0.0000       1.608165        43.7604 
 463   0.0000       1.614393        43.9299 
 464   0.0000       1.615624        43.9634 
 465   0.0000       1.625129        44.2220 
 466   0.0000       1.629324        44.3362 
 467   0.0000       1.633277        44.4437 
 468   0.0000       1.634481        44.4765 
 469   0.0000       1.644404        44.7465 
 470   0.0000       1.644473        44.7484 
 471   0.0000       1.649110        44.8746 
 472   0.0000       1.650692        44.9176 
 473   0.0000       1.659112        45.1467 
 474   0.0000       1.672293        45.5054 
 475   0.0000       1.674299        45.5600 
 476   0.0000       1.676992        45.6333 
 477   0.0000       1.690789        46.0087 
 478   0.0000       1.691023        46.0151 
 479   0.0000       1.692672        46.0600 
 480   0.0000       1.692744        46.0619 
 481   0.0000       1.699652        46.2499 
 482   0.0000       1.701701        46.3056 
 483   0.0000       1.705513        46.4094 
 484   0.0000       1.709462        46.5168 
 485   0.0000       1.712463        46.5985 
 486   0.0000       1.719289        46.7842 
 487   0.0000       1.723332        46.8943 
 488   0.0000       1.724245        46.9191 
 489   0.0000       1.742876        47.4261 
 490   0.0000       1.744181        47.4616 
 491   0.0000       1.747365        47.5482 
 492   0.0000       1.748577        47.5812 
 493   0.0000       1.763326        47.9825 
 494   0.0000       1.767256        48.0895 
 495   0.0000       1.768009        48.1100 
 496   0.0000       1.776616        48.3442 
 497   0.0000       1.786447        48.6117 
 498   0.0000       1.796131        48.8752 
 499   0.0000       1.797129        48.9024 
 500   0.0000       1.797235        48.9053 
 501   0.0000       1.805664        49.1346 
 502   0.0000       1.809053        49.2268 
 503   0.0000       1.810857        49.2759 
 504   0.0000       1.819045        49.4987 
 505   0.0000       1.819403        49.5085 
 506   0.0000       1.827771        49.7362 
 507   0.0000       1.828459        49.7549 
 508   0.0000       1.831368        49.8341 
 509   0.0000       1.842967        50.1497 
 510   0.0000       1.848076        50.2887 
 511   0.0000       1.853584        50.4386 
 512   0.0000       1.863316        50.7034 
 513   0.0000       1.866264        50.7836 
 514   0.0000       1.874108        50.9971 
 515   0.0000       1.874671        51.0124 
 516   0.0000       1.881469        51.1974 
 517   0.0000       1.883934        51.2645 
 518   0.0000       1.887458        51.3604 
 519   0.0000       1.888441        51.3871 
 520   0.0000       1.889597        51.4185 
 521   0.0000       1.891765        51.4775 
 522   0.0000       1.895350        51.5751 
 523   0.0000       1.902874        51.7798 
 524   0.0000       1.905190        51.8429 
 525   0.0000       1.914318        52.0912 
 526   0.0000       1.914485        52.0958 
 527   0.0000       1.920239        52.2524 
 528   0.0000       1.925039        52.3830 
 529   0.0000       1.931034        52.5461 
 530   0.0000       1.934040        52.6279 
 531   0.0000       1.945136        52.9298 
 532   0.0000       1.952066        53.1184 
 533   0.0000       1.955552        53.2133 
 534   0.0000       1.959621        53.3240 
 535   0.0000       1.961747        53.3818 
 536   0.0000       1.968491        53.5654 
 537   0.0000       1.980508        53.8924 
 538   0.0000       1.981512        53.9197 
 539   0.0000       1.987032        54.0699 
 540   0.0000       2.004323        54.5404 
 541   0.0000       2.008715        54.6599 
 542   0.0000       2.020322        54.9758 
 543   0.0000       2.025949        55.1289 
 544   0.0000       2.027609        55.1740 
 545   0.0000       2.035028        55.3759 
 546   0.0000       2.036831        55.4250 
 547   0.0000       2.047316        55.7103 
 548   0.0000       2.048104        55.7317 
 549   0.0000       2.048488        55.7422 
 550   0.0000       2.053737        55.8850 
 551   0.0000       2.060076        56.0575 
 552   0.0000       2.066325        56.2276 
 553   0.0000       2.066526        56.2330 
 554   0.0000       2.072519        56.3961 
 555   0.0000       2.080299        56.6078 
 556   0.0000       2.082685        56.6727 
 557   0.0000       2.085143        56.7396 
 558   0.0000       2.086852        56.7861 
 559   0.0000       2.099543        57.1315 
 560   0.0000       2.109130        57.3923 
 561   0.0000       2.110012        57.4163 
 562   0.0000       2.114558        57.5401 
 563   0.0000       2.118199        57.6391 
 564   0.0000       2.119197        57.6663 
 565   0.0000       2.122151        57.7467 
 566   0.0000       2.125093        57.8267 
 567   0.0000       2.127610        57.8952 
 568   0.0000       2.129838        57.9558 
 569   0.0000       2.141705        58.2788 
 570   0.0000       2.145996        58.3955 
 571   0.0000       2.155400        58.6514 
 572   0.0000       2.159594        58.7655 
 573   0.0000       2.162290        58.8389 
 574   0.0000       2.169988        59.0484 
 575   0.0000       2.179473        59.3065 
 576   0.0000       2.179579        59.3094 
 577   0.0000       2.190229        59.5992 
 578   0.0000       2.196213        59.7620 
 579   0.0000       2.199510        59.8517 
 580   0.0000       2.204119        59.9771 
 581   0.0000       2.205381        60.0115 
 582   0.0000       2.212536        60.2062 
 583   0.0000       2.216843        60.3234 
 584   0.0000       2.220135        60.4129 
 585   0.0000       2.227835        60.6225 
 586   0.0000       2.228794        60.6486 
 587   0.0000       2.232160        60.7402 
 588   0.0000       2.243384        61.0456 
 589   0.0000       2.245037        61.0906 
 590   0.0000       2.246621        61.1337 
 591   0.0000       2.246675        61.1351 
 592   0.0000       2.250561        61.2409 
 593   0.0000       2.255471        61.3745 
 594   0.0000       2.255828        61.3842 
 595   0.0000       2.258646        61.4609 
 596   0.0000       2.262137        61.5559 
 597   0.0000       2.273183        61.8565 
 598   0.0000       2.279522        62.0290 
 599   0.0000       2.282638        62.1137 
 600   0.0000       2.295581        62.4659 
 601   0.0000       2.296250        62.4841 
 602   0.0000       2.297665        62.5227 
 603   0.0000       2.303388        62.6784 
 604   0.0000       2.305200        62.7277 
 605   0.0000       2.312634        62.9300 
 606   0.0000       2.314874        62.9909 
 607   0.0000       2.322069        63.1867 
 608   0.0000       2.329551        63.3903 
 609   0.0000       2.338746        63.6405 
 610   0.0000       2.340292        63.6826 
 611   0.0000       2.343243        63.7629 
 612   0.0000       2.350912        63.9716 
 613   0.0000       2.351242        63.9805 
 614   0.0000       2.356674        64.1284 
 615   0.0000       2.361708        64.2653 
 616   0.0000       2.376264        64.6614 
 617   0.0000       2.377323        64.6902 
 618   0.0000       2.379181        64.7408 
 619   0.0000       2.387010        64.9538 
 620   0.0000       2.389592        65.0241 
 621   0.0000       2.392123        65.0930 
 622   0.0000       2.396234        65.2048 
 623   0.0000       2.401372        65.3447 
 624   0.0000       2.413327        65.6700 
 625   0.0000       2.416274        65.7502 
 626   0.0000       2.418158        65.8014 
 627   0.0000       2.419329        65.8333 
 628   0.0000       2.425604        66.0040 
 629   0.0000       2.429752        66.1169 
 630   0.0000       2.432418        66.1895 
 631   0.0000       2.438887        66.3655 
 632   0.0000       2.440531        66.4102 
 633   0.0000       2.451128        66.6986 
 634   0.0000       2.453018        66.7500 
 635   0.0000       2.465997        67.1032 
 636   0.0000       2.472755        67.2871 
 637   0.0000       2.478741        67.4500 
 638   0.0000       2.479794        67.4786 
 639   0.0000       2.483676        67.5843 
 640   0.0000       2.491292        67.7915 
 641   0.0000       2.492976        67.8373 
 642   0.0000       2.493075        67.8400 
 643   0.0000       2.496030        67.9204 
 644   0.0000       2.503187        68.1152 
 645   0.0000       2.505540        68.1792 
 646   0.0000       2.510546        68.3154 
 647   0.0000       2.519989        68.5724 
 648   0.0000       2.522869        68.6507 
 649   0.0000       2.530838        68.8676 
 650   0.0000       2.535602        68.9972 
 651   0.0000       2.536335        69.0172 
 652   0.0000       2.538509        69.0764 
 653   0.0000       2.546184        69.2852 
 654   0.0000       2.555229        69.5313 
 655   0.0000       2.559614        69.6506 
 656   0.0000       2.561572        69.7039 
 657   0.0000       2.576477        70.1095 
 658   0.0000       2.576724        70.1162 
 659   0.0000       2.577062        70.1254 
 660   0.0000       2.580341        70.2147 
 661   0.0000       2.582352        70.2694 
 662   0.0000       2.591158        70.5090 
 663   0.0000       2.592061        70.5336 
 664   0.0000       2.602434        70.8158 
 665   0.0000       2.604029        70.8592 
 666   0.0000       2.617683        71.2308 
 667   0.0000       2.618245        71.2461 
 668   0.0000       2.629345        71.5481 
 669   0.0000       2.638161        71.7880 
 670   0.0000       2.649038        72.0840 
 671   0.0000       2.649818        72.1052 
 672   0.0000       2.657100        72.3034 
 673   0.0000       2.658033        72.3288 
 674   0.0000       2.658595        72.3441 
 675   0.0000       2.661244        72.4161 
 676   0.0000       2.674281        72.7709 
 677   0.0000       2.677545        72.8597 
 678   0.0000       2.682821        73.0033 
 679   0.0000       2.691550        73.2408 
 680   0.0000       2.694296        73.3155 
 681   0.0000       2.700215        73.4766 
 682   0.0000       2.704052        73.5810 
 683   0.0000       2.706319        73.6427 
 684   0.0000       2.708916        73.7133 
 685   0.0000       2.709687        73.7343 
 686   0.0000       2.725415        74.1623 
 687   0.0000       2.733487        74.3820 
 688   0.0000       2.733818        74.3910 
 689   0.0000       2.745638        74.7126 
 690   0.0000       2.746807        74.7444 
 691   0.0000       2.754221        74.9462 
 692   0.0000       2.762679        75.1763 
 693   0.0000       2.770285        75.3833 
 694   0.0000       2.773328        75.4661 
 695   0.0000       2.774720        75.5040 
 696   0.0000       2.775451        75.5239 
 697   0.0000       2.792219        75.9801 
 698   0.0000       2.794422        76.0401 
 699   0.0000       2.802804        76.2682 
 700   0.0000       2.809252        76.4436 
 701   0.0000       2.810655        76.4818 
 702   0.0000       2.812080        76.5206 
 703   0.0000       2.826918        76.9243 
 704   0.0000       2.832648        77.0803 
 705   0.0000       2.835633        77.1615 
 706   0.0000       2.841135        77.3112 
 707   0.0000       2.844912        77.4140 
 708   0.0000       2.850346        77.5619 
 709   0.0000       2.851796        77.6013 
 710   0.0000       2.863437        77.9181 
 711   0.0000       2.868712        78.0616 
 712   0.0000       2.869085        78.0718 
 713   0.0000       2.886421        78.5435 
 714   0.0000       2.890558        78.6561 
 715   0.0000       2.893762        78.7433 
 716   0.0000       2.896049        78.8055 
 717   0.0000       2.902365        78.9774 
 718   0.0000       2.910811        79.2072 
 719   0.0000       2.918131        79.4064 
 720   0.0000       2.921242        79.4910 
 721   0.0000       2.923066        79.5407 
 722   0.0000       2.923692        79.5577 
 723   0.0000       2.927775        79.6688 
 724   0.0000       2.941690        80.0475 
 725   0.0000       2.942300        80.0641 
 726   0.0000       2.946449        80.1770 
 727   0.0000       2.957091        80.4665 
 728   0.0000       2.962912        80.6249 
 729   0.0000       2.964144        80.6585 
 730   0.0000       2.965425        80.6933 
 731   0.0000       2.972053        80.8737 
 732   0.0000       2.988869        81.3313 
 733   0.0000       2.993923        81.4688 
 734   0.0000       2.996799        81.5470 
 735   0.0000       3.009994        81.9061 
 736   0.0000       3.014120        82.0184 
 737   0.0000       3.021189        82.2107 
 738   0.0000       3.028967        82.4224 
 739   0.0000       3.035293        82.5945 
 740   0.0000       3.040931        82.7479 
 741   0.0000       3.045971        82.8851 
 742   0.0000       3.046151        82.8900 
 743   0.0000       3.048600        82.9566 
 744   0.0000       3.050563        83.0100 
 745   0.0000       3.066699        83.4491 
 746   0.0000       3.074944        83.6735 
 747   0.0000       3.075078        83.6771 
 748   0.0000       3.076018        83.7027 
 749   0.0000       3.083767        83.9136 
 750   0.0000       3.088485        84.0420 
 751   0.0000       3.107596        84.5620 
 752   0.0000       3.110874        84.6512 
 753   0.0000       3.119319        84.8810 
 754   0.0000       3.120071        84.9015 
 755   0.0000       3.125843        85.0585 
 756   0.0000       3.129063        85.1461 
 757   0.0000       3.131665        85.2169 
 758   0.0000       3.140317        85.4524 
 759   0.0000       3.146714        85.6264 
 760   0.0000       3.148891        85.6857 
 761   0.0000       3.149357        85.6984 
 762   0.0000       3.153332        85.8065 
 763   0.0000       3.171700        86.3063 
 764   0.0000       3.179166        86.5095 
 765   0.0000       3.180724        86.5519 
 766   0.0000       3.186069        86.6974 
 767   0.0000       3.191071        86.8335 
 768   0.0000       3.193668        86.9041 
 769   0.0000       3.212231        87.4092 
 770   0.0000       3.213008        87.4304 
 771   0.0000       3.221294        87.6559 
 772   0.0000       3.224404        87.7405 
 773   0.0000       3.228262        87.8455 
 774   0.0000       3.230553        87.9078 
 775   0.0000       3.242056        88.2208 
 776   0.0000       3.247837        88.3781 
 777   0.0000       3.253510        88.5325 
 778   0.0000       3.255514        88.5870 
 779   0.0000       3.266694        88.8913 
 780   0.0000       3.271117        89.0116 
 781   0.0000       3.276239        89.1510 
 782   0.0000       3.279293        89.2341 
 783   0.0000       3.294905        89.6589 
 784   0.0000       3.298663        89.7612 
 785   0.0000       3.308397        90.0261 
 786   0.0000       3.308678        90.0337 
 787   0.0000       3.313529        90.1657 
 788   0.0000       3.318958        90.3134 
 789   0.0000       3.324402        90.4616 
 790   0.0000       3.332854        90.6916 
 791   0.0000       3.337762        90.8251 
 792   0.0000       3.340283        90.8937 
 793   0.0000       3.341445        90.9253 
 794   0.0000       3.354412        91.2782 
 795   0.0000       3.357790        91.3701 
 796   0.0000       3.358146        91.3798 
 797   0.0000       3.365660        91.5843 
 798   0.0000       3.368000        91.6479 
 799   0.0000       3.384903        92.1079 
 800   0.0000       3.386748        92.1581 
 801   0.0000       3.401463        92.5585 
 802   0.0000       3.423159        93.1489 
 803   0.0000       3.432567        93.4049 
 804   0.0000       3.438387        93.5633 
 805   0.0000       3.455492        94.0287 
 806   0.0000       3.455641        94.0328 
 807   0.0000       3.456300        94.0507 
 808   0.0000       3.462072        94.2078 
 809   0.0000       3.465131        94.2910 
 810   0.0000       3.468150        94.3732 
 811   0.0000       3.487309        94.8945 
 812   0.0000       3.488368        94.9233 
 813   0.0000       3.491641        95.0124 
 814   0.0000       3.492628        95.0392 
 815   0.0000       3.502671        95.3125 
 816   0.0000       3.512111        95.5694 
 817   0.0000       3.516976        95.7018 
 818   0.0000       3.520429        95.7957 
 819   0.0000       3.525382        95.9305 
 820   0.0000       3.525661        95.9381 
 821   0.0000       3.551000        96.6276 
 822   0.0000       3.553609        96.6986 
 823   0.0000       3.561113        96.9028 
 824   0.0000       3.563802        96.9760 
 825   0.0000       3.570983        97.1714 
 826   0.0000       3.579373        97.3997 
 827   0.0000       3.584496        97.5391 
 828   0.0000       3.610861        98.2565 
 829   0.0000       3.618238        98.4573 
 830   0.0000       3.636779        98.9618 
 831   0.0000       3.637326        98.9767 
 832   0.0000       3.642604        99.1203 
 833   0.0000       3.654981        99.4571 
 834   0.0000       3.655756        99.4782 
 835   0.0000       3.664355        99.7122 
 836   0.0000       3.667094        99.7867 
 837   0.0000       3.674369        99.9847 
 838   0.0000       3.674685        99.9933 
 839   0.0000       3.680819       100.1602 
 840   0.0000       3.693128       100.4951 
 841   0.0000       3.717913       101.1695 
 842   0.0000       3.720766       101.2472 
 843   0.0000       3.724680       101.3537 
 844   0.0000       3.740991       101.7975 
 845   0.0000       3.744377       101.8897 
 846   0.0000       3.753090       102.1268 
 847   0.0000       3.753634       102.1416 
 848   0.0000       3.758803       102.2822 
 849   0.0000       3.764520       102.4378 
 850   0.0000       3.783308       102.9490 
 851   0.0000       3.791658       103.1763 
 852   0.0000       3.796251       103.3012 
 853   0.0000       3.803314       103.4934 
 854   0.0000       3.809898       103.6726 
 855   0.0000       3.819841       103.9432 
 856   0.0000       3.830903       104.2442 
 857   0.0000       3.844096       104.6032 
 858   0.0000       3.845093       104.6303 
 859   0.0000       3.854004       104.8728 
 860   0.0000       3.864425       105.1564 
 861   0.0000       3.864565       105.1602 
 862   0.0000       3.867023       105.2271 
 863   0.0000       3.873414       105.4009 
 864   0.0000       3.880277       105.5877 
 865   0.0000       3.899598       106.1135 
 866   0.0000       3.902265       106.1860 
 867   0.0000       3.906355       106.2973 
 868   0.0000       3.924253       106.7844 
 869   0.0000       3.931517       106.9820 
 870   0.0000       3.932507       107.0090 
 871   0.0000       3.942881       107.2913 
 872   0.0000       3.948483       107.4437 
 873   0.0000       3.951028       107.5129 
 874   0.0000       3.953521       107.5808 
 875   0.0000       3.958575       107.7183 
 876   0.0000       3.963644       107.8562 
 877   0.0000       3.963765       107.8595 
 878   0.0000       3.974738       108.1581 
 879   0.0000       3.990105       108.5763 
 880   0.0000       4.001515       108.8868 
 881   0.0000       4.007250       109.0428 
 882   0.0000       4.014658       109.2444 
 883   0.0000       4.026973       109.5795 
 884   0.0000       4.027071       109.5822 
 885   0.0000       4.033843       109.7665 
 886   0.0000       4.035764       109.8187 
 887   0.0000       4.040502       109.9476 
 888   0.0000       4.062240       110.5392 
 889   0.0000       4.066085       110.6438 
 890   0.0000       4.068042       110.6971 
 891   0.0000       4.073930       110.8573 
 892   0.0000       4.079032       110.9961 
 893   0.0000       4.089514       111.2813 
 894   0.0000       4.105042       111.7039 
 895   0.0000       4.105957       111.7288 
 896   0.0000       4.108928       111.8096 
 897   0.0000       4.116052       112.0035 
 898   0.0000       4.121870       112.1618 
 899   0.0000       4.122020       112.1659 
 900   0.0000       4.127125       112.3048 
 901   0.0000       4.131871       112.4339 
 902   0.0000       4.149976       112.9266 
 903   0.0000       4.153513       113.0228 
 904   0.0000       4.165550       113.3504 
 905   0.0000       4.171178       113.5035 
 906   0.0000       4.181346       113.7802 
 907   0.0000       4.189261       113.9956 
 908   0.0000       4.203325       114.3783 
 909   0.0000       4.205031       114.4247 
 910   0.0000       4.212870       114.6380 
 911   0.0000       4.214505       114.6825 
 912   0.0000       4.223813       114.9358 
 913   0.0000       4.226936       115.0208 
 914   0.0000       4.241690       115.4222 
 915   0.0000       4.247641       115.5842 
 916   0.0000       4.249793       115.6427 
 917   0.0000       4.256946       115.8374 
 918   0.0000       4.263226       116.0083 
 919   0.0000       4.280735       116.4847 
 920   0.0000       4.292202       116.7968 
 921   0.0000       4.294342       116.8550 
 922   0.0000       4.308639       117.2440 
 923   0.0000       4.313580       117.3785 
 924   0.0000       4.321858       117.6037 
 925   0.0000       4.327713       117.7631 
 926   0.0000       4.331309       117.8609 
 927   0.0000       4.331565       117.8679 
 928   0.0000       4.346320       118.2694 
 929   0.0000       4.352288       118.4318 
 930   0.0000       4.369572       118.9021 
 931   0.0000       4.370282       118.9214 
 932   0.0000       4.372122       118.9715 
 933   0.0000       4.386697       119.3681 
 934   0.0000       4.392418       119.5238 
 935   0.0000       4.394847       119.5899 
 936   0.0000       4.395821       119.6164 
 937   0.0000       4.402131       119.7881 
 938   0.0000       4.404527       119.8533 
 939   0.0000       4.406092       119.8959 
 940   0.0000       4.423513       120.3699 
 941   0.0000       4.435472       120.6953 
 942   0.0000       4.442525       120.8872 
 943   0.0000       4.448282       121.0439 
 944   0.0000       4.449127       121.0669 
 945   0.0000       4.457194       121.2864 
 946   0.0000       4.465376       121.5091 
 947   0.0000       4.471853       121.6853 
 948   0.0000       4.485464       122.0557 
 949   0.0000       4.496186       122.3474 
 950   0.0000       4.499627       122.4411 
 951   0.0000       4.506394       122.6252 
 952   0.0000       4.517290       122.9217 
 953   0.0000       4.523078       123.0792 
 954   0.0000       4.531123       123.2981 
 955   0.0000       4.537275       123.4655 
 956   0.0000       4.538610       123.5019 
 957   0.0000       4.547034       123.7311 
 958   0.0000       4.550907       123.8365 
 959   0.0000       4.579135       124.6046 
 960   0.0000       4.579442       124.6130 
 961   0.0000       4.585541       124.7789 
 962   0.0000       4.595974       125.0628 
 963   0.0000       4.600516       125.1864 
 964   0.0000       4.608809       125.4121 
 965   0.0000       4.614242       125.5599 
 966   0.0000       4.629606       125.9780 
 967   0.0000       4.644469       126.3824 
 968   0.0000       4.651454       126.5725 
 969   0.0000       4.662578       126.8752 
 970   0.0000       4.664246       126.9206 
 971   0.0000       4.668222       127.0288 
 972   0.0000       4.673461       127.1713 
 973   0.0000       4.690654       127.6392 
 974   0.0000       4.691415       127.6599 
 975   0.0000       4.698493       127.8525 
 976   0.0000       4.703956       128.0012 
 977   0.0000       4.705000       128.0296 
 978   0.0000       4.715367       128.3117 
 979   0.0000       4.724947       128.5723 
 980   0.0000       4.746143       129.1491 
 981   0.0000       4.748451       129.2119 
 982   0.0000       4.759048       129.5003 
 983   0.0000       4.760716       129.5457 
 984   0.0000       4.766148       129.6935 
 985   0.0000       4.774769       129.9281 
 986   0.0000       4.795593       130.4947 
 987   0.0000       4.804150       130.7276 
 988   0.0000       4.806930       130.8032 
 989   0.0000       4.809450       130.8718 
 990   0.0000       4.810886       130.9109 
 991   0.0000       4.825977       131.3215 
 992   0.0000       4.835938       131.5926 
 993   0.0000       4.878123       132.7405 
 994   0.0000       4.883077       132.8753 
 995   0.0000       4.888250       133.0161 
 996   0.0000       4.904811       133.4667 
 997   0.0000       4.917719       133.8179 
 998   0.0000       4.922265       133.9416 
 999   0.0000       4.949451       134.6814 
 1000   0.0000       4.963466       135.0628 
 1001   0.0000       4.966465       135.1444 
 1002   0.0000       4.970023       135.2412 
 1003   0.0000       4.976175       135.4086 
 1004   0.0000       4.997164       135.9798 
 1005   0.0000       5.004550       136.1807 
 1006   0.0000       5.014800       136.4597 
 1007   0.0000       5.024011       136.7103 
 1008   0.0000       5.041810       137.1946 
 1009   0.0000       5.043093       137.2295 
 1010   0.0000       5.052344       137.4813 
 1011   0.0000       5.059342       137.6717 
 1012   0.0000       5.074646       138.0881 
 1013   0.0000       5.082315       138.2968 
 1014   0.0000       5.091986       138.5600 
 1015   0.0000       5.097048       138.6977 
 1016   0.0000       5.099522       138.7650 
 1017   0.0000       5.100382       138.7884 
 1018   0.0000       5.116891       139.2377 
 1019   0.0000       5.129505       139.5809 
 1020   0.0000       5.143111       139.9512 
 1021   0.0000       5.154356       140.2572 
 1022   0.0000       5.178035       140.9015 
 1023   0.0000       5.182866       141.0330 
 1024   0.0000       5.202313       141.5621 
 1025   0.0000       5.223388       142.1356 
 1026   0.0000       5.228988       142.2880 
 1027   0.0000       5.273474       143.4985 
 1028   0.0000       5.286635       143.8567 
 1029   0.0000       5.289705       143.9402 
 1030   0.0000       5.299108       144.1961 
 1031   0.0000       5.299274       144.2006 
 1032   0.0000       5.303972       144.3284 
 1033   0.0000       5.320048       144.7659 
 1034   0.0000       5.330490       145.0500 
 1035   0.0000       5.355889       145.7412 
 1036   0.0000       5.355978       145.7436 
 1037   0.0000       5.365777       146.0102 
 1038   0.0000       5.392358       146.7335 
 1039   0.0000       5.434541       147.8814 
 1040   0.0000       5.443973       148.1380 
 1041   0.0000       5.449501       148.2885 
 1042   0.0000       5.466768       148.7583 
 1043   0.0000       5.525102       150.3457 
 1044   0.0000       5.538536       150.7112 
 1045   0.0000       5.543699       150.8517 
 1046   0.0000       5.547322       150.9503 
 1047   0.0000       5.574510       151.6901 
 1048   0.0000       5.584492       151.9618 
 1049   0.0000       5.585465       151.9882 
 1050   0.0000       5.633559       153.2969 
 1051   0.0000       5.638125       153.4212 
 1052   0.0000       5.677127       154.4825 
 1053   0.0000       5.688695       154.7973 
 1054   0.0000       5.690492       154.8461 
 1055   0.0000       5.746048       156.3579 
 1056   0.0000       5.792950       157.6342 
 1057   0.0000       5.793637       157.6529 
 1058   0.0000       5.813281       158.1874 
 1059   0.0000       5.842753       158.9894 
 1060   0.0000       5.868531       159.6908 
 1061   0.0000       5.874363       159.8496 
 1062   0.0000       5.898374       160.5029 
 1063   0.0000       5.909870       160.8157 
 1064   0.0000       5.920721       161.1110 
 1065   0.0000       5.946857       161.8222 
 1066   0.0000       5.950159       161.9121 
 1067   0.0000       5.988263       162.9489 
 1068   0.0000       6.007452       163.4711 
 1069   0.0000       6.010218       163.5463 
 1070   0.0000       6.016284       163.7114 
 1071   0.0000       6.042092       164.4137 
 1072   0.0000       6.055780       164.7861 
 1073   0.0000       6.080136       165.4489 
 1074   0.0000       6.095837       165.8762 
 1075   0.0000       6.137820       167.0186 
 1076   0.0000       6.143152       167.1637 
 1077   0.0000       6.154870       167.4825 
 1078   0.0000       6.200820       168.7329 
 1079   0.0000       6.203779       168.8134 
 1080   0.0000       6.226089       169.4205 
 1081   0.0000       6.227203       169.4508 
 1082   0.0000       6.273216       170.7029 
 1083   0.0000       6.280900       170.9120 
 1084   0.0000       6.283354       170.9788 
 1085   0.0000       6.292009       171.2143 
 1086   0.0000       6.292680       171.2325 
 1087   0.0000       6.298388       171.3878 
 1088   0.0000       6.309251       171.6835 
 1089   0.0000       6.332014       172.3029 
 1090   0.0000       6.333276       172.3372 
 1091   0.0000       6.346091       172.6859 
 1092   0.0000       6.356368       172.9656 
 1093   0.0000       6.368274       173.2895 
 1094   0.0000       6.369190       173.3145 
 1095   0.0000       6.374759       173.4660 
 1096   0.0000       6.394372       173.9997 
 1097   0.0000       6.416950       174.6141 
 1098   0.0000       6.425270       174.8405 
 1099   0.0000       6.443542       175.3377 
 1100   0.0000       6.466320       175.9575 
 1101   0.0000       6.467648       175.9936 
 1102   0.0000       6.478677       176.2938 
 1103   0.0000       6.489424       176.5862 
 1104   0.0000       6.504539       176.9975 
 1105   0.0000       6.520529       177.4326 
 1106   0.0000       6.553868       178.3398 
 1107   0.0000       6.559267       178.4867 
 1108   0.0000       6.570011       178.7791 
 1109   0.0000       6.571654       178.8238 
 1110   0.0000       6.586460       179.2267 
 1111   0.0000       6.587800       179.2632 
 1112   0.0000       6.595568       179.4745 
 1113   0.0000       6.599583       179.5838 
 1114   0.0000       6.622759       180.2144 
 1115   0.0000       6.635717       180.5670 
 1116   0.0000       6.639674       180.6747 
 1117   0.0000       6.647880       180.8980 
 1118   0.0000       6.667202       181.4238 
 1119   0.0000       6.690538       182.0588 
 1120   0.0000       6.692282       182.1062 
 1121   0.0000       6.707922       182.5318 
 1122   0.0000       6.710727       182.6082 
 1123   0.0000       6.717346       182.7883 
 1124   0.0000       6.725994       183.0236 
 1125   0.0000       6.731613       183.1765 
 1126   0.0000       6.731844       183.1828 
[...]
      f+1     :     0.031006
      f-1     :     0.038619
      f+2     :     0.059144
      f-2     :     0.031264
      f+3     :     0.171792
      f-3     :     0.081545
      g0      :     0.005442  g :     0.127280
      g+1     :     0.006333
      g-1     :     0.010745
      g+2     :     0.010719
      g-2     :     0.010691
      g+3     :     0.001014
      g-3     :     0.011774
      g+4     :     0.027478
      g-4     :     0.043084
 13 C s       :     2.412183  s :     2.412183
      pz      :     0.511109  p :     2.023732
      px      :     0.731780
      py      :     0.780843
      dz2     :     0.062308  d :     0.689183
      dxz     :     0.111139
      dyz     :     0.046481
      dx2y2   :     0.288176
      dxy     :     0.181079
      f0      :     0.032130  f :     0.424844
      f+1     :     0.034649
      f-1     :     0.028044
      f+2     :     0.012147
      f-2     :     0.081680
      f+3     :     0.155563
      f-3     :     0.080632
      g0      :     0.005482  g :     0.136177
      g+1     :     0.013388
      g-1     :     0.004856
      g+2     :     0.009907
      g-2     :     0.011196
      g+3     :     0.003722
      g-3     :     0.011424
      g+4     :     0.037009
      g-4     :     0.039194
 14 C s       :     2.445506  s :     2.445506
      pz      :     0.573445  p :     2.122382
      px      :     0.634084
      py      :     0.914853
      dz2     :     0.073490  d :     0.721932
      dxz     :     0.091441
      dyz     :     0.136855
      dx2y2   :     0.221334
      dxy     :     0.198812
      f0      :     0.039611  f :     0.521181
      f+1     :     0.027971
      f-1     :     0.040739
      f+2     :     0.073303
      f-2     :     0.042544
      f+3     :     0.189052
      f-3     :     0.107959
      g0      :     0.006622  g :     0.128288
      g+1     :     0.007085
      g-1     :     0.013933
      g+2     :     0.012534
      g-2     :     0.008331
      g+3     :     0.000715
      g-3     :     0.012061
      g+4     :     0.029468
      g-4     :     0.037537
 15 C s       :     2.445506  s :     2.445506
      pz      :     0.573445  p :     2.122382
      px      :     0.634084
      py      :     0.914853
      dz2     :     0.073490  d :     0.721932
      dxz     :     0.091441
      dyz     :     0.136855
      dx2y2   :     0.221334
      dxy     :     0.198812
      f0      :     0.039611  f :     0.521181
      f+1     :     0.027971
      f-1     :     0.040739
      f+2     :     0.073303
      f-2     :     0.042544
      f+3     :     0.189052
      f-3     :     0.107959
      g0      :     0.006622  g :     0.128288
      g+1     :     0.007085
      g-1     :     0.013933
      g+2     :     0.012534
      g-2     :     0.008331
      g+3     :     0.000715
      g-3     :     0.012061
      g+4     :     0.029468
      g-4     :     0.037537
 16 C s       :     2.412183  s :     2.412183
      pz      :     0.511109  p :     2.023732
      px      :     0.731779
      py      :     0.780843
      dz2     :     0.062308  d :     0.689183
      dxz     :     0.111139
      dyz     :     0.046481
      dx2y2   :     0.288176
      dxy     :     0.181079
      f0      :     0.032130  f :     0.424844
      f+1     :     0.034649
      f-1     :     0.028044
      f+2     :     0.012147
      f-2     :     0.081680
      f+3     :     0.155563
      f-3     :     0.080632
      g0      :     0.005482  g :     0.136177
      g+1     :     0.013388
      g-1     :     0.004856
      g+2     :     0.009907
      g-2     :     0.011196
      g+3     :     0.003722
      g-3     :     0.011424
      g+4     :     0.037009
      g-4     :     0.039194
 17 C s       :     2.402519  s :     2.402519
      pz      :     0.500894  p :     2.006256
      px      :     0.747322
      py      :     0.758040
      dz2     :     0.069097  d :     0.697564
      dxz     :     0.063843
      dyz     :     0.102073
      dx2y2   :     0.208312
      dxy     :     0.254239
      f0      :     0.031850  f :     0.445220
      f+1     :     0.031006
      f-1     :     0.038619
      f+2     :     0.059144
      f-2     :     0.031264
      f+3     :     0.171792
      f-3     :     0.081545
      g0      :     0.005442  g :     0.127280
      g+1     :     0.006333
      g-1     :     0.010745
      g+2     :     0.010719
      g-2     :     0.010691
      g+3     :     0.001014
      g-3     :     0.011774
      g+4     :     0.027478
      g-4     :     0.043084
 18 H s       :     0.643131  s :     0.643131
      pz      :     0.083243  p :     0.297737
      px      :     0.124719
      py      :     0.089775
      dz2     :     0.028602  d :     0.257870
      dxz     :     0.056417
      dyz     :     0.020578
      dx2y2   :     0.088174
      dxy     :     0.064099
      f0      :     0.013668  f :     0.123048
      f+1     :     0.012226
      f-1     :     0.007545
      f+2     :     0.006859
      f-2     :     0.011110
      f+3     :     0.052706
      f-3     :     0.018934
 19 H s       :     0.655928  s :     0.655928
      pz      :     0.080022  p :     0.294348
      px      :     0.069633
      py      :     0.144693
      dz2     :     0.027979  d :     0.255494
      dxz     :     0.005224
      dyz     :     0.071568
      dx2y2   :     0.049429
      dxy     :     0.101293
      f0      :     0.013588  f :     0.121251
      f+1     :     0.004859
      f-1     :     0.014528
      f+2     :     0.015798
      f-2     :     0.002628
      f+3     :     0.052822
      f-3     :     0.017028
 20 H s       :     0.655928  s :     0.655928
      pz      :     0.080023  p :     0.294349
      px      :     0.069633
      py      :     0.144693
      dz2     :     0.027979  d :     0.255494
      dxz     :     0.005224
      dyz     :     0.071568
      dx2y2   :     0.049429
      dxy     :     0.101294
      f0      :     0.013588  f :     0.121251
      f+1     :     0.004859
      f-1     :     0.014528
      f+2     :     0.015798
      f-2     :     0.002628
      f+3     :     0.052822
      f-3     :     0.017028
 21 H s       :     0.643131  s :     0.643131
      pz      :     0.083243  p :     0.297738
      px      :     0.124719
      py      :     0.089775
      dz2     :     0.028602  d :     0.257870
      dxz     :     0.056417
      dyz     :     0.020578
      dx2y2   :     0.088174
      dxy     :     0.064100
      f0      :     0.013668  f :     0.123048
      f+1     :     0.012226
      f-1     :     0.007545
      f+2     :     0.006859
      f-2     :     0.011110
      f+3     :     0.052706
      f-3     :     0.018934
 22 N s       :     2.693673  s :     2.693673
      pz      :     1.081211  p :     2.738471
      px      :     0.688565
      py      :     0.968696
      dz2     :     0.130250  d :     0.687437
      dxz     :     0.053955
      dyz     :     0.229774
      dx2y2   :     0.157893
      dxy     :     0.115565
      f0      :     0.099252  f :     0.416251
      f+1     :     0.032463
      f-1     :     0.060772
      f+2     :     0.089212
      f-2     :     0.024089
      f+3     :     0.062189
      f-3     :     0.048275
      g0      :     0.015556  g :     0.111644
      g+1     :     0.004927
      g-1     :     0.028312
      g+2     :     0.011097
      g-2     :     0.006916
      g+3     :     0.001857
      g-3     :     0.018054
      g+4     :     0.008339
      g-4     :     0.016586
 23 N s       :     2.693674  s :     2.693674
      pz      :     1.081211  p :     2.738471
      px      :     0.688565
      py      :     0.968695
      dz2     :     0.130250  d :     0.687436
      dxz     :     0.053954
      dyz     :     0.229773
      dx2y2   :     0.157893
      dxy     :     0.115565
      f0      :     0.099251  f :     0.416251
      f+1     :     0.032463
      f-1     :     0.060772
      f+2     :     0.089212
      f-2     :     0.024089
      f+3     :     0.062188
      f-3     :     0.048275
      g0      :     0.015556  g :     0.111644
      g+1     :     0.004927
      g-1     :     0.028312
      g+2     :     0.011097
      g-2     :     0.006916
      g+3     :     0.001857
      g-3     :     0.018054
      g+4     :     0.008339
      g-4     :     0.016586


                      *****************************
                      * MAYER POPULATION ANALYSIS *
                      *****************************

  NA   - Mulliken gross atomic population
  ZA   - Total nuclear charge
  QA   - Mulliken gross atomic charge
  VA   - Mayer's total valence
  BVA  - Mayer's bonded valence
  FA   - Mayer's free valence

  ATOM       NA         ZA         QA         VA         BVA        FA
  0 C      5.0342     6.0000     0.9658     2.3401     2.3401     0.0000
  1 C      5.0340     6.0000     0.9660     2.3397     2.3397     0.0000
  2 N      7.4212     7.0000    -0.4212     1.8287     1.8287    -0.0000
  3 N      7.4211     7.0000    -0.4211     1.8287     1.8287    -0.0000
  4 C      7.0100     6.0000    -1.0100     3.3589     3.3589    -0.0000
  5 H      0.7335     1.0000     0.2665     1.0182     1.0182    -0.0000
  6 H      0.5793     1.0000     0.4207     0.8683     0.8683    -0.0000
  7 H      0.7335     1.0000     0.2665     1.0182     1.0182    -0.0000
  8 C      7.0099     6.0000    -1.0099     3.3590     3.3590    -0.0000
  9 H      0.5794     1.0000     0.4206     0.8683     0.8683    -0.0000
 10 H      0.7335     1.0000     0.2665     1.0182     1.0182    -0.0000
 11 H      0.7335     1.0000     0.2665     1.0182     1.0182    -0.0000
 12 C      6.2277     6.0000    -0.2277     3.2568     3.2568    -0.0000
 13 C      6.5083     6.0000    -0.5083     2.7998     2.7998    -0.0000
 14 C      6.0449     6.0000    -0.0449     2.6544     2.6544     0.0000
 15 C      6.0445     6.0000    -0.0445     2.6546     2.6546     0.0000
 16 C      6.5088     6.0000    -0.5088     2.8005     2.8005     0.0000
 17 C      6.2279     6.0000    -0.2279     3.2572     3.2572    -0.0000
 18 H      0.7462     1.0000     0.2538     0.9176     0.9176    -0.0000
 19 H      0.5401     1.0000     0.4599     0.7452     0.7452    -0.0000
 20 H      0.5402     1.0000     0.4598     0.7455     0.7455    -0.0000
 21 H      0.7461     1.0000     0.2539     0.9176     0.9176    -0.0000
 22 N      7.4211     7.0000    -0.4211     1.8288     1.8288    -0.0000
 23 N      7.4211     7.0000    -0.4211     1.8291     1.8291     0.0000

  Mayer bond orders larger than 0.100000
B(  0-C ,  1-C ) :   0.2008 B(  0-C ,  2-N ) :   0.7901 B(  0-C ,  8-C ) :   0.5186 
B(  0-C ,  9-H ) :  -0.1574 B(  0-C , 14-C ) :   0.2673 B(  0-C , 15-C ) :  -0.1119 
B(  0-C , 22-N ) :   0.7905 B(  1-C ,  3-N ) :   0.7899 B(  1-C ,  4-C ) :   0.5184 
B(  1-C ,  6-H ) :  -0.1574 B(  1-C , 14-C ) :  -0.1120 B(  1-C , 15-C ) :   0.2673 
B(  1-C , 23-N ) :   0.7905 B(  2-N ,  3-N ) :   0.7333 B(  2-N , 14-C ) :   0.1035 
B(  2-N , 22-N ) :   0.1011 B(  3-N , 15-C ) :   0.1036 B(  3-N , 23-N ) :   0.1011 
B(  4-C ,  5-H ) :   1.0292 B(  4-C ,  6-H ) :   0.8631 B(  4-C ,  7-H ) :   1.0292 
B(  8-C ,  9-H ) :   0.8632 B(  8-C , 10-H ) :   1.0292 B(  8-C , 11-H ) :   1.0292 
B( 12-C , 13-C ) :   1.3511 B( 12-C , 14-C ) :  -0.4013 B( 12-C , 17-C ) :   1.1844 
B( 12-C , 18-H ) :   1.1186 B( 13-C , 14-C ) :   0.8852 B( 13-C , 15-C ) :  -0.1461 
B( 13-C , 16-C ) :   0.1210 B( 13-C , 18-H ) :  -0.1433 B( 13-C , 19-H ) :   0.7978 
B( 14-C , 15-C ) :   1.9256 B( 14-C , 16-C ) :  -0.1462 B( 14-C , 22-N ) :   0.1034 
B( 15-C , 16-C ) :   0.8852 B( 15-C , 17-C ) :  -0.4014 B( 15-C , 23-N ) :   0.1034 
B( 16-C , 17-C ) :   1.3517 B( 16-C , 20-H ) :   0.7979 B( 16-C , 21-H ) :  -0.1432 
B( 17-C , 21-H ) :   1.1184 B( 22-N , 23-N ) :   0.7332 

-------
TIMINGS
-------

Total SCF time: 0 days 1 hours 57 min 56 sec 

Total time                  ....    7076.411 sec
Sum of individual times     ....    7071.846 sec  ( 99.9%)

Fock matrix formation       ....    7058.970 sec  ( 99.8%)
Diagonalization             ....       2.783 sec  (  0.0%)
Density matrix formation    ....       0.544 sec  (  0.0%)
Population analysis         ....       0.953 sec  (  0.0%)
Initial guess               ....       1.148 sec  (  0.0%)
Orbital Transformation      ....       0.000 sec  (  0.0%)
Orbital Orthonormalization  ....       0.000 sec  (  0.0%)
DIIS solution               ....       3.924 sec  (  0.1%)
SOSCF solution              ....       3.407 sec  (  0.0%)


           ************************************************************
           *        Program running with 32 parallel MPI-processes    *
           *              working on a common directory               *
           ************************************************************

------------------------------------------------------------------------------
                                ORCA  MP2 
------------------------------------------------------------------------------

Freezing NCore=28 chemical core electrons

-------------
RI-MP2 ENERGY
-------------
Dimension of the basis                    ... 1580
Memory devoted to MP2                     ... 4500 MB   
Data format for buffers                   ... DOUBLE
Compression type for matrix containers    ... UNCOMPRESSED
Overall scaling of the MP2 energy         ...   1.000e+00
Calculating two index integrals           ... done (    0.169 sec)
Cholesky decomposition of V**-1           ... done (    0.811 sec)

-----------------
RI-TRANSFORMATION (AUX index driven)
-----------------

Dimension of the orbital-basis         ... 1580
Dimension of the aux-basis             ... 3152
Transformation of internal/external MOs...   14-  48 to   49-1579
Number Format for Storage              ... Double (8 Byte)
Integral mode                          ... Direct

First Phase: integral generation and transformation of MO indices
  Aux angular momentum 0               ... done (    0.392 sec)
  Aux angular momentum 1               ... done (    1.006 sec)
  Aux angular momentum 2               ... done (    1.450 sec)
  Aux angular momentum 3               ... done (    1.702 sec)
  Aux angular momentum 4               ... done (    1.762 sec)
  Aux angular momentum 5               ... done (    0.760 sec)
Closing buffer VIA ( 1.26 GB; CompressionRatio= 1.00)
  Phase 1 completed in     7.366 sec
Second Phase: sorting and transformation of aux index

IA-Transformation
Memory available                       ... 4223 MB 
Max. # MO pairs treated in a batch     ... 2    
# of internal orbitals                 ... 35
# batches for internal orbitals        ... 1
Closing buffer IAV ( 0.07 GB; CompressionRatio= 1.00)
(ia|v) transformation done in     1.691 sec

  Phase 2 completed in     3.844 sec
RI-Integral transformation completed in    11.227 sec
Opening buffers                              ... done

Starting loop over batches of integrals:

Operator 0  - window                       ... ( 14- 48)x( 49-1579)
Operator 0  - Memory available             ...  4500 MB
Operator 0  - Memory needed per MO         ...  36.8 MB
Operator 0  - Number of orbitals per batch ... 2
Operator 0  - Number of batches            ... 1

OPERATOR  0   PASS   0:  MOs    14 ...   15 +   16 ...   17 +   18 ...   19 +   20 ...   21
                            +   22 ...   23 +   24 ...   25 +   26 ...   27 +   28 ...   29
                            +   30 ...   31 +   32 ...   33 +   34 ...   35 +   36 ...   37
                            +   38 ...   39 +   40 ...   41 +   42 ...   43 +   44 ...   45
                            +   46 ...   47 +   48 ...   48
  Reading integrals       ... ok
Time spent in pair loops =     1.061 sec
Deleting buffer (Ka|jb)[aa] ...done

-----------------------------------------------
 RI-MP2 CORRELATION ENERGY:     -2.602613062 Eh
-----------------------------------------------


-------
TIMINGS
-------

Total time                :   33.163 sec
Integral trafo            :   11.245 sec ( 33.9%)
I/O of integrals          :    0.063 sec (  0.2%)
K(i,j) Operators          :    0.814 sec (  2.5%)
T(i,j) pair energies      :    0.114 sec (  0.3%)
V-calculation             :    0.169 sec (  0.5%)
V**(-1/2)                 :    0.811 sec (  2.4%)
Gamma(ia|P)               :    0.000 sec (  0.0%)
Gamma-Trafo               :    0.000 sec (  0.0%)
D(virtual)                :    0.000 sec (  0.0%)
D(internal)               :    0.000 sec (  0.0%)
W(virtual)                :    0.000 sec (  0.0%)
W(internal)               :    0.000 sec (  0.0%)
L(virtual)                :    0.000 sec (  0.0%)
L(internal)               :    0.000 sec (  0.0%)
G(D)                      :    0.000 sec (  0.0%)
G(Z)                      :    0.000 sec (  0.0%)
Z-Vector Solution         :    0.000 sec (  0.0%)
3-Index Derivative        :    0.000 sec (  0.0%)
2-Index Derivative        :    0.000 sec (  0.0%)
Separable Gradient        :    0.000 sec (  0.0%)


---------------------------------------
MP2 TOTAL ENERGY:     -604.888572801 Eh
---------------------------------------

-------------------------   --------------------
FINAL SINGLE POINT ENERGY      -604.888572800955
-------------------------   --------------------


                            ***************************************
                            *     ORCA property calculations      *
                            ***************************************


  WARNING: The energy has been calculated at the MP2 level but the densities
           used in the property calculations are still SCF densities
           MP2 response densities have not been calculated 
           use %mp2 Density relaxed end
           or  %mp2 Density unrelaxed end

                                    ---------------------
                                    Active property flags
                                    ---------------------
   (+) Dipole Moment


------------------------------------------------------------------------------
                       ORCA ELECTRIC PROPERTIES CALCULATION
------------------------------------------------------------------------------

Dipole Moment Calculation                       ... on
Quadrupole Moment Calculation                   ... off
Polarizability Calculation                      ... off
GBWName                                         ... /tmp/pbs.2143120.pbsha.ib.sockeye/MP2augccpVQZ_02_47TS.gbw
Electron density file                           ... /tmp/pbs.2143120.pbsha.ib.sockeye/MP2augccpVQZ_02_47TS.scfp
The origin for moment calculation is the CENTER OF MASS  = ( 0.046961, -0.000000  0.000000)

-------------
DIPOLE MOMENT
-------------
                                X             Y             Z
Electronic contribution:      3.58232      -0.00000       0.00000
Nuclear contribution   :     -4.60221       0.00000      -0.00000
                        -----------------------------------------
Total Dipole Moment    :     -1.01989      -0.00000       0.00000
                        -----------------------------------------
Magnitude (a.u.)       :      1.01989
Magnitude (Debye)      :      2.59236



--------------------
Rotational spectrum 
--------------------
 
Rotational constants in cm-1:     0.035735     0.021521     0.015408 
Rotational constants in MHz :  1071.310859   645.181173   461.926706 

 Dipole components along the rotational axes: 
x,y,z [a.u.] :    -1.019892     0.000001     0.000001 
x,y,z [Debye]:    -2.592359     0.000002     0.000003 

 

Timings for individual modules:

Sum of individual times         ...     7120.230 sec (= 118.670 min)
GTO integral calculation        ...        6.632 sec (=   0.111 min)   0.1 %
SCF iterations                  ...     7078.087 sec (= 117.968 min)  99.4 %
MP2 module                      ...       35.511 sec (=   0.592 min)   0.5 %
                             ****ORCA TERMINATED NORMALLY****
TOTAL RUN TIME: 0 days 1 hours 58 minutes 42 seconds 746 msec
