
                                 *****************
                                 * O   R   C   A *
                                 *****************

           --- An Ab Initio, DFT and Semiempirical electronic structure package ---

                  #######################################################
                  #                        -***-                        #
                  #          Department of theory and spectroscopy      #
                  #               Directorship: Frank Neese             #
                  #        Max Planck Institute fuer Kohlenforschung    #
                  #                Kaiser Wilhelm Platz 1               #
                  #                 D-45470 Muelheim/Ruhr               #
                  #                      Germany                        #
                  #                                                     #
                  #                  All rights reserved                #
                  #                        -***-                        #
                  #######################################################


                         Program Version 4.2.1 -  RELEASE  -


 With contributions from (in alphabetic order):
   Daniel Aravena         : Magnetic Suceptibility
   Michael Atanasov       : Ab Initio Ligand Field Theory (pilot matlab implementation)
   Alexander A. Auer      : GIAO ZORA, VPT2
   Ute Becker             : Parallelization
   Giovanni Bistoni       : ED, misc. LED, open-shell LED, HFLD
   Martin Brehm           : Molecular dynamics
   Dmytro Bykov           : SCF Hessian
   Vijay G. Chilkuri      : MRCI spin determinant printing, contributions to CSF-ICE
   Dipayan Datta          : RHF DLPNO-CCSD density
   Achintya Kumar Dutta   : EOM-CC, STEOM-CC
   Dmitry Ganyushin       : Spin-Orbit,Spin-Spin,Magnetic field MRCI
   Miquel Garcia          : C-PCM Hessian, Gaussian charge scheme
   Yang Guo               : DLPNO-NEVPT2, CIM, IAO-localization
   Andreas Hansen         : Spin unrestricted coupled pair/coupled cluster methods
   Benjamin Helmich-Paris : CASSCF linear response (MC-RPA)
   Lee Huntington         : MR-EOM, pCC
   Robert Izsak           : Overlap fitted RIJCOSX, COSX-SCS-MP3, EOM
   Christian Kollmar      : KDIIS, OOCD, Brueckner-CCSD(T), CCSD density
   Simone Kossmann        : Meta GGA functionals, TD-DFT gradient, OOMP2, MP2 Hessian
   Martin Krupicka        : AUTO-CI
   Lucas Lang             : DCDCAS
   Dagmar Lenk            : GEPOL surface, SMD
   Dimitrios Liakos       : Extrapolation schemes; Compound Job, initial MDCI parallelization
   Dimitrios Manganas     : Further ROCIS development; embedding schemes
   Dimitrios Pantazis     : SARC Basis sets
   Taras Petrenko         : DFT Hessian,TD-DFT gradient, ASA, ECA, R-Raman, ABS, FL, XAS/XES, NRVS
   Peter Pinski           : DLPNO-MP2, DLPNO-MP2 Gradient
   Christoph Reimann      : Effective Core Potentials
   Marius Retegan         : Local ZFS, SOC
   Christoph Riplinger    : Optimizer, TS searches, QM/MM, DLPNO-CCSD(T), (RO)-DLPNO pert. Triples
   Tobias Risthaus        : Range-separated hybrids, TD-DFT gradient, RPA, STAB
   Michael Roemelt        : Original ROCIS implementation
   Masaaki Saitow         : Open-shell DLPNO-CCSD energy and density
   Barbara Sandhoefer     : DKH picture change effects
   Avijit Sen             : IP-ROCIS
   Kantharuban Sivalingam : CASSCF convergence, NEVPT2, FIC-MRCI
   Bernardo de Souza      : ESD, SOC TD-DFT
   Georgi Stoychev        : AutoAux, RI-MP2 NMR
   Willem Van den Heuvel  : Paramagnetic NMR
   Boris Wezisla          : Elementary symmetry handling
   Frank Wennmohs         : Technical directorship


 We gratefully acknowledge several colleagues who have allowed us to
 interface, adapt or use parts of their codes:
   Stefan Grimme, W. Hujo, H. Kruse,             : VdW corrections, initial TS optimization,
                  C. Bannwarth                     DFT functionals, gCP, sTDA/sTD-DF
   Ed Valeev, F. Pavosevic, A. Kumar             : LibInt (2-el integral package), F12 methods
   Garnet Chan, S. Sharma, J. Yang, R. Olivares  : DMRG
   Ulf Ekstrom                                   : XCFun DFT Library
   Mihaly Kallay                                 : mrcc  (arbitrary order and MRCC methods)
   Andreas Klamt, Michael Diedenhofen            : otool_cosmo (COSMO solvation model)
   Jiri Pittner, Ondrej Demel                    : Mk-CCSD
   Frank Weinhold                                : gennbo (NPA and NBO analysis)
   Christopher J. Cramer and Donald G. Truhlar   : smd solvation model
   Lars Goerigk                                  : TD-DFT with DH, B97 family of functionals
   V. Asgeirsson, H. Jonsson                     : NEB implementation
   FAccTs GmbH                                   : IRC, NEB, NEB-TS, Multilevel, MM, QM/MM, CI optimization
   S Lehtola, MJT Oliveira, MAL Marques          : LibXC Library


 Your calculation uses the libint2 library for the computation of 2-el integrals
 For citations please refer to: http://libint.valeyev.net

 Your ORCA version has been built with support for libXC version: 4.2.3
 For citations please refer to: https://tddft.org/programs/libxc/

 This ORCA versions uses:
   CBLAS   interface :  Fast vector & matrix operations
   LAPACKE interface :  Fast linear algebra routines
   SCALAPACK package :  Parallel linear algebra routines




***************************************
The coordinates will be read from file: 10_62P.xyz
***************************************


----- Orbital basis set information -----
Your calculation utilizes the basis: aug-cc-pVQZ 
    H, B-Ne : Obtained from the ccRepo (grant-hill.group.shef.ac.uk/ccrepo) Feb. 2017
              R. A. Kendall, T. H. Dunning, Jr., R. J. Harrison, J. Chem. Phys. 96, 6796 (1992)
         He : Obtained from the ccRepo (grant-hill.group.shef.ac.uk/ccrepo) Feb. 2017
              D. E. Woon, T. H. Dunning, Jr., J. Chem. Phys. 100, 2975 (1994)
  Li-Be, Na : Obtained from the ccRepo (grant-hill.group.shef.ac.uk/ccrepo) Feb. 2017
              B. P. Prascher, D. E. Woon, K. A. Peterson, T. H. Dunning, Jr., A. K. Wilson, Theor. Chem. Acc. 128, 69 (2011)
         Mg : Obtained from the Peterson Research Group Website (tyr0.chem.wsu.edu/~kipeters) Feb. 2017
              B. P. Prascher, D. E. Woon, K. A. Peterson, T. H. Dunning, Jr., A. K. Wilson, Theor. Chem. Acc. 128, 69 (2011)
      Al-Ar : Obtained from the ccRepo (grant-hill.group.shef.ac.uk/ccrepo) Feb. 2017
              D. E. Woon, T. H. Dunning, Jr., J. Chem. Phys. 98, 1358 (1993)
      Sc-Zn : Obtained from the ccRepo (grant-hill.group.shef.ac.uk/ccrepo) Feb. 2017
              N. B. Balabanov, K. A. Peterson, J. Chem. Phys. 123, 064107 (2005)
              N. B. Balabanov, K. A. Peterson, J. Chem. Phys. 125, 074110 (2006)
      Ga-Kr : Obtained from the ccRepo (grant-hill.group.shef.ac.uk/ccrepo) Feb. 2017
              A. K. Wilson, D. E. Woon, K. A. Peterson, T. H. Dunning, Jr., J. Chem. Phys. 110, 7667 (1999)

----- AuxC basis set information -----
Your calculation utilizes the auxiliary basis: aug-cc-pVQZ/C 
  H-He, B-F, Al-Ar, Ga-Kr : Obtained from the EMSL Basis Set Exchange (bse.pnl.gov) Feb. 2017
                            F. Weigend, A. Kohn, C. Hattig, J. Chem. Phys. 116, 3175 (2002)
                   Be, Mg : Obtained from the TURBOMOLE 7.0 basis set library
                            C. Haettig, Phys. Chem. Chem. Phys. 7, 59 (2005)
                       Ne : Obtained from the EMSL Basis Set Exchange (bse.pnl.gov) Feb. 2017
                            C. Haettig, Phys. Chem. Chem. Phys. 7, 59 (2005)
                            F. Weigend, A. Kohn, C. Hattig, J. Chem. Phys. 116, 3175 (2002)
                    Sc-Zn : Obtained from the EMSL Basis Set Exchange (bse.pnl.gov) Feb. 2017
                            D. H. Bross, J. G. Hill, H. J. Werner, K. A. Peterson, J. Chem. Phys. 139, 094302 (2013)

================================================================================
                                        WARNINGS
                       Please study these warnings very carefully!
================================================================================


WARNING: No MP2 level density has been requested!
         To caclulate MP2 level properties use
         %mp2 Density relaxed end
         or
         %mp2 Density unrelaxed end

WARNING: Post HF methods need fully converged wavefunctions
  ===> : Setting SCFConvForced true
         You can overwrite this default with %scf ConvForced false 


INFO   : the flag for use of LIBINT has been found!

================================================================================
                                       INPUT FILE
================================================================================
NAME = /tmp/pbs.2143444.pbsha.ib.sockeye/MP2augccpVQZ_10_62P.inp
|  1> %pal
|  2>  nprocs 32
|  3> end
|  4> !RI-MP2 aug-cc-pVQZ aug-cc-pVQZ/C TightSCF
|  5> %maxcore 4500
|  6> *xyzfile 0 1  10_62P.xyz
|  7> 
|  8> 
|  9>                          ****END OF INPUT****
================================================================================

                       ****************************
                       * Single Point Calculation *
                       ****************************

---------------------------------
CARTESIAN COORDINATES (ANGSTROEM)
---------------------------------
  C     -0.655287    0.985955    0.668963
  C     -1.616988    0.015328    0.011942
  C     -2.922774    0.241116   -0.041959
  C      2.631143   -0.681655    0.139950
  C      1.319806   -0.459351    0.116854
  C      0.721321    0.897830    0.058159
  C      1.303288    1.935408   -0.536276
  C      0.308818   -1.584764    0.185247
  C     -0.972283   -1.221912   -0.567907
  H     -0.579436    0.724994    1.732354
  H      0.825163    2.907505   -0.558583
  H      2.264118    1.844970   -1.027468
  H     -1.041230    2.004161    0.617762
  H      0.061447   -1.784241    1.234430
  H      0.748810   -2.500873   -0.211725
  H     -1.679536   -2.053034   -0.564319
  H     -0.715406   -1.026142   -1.615289
  H      3.027623   -1.690282    0.157743
  H      3.346891    0.130603    0.158596
  H     -3.602501   -0.478055   -0.484997
  H     -3.358209    1.152661    0.351661

----------------------------
CARTESIAN COORDINATES (A.U.)
----------------------------
  NO LB      ZA    FRAG     MASS         X           Y           Z
   0 C     6.0000    0    12.011   -1.238313    1.863185    1.264157
   1 C     6.0000    0    12.011   -3.055664    0.028966    0.022567
   2 C     6.0000    0    12.011   -5.523242    0.455643   -0.079291
   3 C     6.0000    0    12.011    4.972140   -1.288141    0.264467
   4 C     6.0000    0    12.011    2.494072   -0.868048    0.220822
   5 C     6.0000    0    12.011    1.363099    1.696653    0.109905
   6 C     6.0000    0    12.011    2.462857    3.657391   -1.013415
   7 C     6.0000    0    12.011    0.583581   -2.994770    0.350066
   8 C     6.0000    0    12.011   -1.837349   -2.309079   -1.073189
   9 H     1.0000    0     1.008   -1.094975    1.370040    3.273675
  10 H     1.0000    0     1.008    1.559332    5.494388   -1.055569
  11 H     1.0000    0     1.008    4.278563    3.486488   -1.941633
  12 H     1.0000    0     1.008   -1.967640    3.787315    1.167401
  13 H     1.0000    0     1.008    0.116118   -3.371727    2.332735
  14 H     1.0000    0     1.008    1.415046   -4.725965   -0.400102
  15 H     1.0000    0     1.008   -3.173863   -3.879672   -1.066408
  16 H     1.0000    0     1.008   -1.351921   -1.939127   -3.052454
  17 H     1.0000    0     1.008    5.721378   -3.194170    0.298091
  18 H     1.0000    0     1.008    6.324707    0.246804    0.299703
  19 H     1.0000    0     1.008   -6.807740   -0.903393   -0.916512
  20 H     1.0000    0     1.008   -6.346095    2.178214    0.664543

--------------------------------
INTERNAL COORDINATES (ANGSTROEM)
--------------------------------
 C      0   0   0     0.000000000000     0.00000000     0.00000000
 C      1   0   0     1.516133958782     0.00000000     0.00000000
 C      2   1   0     1.326258879910   122.21797123     0.00000000
 C      1   2   3     3.723090115908   102.21554963   180.93101654
 C      4   1   2     1.330247052694    19.51519681   358.60666581
 C      5   4   1     1.484442543520   123.42979651    30.37930301
 C      6   5   4     1.329889718886   123.68010735    30.43945396
 C      5   4   1     1.514374048629   122.21706833   212.00914874
 C      2   1   3     1.510838249922   114.82885866   180.17518669
 H      1   2   3     1.097567508905   108.14841564    88.70510980
 H      7   6   5     1.083546812686   121.06797316   179.66014137
 H      7   6   5     1.082886375207   121.72687513     0.43931840
 H      1   2   3     1.090099536779   110.67389029   331.82090933
 H      8   5   4     1.096252002351   109.21376625    89.99780312
 H      8   5   4     1.091070771641   109.77535340   333.40573625
 H      9   2   1     1.091321885897   110.23391776   152.01475701
 H      9   2   1     1.096047781784   108.69267415   268.89867159
 H      4   1   2     1.083901013182   137.50700842   320.93688604
 H      4   1   2     1.082776953663   104.18475830   154.48748024
 H      3   2   1     1.084213259103   121.39502997   182.12556272
 H      3   2   1     1.084183854634   121.58786371     2.30013297

---------------------------
INTERNAL COORDINATES (A.U.)
---------------------------
 C      0   0   0     0.000000000000     0.00000000     0.00000000
 C      1   0   0     2.865077964435     0.00000000     0.00000000
 C      2   1   0     2.506266065712   122.21797123     0.00000000
 C      1   2   3     7.035620690975   102.21554963   180.93101654
 C      4   1   2     2.513802620048    19.51519681   358.60666581
 C      5   4   1     2.805189868794   123.42979651    30.37930301
 C      6   5   4     2.513127357012   123.68010735    30.43945396
 C      5   4   1     2.861752216227   122.21706833   212.00914874
 C      2   1   3     2.855070525005   114.82885866   180.17518669
 H      1   2   3     2.074102005320   108.14841564    88.70510980
 H      7   6   5     2.047606729261   121.06797316   179.66014137
 H      7   6   5     2.046358683295   121.72687513     0.43931840
 H      1   2   3     2.059989583227   110.67389029   331.82090933
 H      8   5   4     2.071616058207   109.21376625    89.99780312
 H      8   5   4     2.061824951127   109.77535340   333.40573625
 H      9   2   1     2.062299488299   110.23391776   152.01475701
 H      9   2   1     2.071230137263   108.69267415   268.89867159
 H      4   1   2     2.048276071195   137.50700842   320.93688604
 H      4   1   2     2.046151906545   104.18475830   154.48748024
 H      3   2   1     2.048866130470   121.39502997   182.12556272
 H      3   2   1     2.048810564078   121.58786371     2.30013297

---------------------
BASIS SET INFORMATION
---------------------
There are 2 groups of distinct atoms

 Group   1 Type C   : 22s7p4d3f2g contracted to 6s5p4d3f2g pattern {991111/31111/1111/111/11}
 Group   2 Type H   : 7s4p3d2f contracted to 5s4p3d2f pattern {31111/1111/111/11}

Atom   0C    basis set group =>   1
Atom   1C    basis set group =>   1
Atom   2C    basis set group =>   1
Atom   3C    basis set group =>   1
Atom   4C    basis set group =>   1
Atom   5C    basis set group =>   1
Atom   6C    basis set group =>   1
Atom   7C    basis set group =>   1
Atom   8C    basis set group =>   1
Atom   9H    basis set group =>   2
Atom  10H    basis set group =>   2
Atom  11H    basis set group =>   2
Atom  12H    basis set group =>   2
Atom  13H    basis set group =>   2
Atom  14H    basis set group =>   2
Atom  15H    basis set group =>   2
Atom  16H    basis set group =>   2
Atom  17H    basis set group =>   2
Atom  18H    basis set group =>   2
Atom  19H    basis set group =>   2
Atom  20H    basis set group =>   2
---------------------------------
AUXILIARY/C BASIS SET INFORMATION
---------------------------------
There are 2 groups of distinct atoms

 Group   1 Type C   : 9s8p7d6f4g2h contracted to 9s8p7d6f4g2h pattern {111111111/11111111/1111111/111111/1111/11}
 Group   2 Type H   : 6s5p4d3f2g contracted to 6s5p4d3f2g pattern {111111/11111/1111/111/11}

Atom   0C    basis set group =>   1
Atom   1C    basis set group =>   1
Atom   2C    basis set group =>   1
Atom   3C    basis set group =>   1
Atom   4C    basis set group =>   1
Atom   5C    basis set group =>   1
Atom   6C    basis set group =>   1
Atom   7C    basis set group =>   1
Atom   8C    basis set group =>   1
Atom   9H    basis set group =>   2
Atom  10H    basis set group =>   2
Atom  11H    basis set group =>   2
Atom  12H    basis set group =>   2
Atom  13H    basis set group =>   2
Atom  14H    basis set group =>   2
Atom  15H    basis set group =>   2
Atom  16H    basis set group =>   2
Atom  17H    basis set group =>   2
Atom  18H    basis set group =>   2
Atom  19H    basis set group =>   2
Atom  20H    basis set group =>   2


           ************************************************************
           *        Program running with 32 parallel MPI-processes    *
           *              working on a common directory               *
           ************************************************************
------------------------------------------------------------------------------
                           ORCA GTO INTEGRAL CALCULATION
------------------------------------------------------------------------------

                         BASIS SET STATISTICS AND STARTUP INFO

 # of primitive gaussian shells          ...  534
 # of primitive gaussian functions       ... 1494
 # of contracted shells                  ...  348
 # of contracted basis functions         ... 1272
 Highest angular momentum                ...    4
 Maximum contraction depth               ...    9
 Integral package used                   ... LIBINT
 Integral threshhold            Thresh   ...  2.500e-11
 Primitive cut-off              TCut     ...  2.500e-12


------------------------------ INTEGRAL EVALUATION ----------------------------


 * One electron integrals 
 Pre-screening matrix                    ... done
 Shell pair data                         ... done (   0.019 sec)



           ************************************************************
           *        Program running with 32 parallel MPI-processes    *
           *              working on a common directory               *
           ************************************************************
-------------------------------------------------------------------------------
                                 ORCA SCF
-------------------------------------------------------------------------------

------------
SCF SETTINGS
------------
Hamiltonian:
 Ab initio Hamiltonian  Method          .... Hartree-Fock(GTOs)


General Settings:
 Integral files         IntName         .... /tmp/pbs.2143444.pbsha.ib.sockeye/MP2augccpVQZ_10_62P
 Hartree-Fock type      HFTyp           .... RHF
 Total Charge           Charge          ....    0
 Multiplicity           Mult            ....    1
 Number of Electrons    NEL             ....   66
 Basis Dimension        Dim             .... 1272
 Nuclear Repulsion      ENuc            ....    428.3301849921 Eh

Convergence Acceleration:
 DIIS                   CNVDIIS         .... on
   Start iteration      DIISMaxIt       ....    12
   Startup error        DIISStart       ....  0.200000
   # of expansion vecs  DIISMaxEq       ....     5
   Bias factor          DIISBfac        ....   1.050
   Max. coefficient     DIISMaxC        ....  10.000
 Newton-Raphson         CNVNR           .... off
 SOSCF                  CNVSOSCF        .... on
   Start iteration      SOSCFMaxIt      ....   150
   Startup grad/error   SOSCFStart      ....  0.003300
 Level Shifting         CNVShift        .... on
   Level shift para.    LevelShift      ....    0.2500
   Turn off err/grad.   ShiftErr        ....    0.0010
 Zerner damping         CNVZerner       .... off
 Static damping         CNVDamp         .... on
   Fraction old density DampFac         ....    0.7000
   Max. Damping (<1)    DampMax         ....    0.9800
   Min. Damping (>=0)   DampMin         ....    0.0000
   Turn off err/grad.   DampErr         ....    0.1000
 Fernandez-Rico         CNVRico         .... off

SCF Procedure:
 Maximum # iterations   MaxIter         ....   125
 SCF integral mode      SCFMode         .... Direct
   Integral package                     .... LIBINT
 Reset frequency        DirectResetFreq ....    20
 Integral Threshold     Thresh          ....  2.500e-11 Eh
 Primitive CutOff       TCut            ....  2.500e-12 Eh

Convergence Tolerance:
 Convergence Check Mode ConvCheckMode   .... Total+1el-Energy
 Convergence forced     ConvForced      .... 1
 Energy Change          TolE            ....  1.000e-08 Eh
 1-El. energy change                    ....  1.000e-05 Eh
 Orbital Gradient       TolG            ....  1.000e-05
 Orbital Rotation angle TolX            ....  1.000e-05
 DIIS Error             TolErr          ....  5.000e-07


Diagonalization of the overlap matrix:
Smallest eigenvalue                        ... 3.602e-07
Time for diagonalization                   ...    0.248 sec
Threshold for overlap eigenvalues          ... 1.000e-08
Number of eigenvalues below threshold      ... 0
Time for construction of square roots      ...    0.147 sec
Total time needed                          ...    0.401 sec

-------------------
DFT GRID GENERATION
-------------------

General Integration Accuracy     IntAcc      ...  4.340
Radial Grid Type                 RadialGrid  ... Gauss-Chebyshev
Angular Grid (max. acc.)         AngularGrid ... Lebedev-110
Angular grid pruning method      GridPruning ... 3 (G Style)
Weight generation scheme         WeightScheme... Becke
Basis function cutoff            BFCut       ...    1.0000e-11
Integration weight cutoff        WCut        ...    1.0000e-14
Grids for H and He will be reduced by one unit

# of grid points (after initial pruning)     ...  24432 (   0.0 sec)
# of grid points (after weights+screening)   ...  22216 (   0.0 sec)
nearest neighbour list constructed           ...    0.0 sec
Grid point re-assignment to atoms done       ...    0.0 sec
Grid point division into batches done        ...    0.0 sec
Reduced shell lists constructed in    0.0 sec

Total number of grid points                  ...    22216
Total number of batches                      ...      356
Average number of points per batch           ...       62
Average number of grid points per atom       ...     1058
Average number of shells per batch           ...   260.85 (74.96%)
Average number of basis functions per batch  ...   976.85 (76.80%)
Average number of large shells per batch     ...   220.31 (84.46%)
Average number of large basis fcns per batch ...   825.69 (84.53%)
Maximum spatial batch extension              ...   2.21,  2.08,  1.93 au
Average spatial batch extension              ...   0.05,  0.05,  0.05 au

Time for grid setup =    0.095 sec

------------------------------
INITIAL GUESS: MODEL POTENTIAL
------------------------------
Loading Hartree-Fock densities                     ... done
Calculating cut-offs                               ... done
Setting up the integral package                    ... done
Initializing the effective Hamiltonian             ... done
Starting the Coulomb interaction                   ... done (   0.1 sec)
Reading the grid                                   ... done
Mapping shells                                     ... done
Starting the XC term evaluation                    ... done (   0.2 sec)
Transforming the Hamiltonian                       ... done (   0.1 sec)
Diagonalizing the Hamiltonian                      ... done (   0.2 sec)
Back transforming the eigenvectors                 ... done (   0.0 sec)
Now organizing SCF variables                       ... done
                      ------------------
                      INITIAL GUESS DONE (   0.9 sec)
                      ------------------
--------------
SCF ITERATIONS
--------------
ITER       Energy         Delta-E        Max-DP      RMS-DP      [F,P]     Damp
               ***  Starting incremental Fock matrix formation  ***
  0   -347.4183471357   0.000000000000 0.35979161  0.00122566  0.2560879 0.7000
  1   -347.5749702955  -0.156623159836 0.26710079  0.00095028  0.1689120 0.7000
                               ***Turning on DIIS***
  2   -347.6737529045  -0.098782609064 0.18815327  0.00068920  0.1049029 0.7000
  3   -348.8817279030  -1.207974998489 0.43485239  0.00169030  0.0650167 0.0000
  4   -347.7811099377   1.100617965341 0.02055013  0.00008742  0.0080424 0.0000
                      *** Initiating the SOSCF procedure ***
                           *** Shutting down DIIS ***
                      *** Re-Reading the Fockian *** 
                      *** Removing any level shift *** 
ITER      Energy       Delta-E        Grad      Rot      Max-DP    RMS-DP
  5   -347.87034296  -0.0892330202  0.001315  0.001315  0.013423  0.000043
               *** Restarting incremental Fock matrix formation ***
  6   -347.88190669  -0.0115637370  0.000419  0.000811  0.001615  0.000014
  7   -347.88194037  -0.0000336734  0.000281  0.000912  0.001194  0.000010
  8   -347.88194597  -0.0000055978  0.000096  0.000140  0.000273  0.000002
  9   -347.88194700  -0.0000010348  0.000016  0.000016  0.000098  0.000001
 10   -347.88194704  -0.0000000401  0.000008  0.000018  0.000222  0.000001
 11   -347.88194706  -0.0000000168  0.000003  0.000011  0.000381  0.000003
                  ***Gradient check signals convergence***
              ***Rediagonalizing the Fockian in SOSCF/NRSCF***

               *****************************************************
               *                     SUCCESS                       *
               *           SCF CONVERGED AFTER  12 CYCLES          *
               *****************************************************


----------------
TOTAL SCF ENERGY
----------------

Total Energy       :         -347.88194705 Eh           -9466.34904 eV

Components:
Nuclear Repulsion  :          428.33018499 Eh           11655.45689 eV
Electronic Energy  :         -776.21213204 Eh          -21121.80592 eV
One Electron Energy:        -1318.27380559 Eh          -35872.05395 eV
Two Electron Energy:          542.06167355 Eh           14750.24803 eV

Virial components:
Potential Energy   :         -695.47442984 Eh          -18924.82136 eV
Kinetic Energy     :          347.59248279 Eh            9458.47232 eV
Virial Ratio       :            2.00083277


---------------
SCF CONVERGENCE
---------------

  Last Energy change         ...    6.3123e-09  Tolerance :   1.0000e-08
  Last MAX-Density change    ...    2.6093e-04  Tolerance :   1.0000e-07
  Last RMS-Density change    ...    1.6743e-06  Tolerance :   5.0000e-09
  Last Orbital Gradient      ...    5.4226e-07  Tolerance :   1.0000e-05
  Last Orbital Rotation      ...    1.3641e-06  Tolerance :   1.0000e-05

             **** THE GBW FILE WAS UPDATED (/tmp/pbs.2143444.pbsha.ib.sockeye/MP2augccpVQZ_10_62P.gbw) ****
             **** DENSITY FILE WAS UPDATED (/tmp/pbs.2143444.pbsha.ib.sockeye/MP2augccpVQZ_10_62P.scfp) ****
             **** ENERGY FILE WAS UPDATED (/tmp/pbs.2143444.pbsha.ib.sockeye/MP2augccpVQZ_10_62P.en.tmp) ****
             **** THE GBW FILE WAS UPDATED (/tmp/pbs.2143444.pbsha.ib.sockeye/MP2augccpVQZ_10_62P.gbw) ****
             **** DENSITY FILE WAS UPDATED (/tmp/pbs.2143444.pbsha.ib.sockeye/MP2augccpVQZ_10_62P.scfp) ****
----------------
ORBITAL ENERGIES
----------------

  NO   OCC          E(Eh)            E(eV) 
   0   2.0000     -11.240137      -305.8597 
   1   2.0000     -11.239306      -305.8371 
   2   2.0000     -11.238715      -305.8210 
   3   2.0000     -11.230802      -305.6057 
   4   2.0000     -11.228860      -305.5528 
   5   2.0000     -11.226580      -305.4908 
   6   2.0000     -11.218135      -305.2610 
   7   2.0000     -11.216538      -305.2175 
   8   2.0000     -11.208376      -304.9954 
   9   2.0000      -1.149952       -31.2918 
  10   2.0000      -1.071332       -29.1524 
  11   2.0000      -1.042332       -28.3633 
  12   2.0000      -0.973219       -26.4826 
  13   2.0000      -0.931754       -25.3543 
  14   2.0000      -0.861628       -23.4461 
  15   2.0000      -0.810556       -22.0563 
  16   2.0000      -0.732435       -19.9306 
  17   2.0000      -0.677062       -18.4238 
  18   2.0000      -0.654591       -17.8123 
  19   2.0000      -0.645311       -17.5598 
  20   2.0000      -0.636048       -17.3077 
  21   2.0000      -0.586649       -15.9635 
  22   2.0000      -0.574963       -15.6455 
  23   2.0000      -0.566493       -15.4151 
  24   2.0000      -0.550901       -14.9908 
  25   2.0000      -0.540678       -14.7126 
  26   2.0000      -0.528440       -14.3796 
  27   2.0000      -0.479975       -13.0608 
  28   2.0000      -0.477119       -12.9831 
  29   2.0000      -0.460565       -12.5326 
  30   2.0000      -0.406500       -11.0614 
  31   2.0000      -0.348358        -9.4793 
  32   2.0000      -0.320928        -8.7329 
  33   0.0000       0.025681         0.6988 
  34   0.0000       0.028443         0.7740 
  35   0.0000       0.029605         0.8056 
  36   0.0000       0.033365         0.9079 
  37   0.0000       0.041534         1.1302 
  38   0.0000       0.043095         1.1727 
  39   0.0000       0.048840         1.3290 
  40   0.0000       0.051345         1.3972 
  41   0.0000       0.053380         1.4525 
  42   0.0000       0.060172         1.6374 
  43   0.0000       0.065394         1.7795 
  44   0.0000       0.072704         1.9784 
  45   0.0000       0.081356         2.2138 
  46   0.0000       0.088399         2.4055 
  47   0.0000       0.089935         2.4473 
  48   0.0000       0.091503         2.4899 
  49   0.0000       0.098948         2.6925 
  50   0.0000       0.100106         2.7240 
  51   0.0000       0.101837         2.7711 
  52   0.0000       0.105421         2.8687 
  53   0.0000       0.107221         2.9176 
  54   0.0000       0.109725         2.9858 
  55   0.0000       0.116426         3.1681 
  56   0.0000       0.121340         3.3018 
  57   0.0000       0.124522         3.3884 
  58   0.0000       0.127041         3.4570 
  59   0.0000       0.131574         3.5803 
  60   0.0000       0.133747         3.6395 
  61   0.0000       0.136686         3.7194 
  62   0.0000       0.139435         3.7942 
  63   0.0000       0.142427         3.8756 
  64   0.0000       0.143718         3.9108 
  65   0.0000       0.146634         3.9901 
  66   0.0000       0.150221         4.0877 
  67   0.0000       0.152924         4.1613 
  68   0.0000       0.156760         4.2656 
  69   0.0000       0.158984         4.3262 
  70   0.0000       0.164942         4.4883 
  71   0.0000       0.168258         4.5785 
  72   0.0000       0.175414         4.7733 
  73   0.0000       0.178565         4.8590 
  74   0.0000       0.183877         5.0036 
  75   0.0000       0.196373         5.3436 
  76   0.0000       0.199149         5.4191 
  77   0.0000       0.205260         5.5854 
  78   0.0000       0.212010         5.7691 
  79   0.0000       0.215718         5.8700 
  80   0.0000       0.219063         5.9610 
  81   0.0000       0.223682         6.0867 
  82   0.0000       0.228323         6.2130 
  83   0.0000       0.229681         6.2499 
  84   0.0000       0.244766         6.6604 
  85   0.0000       0.249692         6.7945 
  86   0.0000       0.252833         6.8799 
  87   0.0000       0.258413         7.0318 
  88   0.0000       0.264556         7.1989 
  89   0.0000       0.266015         7.2386 
  90   0.0000       0.268027         7.2934 
  91   0.0000       0.271654         7.3921 
  92   0.0000       0.276804         7.5322 
  93   0.0000       0.280847         7.6422 
  94   0.0000       0.281306         7.6547 
  95   0.0000       0.287716         7.8291 
  96   0.0000       0.290401         7.9022 
  97   0.0000       0.291834         7.9412 
  98   0.0000       0.294996         8.0272 
  99   0.0000       0.298127         8.1124 
 100   0.0000       0.298753         8.1295 
 101   0.0000       0.302050         8.2192 
 102   0.0000       0.306121         8.3300 
 103   0.0000       0.310580         8.4513 
 104   0.0000       0.315475         8.5845 
 105   0.0000       0.317523         8.6402 
 106   0.0000       0.319427         8.6920 
 107   0.0000       0.322782         8.7833 
 108   0.0000       0.326608         8.8875 
 109   0.0000       0.330493         8.9932 
 110   0.0000       0.333825         9.0838 
 111   0.0000       0.335871         9.1395 
 112   0.0000       0.340767         9.2727 
 113   0.0000       0.344719         9.3803 
 114   0.0000       0.350145         9.5279 
 115   0.0000       0.354663         9.6509 
 116   0.0000       0.356987         9.7141 
 117   0.0000       0.363303         9.8860 
 118   0.0000       0.368167        10.0183 
 119   0.0000       0.371437        10.1073 
 120   0.0000       0.376185        10.2365 
 121   0.0000       0.378965        10.3122 
 122   0.0000       0.385977        10.5030 
 123   0.0000       0.387768        10.5517 
 124   0.0000       0.390953        10.6384 
 125   0.0000       0.395105        10.7513 
 126   0.0000       0.396555        10.7908 
 127   0.0000       0.397736        10.8229 
 128   0.0000       0.402650        10.9567 
 129   0.0000       0.405796        11.0423 
 130   0.0000       0.408820        11.1246 
 131   0.0000       0.414041        11.2666 
 132   0.0000       0.414968        11.2919 
 133   0.0000       0.416687        11.3386 
 134   0.0000       0.419368        11.4116 
 135   0.0000       0.424731        11.5575 
 136   0.0000       0.428061        11.6481 
 137   0.0000       0.431898        11.7525 
 138   0.0000       0.436784        11.8855 
 139   0.0000       0.439846        11.9688 
 140   0.0000       0.443404        12.0656 
 141   0.0000       0.448460        12.2032 
 142   0.0000       0.450212        12.2509 
 143   0.0000       0.451531        12.2868 
 144   0.0000       0.457128        12.4391 
 145   0.0000       0.464121        12.6294 
 146   0.0000       0.467824        12.7302 
 147   0.0000       0.471096        12.8192 
 148   0.0000       0.476109        12.9556 
 149   0.0000       0.477952        13.0057 
 150   0.0000       0.482136        13.1196 
 151   0.0000       0.487951        13.2778 
 152   0.0000       0.490411        13.3447 
 153   0.0000       0.493351        13.4248 
 154   0.0000       0.497606        13.5406 
 155   0.0000       0.502683        13.6787 
 156   0.0000       0.503899        13.7118 
 157   0.0000       0.506795        13.7906 
 158   0.0000       0.515875        14.0377 
 159   0.0000       0.519735        14.1427 
 160   0.0000       0.526183        14.3182 
 161   0.0000       0.529046        14.3961 
 162   0.0000       0.530174        14.4268 
 163   0.0000       0.533206        14.5093 
 164   0.0000       0.536337        14.5945 
 165   0.0000       0.545357        14.8399 
 166   0.0000       0.549094        14.9416 
 167   0.0000       0.551391        15.0041 
 168   0.0000       0.557545        15.1716 
 169   0.0000       0.563117        15.3232 
 170   0.0000       0.566316        15.4102 
 171   0.0000       0.567944        15.4546 
 172   0.0000       0.571867        15.5613 
 173   0.0000       0.577803        15.7228 
 174   0.0000       0.581062        15.8115 
 175   0.0000       0.586898        15.9703 
 176   0.0000       0.597424        16.2567 
 177   0.0000       0.600110        16.3298 
 178   0.0000       0.602629        16.3984 
 179   0.0000       0.608609        16.5611 
 180   0.0000       0.612569        16.6688 
 181   0.0000       0.614832        16.7304 
 182   0.0000       0.623000        16.9527 
 183   0.0000       0.623400        16.9636 
 184   0.0000       0.625916        17.0320 
 185   0.0000       0.631025        17.1711 
 186   0.0000       0.638278        17.3684 
 187   0.0000       0.646110        17.5816 
 188   0.0000       0.647706        17.6250 
 189   0.0000       0.654710        17.8156 
 190   0.0000       0.655791        17.8450 
 191   0.0000       0.658324        17.9139 
 192   0.0000       0.666659        18.1407 
 193   0.0000       0.669553        18.2195 
 194   0.0000       0.681190        18.5361 
 195   0.0000       0.685244        18.6464 
 196   0.0000       0.687271        18.7016 
 197   0.0000       0.689328        18.7576 
 198   0.0000       0.691586        18.8190 
 199   0.0000       0.697523        18.9806 
 200   0.0000       0.699347        19.0302 
 201   0.0000       0.709427        19.3045 
 202   0.0000       0.710598        19.3364 
 203   0.0000       0.722537        19.6612 
 204   0.0000       0.724810        19.7231 
 205   0.0000       0.726420        19.7669 
 206   0.0000       0.735464        20.0130 
 207   0.0000       0.739721        20.1288 
 208   0.0000       0.744894        20.2696 
 209   0.0000       0.748300        20.3623 
 210   0.0000       0.750401        20.4194 
 211   0.0000       0.754790        20.5389 
 212   0.0000       0.761530        20.7223 
 213   0.0000       0.764079        20.7917 
 214   0.0000       0.766312        20.8524 
 215   0.0000       0.769388        20.9361 
 216   0.0000       0.776683        21.1346 
 217   0.0000       0.781243        21.2587 
 218   0.0000       0.782257        21.2863 
 219   0.0000       0.785564        21.3763 
 220   0.0000       0.792968        21.5777 
 221   0.0000       0.800226        21.7753 
 222   0.0000       0.806833        21.9550 
 223   0.0000       0.807215        21.9654 
 224   0.0000       0.812169        22.1002 
 225   0.0000       0.817139        22.2355 
 226   0.0000       0.820310        22.3218 
 227   0.0000       0.827661        22.5218 
 228   0.0000       0.832171        22.6445 
 229   0.0000       0.836396        22.7595 
 230   0.0000       0.842075        22.9140 
 231   0.0000       0.844298        22.9745 
 232   0.0000       0.848688        23.0940 
 233   0.0000       0.852604        23.2005 
 234   0.0000       0.860142        23.4057 
 235   0.0000       0.866141        23.5689 
 236   0.0000       0.870338        23.6831 
 237   0.0000       0.875686        23.8286 
 238   0.0000       0.881300        23.9814 
 239   0.0000       0.884261        24.0620 
 240   0.0000       0.886726        24.1291 
 241   0.0000       0.888752        24.1842 
 242   0.0000       0.892018        24.2730 
 243   0.0000       0.899897        24.4874 
 244   0.0000       0.907010        24.6810 
 245   0.0000       0.910237        24.7688 
 246   0.0000       0.911985        24.8164 
 247   0.0000       0.915465        24.9111 
 248   0.0000       0.921857        25.0850 
 249   0.0000       0.924330        25.1523 
 250   0.0000       0.926849        25.2209 
 251   0.0000       0.934479        25.4285 
 252   0.0000       0.936758        25.4905 
 253   0.0000       0.945746        25.7351 
 254   0.0000       0.947304        25.7774 
 255   0.0000       0.954680        25.9782 
 256   0.0000       0.955346        25.9963 
 257   0.0000       0.966660        26.3042 
 258   0.0000       0.966944        26.3119 
 259   0.0000       0.969325        26.3767 
 260   0.0000       0.971643        26.4397 
 261   0.0000       0.984780        26.7972 
 262   0.0000       0.988343        26.8942 
 263   0.0000       0.990941        26.9649 
 264   0.0000       0.994292        27.0561 
 265   0.0000       0.998554        27.1720 
 266   0.0000       1.000871        27.2351 
 267   0.0000       1.008542        27.4438 
 268   0.0000       1.012133        27.5415 
 269   0.0000       1.020943        27.7813 
 270   0.0000       1.023883        27.8613 
 271   0.0000       1.030328        28.0366 
 272   0.0000       1.032881        28.1061 
 273   0.0000       1.044752        28.4291 
 274   0.0000       1.048829        28.5401 
 275   0.0000       1.053263        28.6607 
 276   0.0000       1.055367        28.7180 
 277   0.0000       1.058549        28.8046 
 278   0.0000       1.063815        28.9479 
 279   0.0000       1.067973        29.0610 
 280   0.0000       1.074783        29.2463 
 281   0.0000       1.077516        29.3207 
 282   0.0000       1.091208        29.6933 
 283   0.0000       1.093625        29.7590 
 284   0.0000       1.101580        29.9755 
 285   0.0000       1.105695        30.0875 
 286   0.0000       1.115214        30.3465 
 287   0.0000       1.120427        30.4884 
 288   0.0000       1.126084        30.6423 
 289   0.0000       1.132608        30.8198 
 290   0.0000       1.139409        31.0049 
 291   0.0000       1.141913        31.0730 
 292   0.0000       1.147403        31.2224 
 293   0.0000       1.151220        31.3263 
 294   0.0000       1.156383        31.4668 
 295   0.0000       1.163896        31.6712 
 296   0.0000       1.164983        31.7008 
 297   0.0000       1.173497        31.9325 
 298   0.0000       1.175836        31.9961 
 299   0.0000       1.180396        32.1202 
 300   0.0000       1.181506        32.1504 
 301   0.0000       1.188015        32.3275 
 302   0.0000       1.196583        32.5607 
 303   0.0000       1.206447        32.8291 
 304   0.0000       1.211821        32.9753 
 305   0.0000       1.212813        33.0023 
 306   0.0000       1.216613        33.1057 
 307   0.0000       1.220632        33.2151 
 308   0.0000       1.229374        33.4530 
 309   0.0000       1.233144        33.5555 
 310   0.0000       1.236732        33.6532 
 311   0.0000       1.241799        33.7911 
 312   0.0000       1.245302        33.8864 
 313   0.0000       1.247398        33.9434 
 314   0.0000       1.254666        34.1412 
 315   0.0000       1.257749        34.2251 
 316   0.0000       1.259680        34.2776 
 317   0.0000       1.264261        34.4023 
 318   0.0000       1.271670        34.6039 
 319   0.0000       1.273864        34.6636 
 320   0.0000       1.276894        34.7460 
 321   0.0000       1.286341        35.0031 
 322   0.0000       1.288372        35.0584 
 323   0.0000       1.292247        35.1638 
 324   0.0000       1.301592        35.4181 
 325   0.0000       1.307226        35.5714 
 326   0.0000       1.308548        35.6074 
 327   0.0000       1.315475        35.7959 
 328   0.0000       1.320729        35.9389 
 329   0.0000       1.322627        35.9905 
 330   0.0000       1.329291        36.1719 
 331   0.0000       1.341812        36.5126 
 332   0.0000       1.344684        36.5907 
 333   0.0000       1.350857        36.7587 
 334   0.0000       1.359516        36.9943 
 335   0.0000       1.365276        37.1511 
 336   0.0000       1.368469        37.2379 
 337   0.0000       1.373510        37.3751 
 338   0.0000       1.374410        37.3996 
 339   0.0000       1.378349        37.5068 
 340   0.0000       1.386450        37.7272 
 341   0.0000       1.393267        37.9127 
 342   0.0000       1.395214        37.9657 
 343   0.0000       1.403067        38.1794 
 344   0.0000       1.408871        38.3373 
 345   0.0000       1.411141        38.3991 
 346   0.0000       1.414104        38.4797 
 347   0.0000       1.422471        38.7074 
 348   0.0000       1.424744        38.7692 
 349   0.0000       1.433226        39.0001 
 350   0.0000       1.436319        39.0842 
 351   0.0000       1.438969        39.1563 
 352   0.0000       1.450223        39.4626 
 353   0.0000       1.454188        39.5705 
 354   0.0000       1.466549        39.9068 
 355   0.0000       1.472359        40.0649 
 356   0.0000       1.484426        40.3933 
 357   0.0000       1.488448        40.5027 
 358   0.0000       1.492928        40.6246 
 359   0.0000       1.498475        40.7756 
 360   0.0000       1.516566        41.2679 
 361   0.0000       1.522544        41.4305 
 362   0.0000       1.528235        41.5854 
 363   0.0000       1.530281        41.6411 
 364   0.0000       1.536809        41.8187 
 365   0.0000       1.538515        41.8651 
 366   0.0000       1.552666        42.2502 
 367   0.0000       1.554301        42.2947 
 368   0.0000       1.562353        42.5138 
 369   0.0000       1.563218        42.5373 
 370   0.0000       1.568491        42.6808 
 371   0.0000       1.578367        42.9496 
 372   0.0000       1.589230        43.2451 
 373   0.0000       1.592064        43.3223 
 374   0.0000       1.597368        43.4666 
 375   0.0000       1.604052        43.6485 
 376   0.0000       1.609565        43.7985 
 377   0.0000       1.611827        43.8600 
 378   0.0000       1.615715        43.9659 
 379   0.0000       1.619418        44.0666 
 380   0.0000       1.627640        44.2903 
 381   0.0000       1.643092        44.7108 
 382   0.0000       1.647948        44.8430 
 383   0.0000       1.650373        44.9089 
 384   0.0000       1.660233        45.1772 
 385   0.0000       1.665727        45.3267 
 386   0.0000       1.671505        45.4840 
 387   0.0000       1.679775        45.7090 
 388   0.0000       1.682113        45.7726 
 389   0.0000       1.687917        45.9306 
 390   0.0000       1.697025        46.1784 
 391   0.0000       1.701662        46.3046 
 392   0.0000       1.708331        46.4860 
 393   0.0000       1.723036        46.8862 
 394   0.0000       1.726619        46.9837 
 395   0.0000       1.730222        47.0817 
 396   0.0000       1.737116        47.2693 
 397   0.0000       1.747575        47.5539 
 398   0.0000       1.751355        47.6568 
 399   0.0000       1.759401        47.8757 
 400   0.0000       1.763891        47.9979 
 401   0.0000       1.778690        48.4006 
 402   0.0000       1.782270        48.4980 
 403   0.0000       1.788244        48.6606 
 404   0.0000       1.790242        48.7150 
 405   0.0000       1.796342        48.8810 
 406   0.0000       1.799911        48.9781 
 407   0.0000       1.809403        49.2364 
 408   0.0000       1.813288        49.3421 
 409   0.0000       1.822725        49.5989 
 410   0.0000       1.826178        49.6928 
 411   0.0000       1.835133        49.9365 
 412   0.0000       1.840507        50.0828 
 413   0.0000       1.842540        50.1381 
 414   0.0000       1.853185        50.4277 
 415   0.0000       1.865231        50.7555 
 416   0.0000       1.870382        50.8957 
 417   0.0000       1.877706        51.0950 
 418   0.0000       1.887457        51.3603 
 419   0.0000       1.894000        51.5384 
 420   0.0000       1.897167        51.6245 
 421   0.0000       1.899144        51.6783 
 422   0.0000       1.911334        52.0100 
 423   0.0000       1.912723        52.0478 
 424   0.0000       1.928249        52.4703 
 425   0.0000       1.931462        52.5577 
 426   0.0000       1.936352        52.6908 
 427   0.0000       1.944337        52.9081 
 428   0.0000       1.948354        53.0174 
 429   0.0000       1.959113        53.3102 
 430   0.0000       1.966293        53.5056 
 431   0.0000       1.970055        53.6079 
 432   0.0000       1.983470        53.9730 
 433   0.0000       1.988921        54.1213 
 434   0.0000       1.993448        54.2445 
 435   0.0000       2.000680        54.4413 
 436   0.0000       2.011019        54.7226 
 437   0.0000       2.017584        54.9013 
 438   0.0000       2.025193        55.1083 
 439   0.0000       2.028978        55.2113 
 440   0.0000       2.034602        55.3643 
 441   0.0000       2.037179        55.4345 
 442   0.0000       2.042964        55.5919 
 443   0.0000       2.056542        55.9614 
 444   0.0000       2.061890        56.1069 
 445   0.0000       2.077582        56.5339 
 446   0.0000       2.085073        56.7377 
 447   0.0000       2.086968        56.7893 
 448   0.0000       2.100702        57.1630 
 449   0.0000       2.105950        57.3058 
 450   0.0000       2.106406        57.3182 
 451   0.0000       2.109751        57.4092 
 452   0.0000       2.113851        57.5208 
 453   0.0000       2.124304        57.8053 
 454   0.0000       2.134260        58.0762 
 455   0.0000       2.142206        58.2924 
 456   0.0000       2.144917        58.3662 
 457   0.0000       2.149244        58.4839 
 458   0.0000       2.152929        58.5842 
 459   0.0000       2.156712        58.6871 
 460   0.0000       2.161924        58.8289 
 461   0.0000       2.168705        59.0135 
 462   0.0000       2.173547        59.1452 
 463   0.0000       2.179776        59.3147 
 464   0.0000       2.183848        59.4255 
 465   0.0000       2.185662        59.4749 
 466   0.0000       2.187201        59.5168 
 467   0.0000       2.198424        59.8222 
 468   0.0000       2.198847        59.8337 
 469   0.0000       2.206444        60.0404 
 470   0.0000       2.211943        60.1900 
 471   0.0000       2.216168        60.3050 
 472   0.0000       2.223416        60.5022 
 473   0.0000       2.227445        60.6119 
 474   0.0000       2.238682        60.9176 
 475   0.0000       2.240035        60.9544 
 476   0.0000       2.245742        61.1098 
 477   0.0000       2.248410        61.1824 
 478   0.0000       2.257091        61.4186 
 479   0.0000       2.260695        61.5166 
 480   0.0000       2.262629        61.5693 
 481   0.0000       2.270551        61.7848 
 482   0.0000       2.274030        61.8795 
 483   0.0000       2.280990        62.0689 
 484   0.0000       2.284378        62.1611 
 485   0.0000       2.288365        62.2696 
 486   0.0000       2.293175        62.4005 
 487   0.0000       2.303498        62.6814 
 488   0.0000       2.305227        62.7284 
 489   0.0000       2.306087        62.7518 
 490   0.0000       2.313730        62.9598 
 491   0.0000       2.318324        63.0848 
 492   0.0000       2.323315        63.2206 
 493   0.0000       2.326781        63.3149 
 494   0.0000       2.330258        63.4095 
 495   0.0000       2.333400        63.4950 
 496   0.0000       2.339089        63.6499 
 497   0.0000       2.342002        63.7291 
 498   0.0000       2.352529        64.0156 
 499   0.0000       2.354953        64.0815 
 500   0.0000       2.358354        64.1741 
 501   0.0000       2.362940        64.2989 
 502   0.0000       2.371526        64.5325 
 503   0.0000       2.382077        64.8196 
 504   0.0000       2.384955        64.8979 
 505   0.0000       2.389050        65.0094 
 506   0.0000       2.391327        65.0713 
 507   0.0000       2.398058        65.2545 
 508   0.0000       2.401172        65.3392 
 509   0.0000       2.413071        65.6630 
 510   0.0000       2.418238        65.8036 
 511   0.0000       2.420341        65.8608 
 512   0.0000       2.428970        66.0956 
 513   0.0000       2.430590        66.1397 
 514   0.0000       2.436714        66.3063 
 515   0.0000       2.444828        66.5272 
 516   0.0000       2.447356        66.5959 
 517   0.0000       2.453829        66.7721 
 518   0.0000       2.459459        66.9253 
 519   0.0000       2.467864        67.1540 
 520   0.0000       2.469480        67.1980 
 521   0.0000       2.480002        67.4843 
 522   0.0000       2.486025        67.6482 
 523   0.0000       2.487511        67.6886 
 524   0.0000       2.492733        67.8307 
 525   0.0000       2.500036        68.0294 
 526   0.0000       2.502974        68.1094 
 527   0.0000       2.515277        68.4442 
 528   0.0000       2.521525        68.6142 
 529   0.0000       2.527751        68.7836 
 530   0.0000       2.534232        68.9600 
 531   0.0000       2.546291        69.2881 
 532   0.0000       2.548044        69.3358 
 533   0.0000       2.552772        69.4644 
 534   0.0000       2.557431        69.5912 
 535   0.0000       2.558410        69.6179 
 536   0.0000       2.569590        69.9221 
 537   0.0000       2.571763        69.9812 
 538   0.0000       2.578499        70.1645 
 539   0.0000       2.583362        70.2969 
 540   0.0000       2.591517        70.5188 
 541   0.0000       2.598670        70.7134 
 542   0.0000       2.605317        70.8943 
 543   0.0000       2.608979        70.9939 
 544   0.0000       2.613589        71.1194 
 545   0.0000       2.626327        71.4660 
 546   0.0000       2.638104        71.7865 
 547   0.0000       2.642177        71.8973 
 548   0.0000       2.644945        71.9726 
 549   0.0000       2.648230        72.0620 
 550   0.0000       2.651479        72.1504 
 551   0.0000       2.654900        72.2435 
 552   0.0000       2.659085        72.3574 
 553   0.0000       2.672449        72.7210 
 554   0.0000       2.677529        72.8593 
 555   0.0000       2.685981        73.0893 
 556   0.0000       2.688708        73.1635 
 557   0.0000       2.698486        73.4295 
 558   0.0000       2.701939        73.5235 
 559   0.0000       2.716042        73.9073 
 560   0.0000       2.718423        73.9721 
 561   0.0000       2.725727        74.1708 
 562   0.0000       2.729593        74.2760 
 563   0.0000       2.733870        74.3924 
 564   0.0000       2.744293        74.6760 
 565   0.0000       2.747584        74.7656 
 566   0.0000       2.759213        75.0820 
 567   0.0000       2.762057        75.1594 
 568   0.0000       2.768738        75.3412 
 569   0.0000       2.778945        75.6189 
 570   0.0000       2.788551        75.8803 
 571   0.0000       2.790840        75.9426 
 572   0.0000       2.800328        76.2008 
 573   0.0000       2.805203        76.3334 
 574   0.0000       2.816882        76.6512 
 575   0.0000       2.822290        76.7984 
 576   0.0000       2.827749        76.9470 
 577   0.0000       2.837261        77.2058 
 578   0.0000       2.843032        77.3628 
 579   0.0000       2.848896        77.5224 
 580   0.0000       2.858340        77.7794 
 581   0.0000       2.861239        77.8583 
 582   0.0000       2.863395        77.9169 
 583   0.0000       2.876383        78.2704 
 584   0.0000       2.878381        78.3247 
 585   0.0000       2.882924        78.4484 
 586   0.0000       2.888182        78.5914 
 587   0.0000       2.898156        78.8628 
 588   0.0000       2.903269        79.0020 
 589   0.0000       2.910484        79.1983 
 590   0.0000       2.920454        79.4696 
 591   0.0000       2.924476        79.5791 
 592   0.0000       2.935331        79.8744 
 593   0.0000       2.936751        79.9130 
 594   0.0000       2.947561        80.2072 
 595   0.0000       2.952273        80.3354 
 596   0.0000       2.957898        80.4885 
 597   0.0000       2.968037        80.7644 
 598   0.0000       2.977104        81.0111 
 599   0.0000       2.982196        81.1497 
 600   0.0000       2.990981        81.3887 
 601   0.0000       2.997856        81.5758 
 602   0.0000       3.001528        81.6757 
 603   0.0000       3.014396        82.0259 
 604   0.0000       3.022387        82.2433 
 605   0.0000       3.027055        82.3704 
 606   0.0000       3.033820        82.5544 
 607   0.0000       3.039028        82.6962 
 608   0.0000       3.048827        82.9628 
 609   0.0000       3.050506        83.0085 
 610   0.0000       3.057037        83.1862 
 611   0.0000       3.071663        83.5842 
 612   0.0000       3.075750        83.6954 
 613   0.0000       3.078413        83.7679 
 614   0.0000       3.091655        84.1282 
 615   0.0000       3.098317        84.3095 
 616   0.0000       3.101449        84.3947 
 617   0.0000       3.110607        84.6439 
 618   0.0000       3.122723        84.9736 
 619   0.0000       3.126364        85.0727 
 620   0.0000       3.129901        85.1689 
 621   0.0000       3.135546        85.3225 
 622   0.0000       3.140242        85.4503 
 623   0.0000       3.142684        85.5168 
 624   0.0000       3.154115        85.8278 
 625   0.0000       3.169984        86.2596 
 626   0.0000       3.172438        86.3264 
 627   0.0000       3.185890        86.6925 
 628   0.0000       3.191170        86.8362 
 629   0.0000       3.198569        87.0375 
 630   0.0000       3.200859        87.0998 
 631   0.0000       3.212857        87.4263 
 632   0.0000       3.222213        87.6809 
 633   0.0000       3.232421        87.9586 
 634   0.0000       3.238267        88.1177 
 635   0.0000       3.244052        88.2751 
 636   0.0000       3.249711        88.4291 
 637   0.0000       3.254467        88.5586 
 638   0.0000       3.267851        88.9228 
 639   0.0000       3.281584        89.2964 
 640   0.0000       3.284118        89.3654 
 641   0.0000       3.289503        89.5119 
 642   0.0000       3.297153        89.7201 
 643   0.0000       3.307830        90.0106 
 644   0.0000       3.324555        90.4658 
 645   0.0000       3.332952        90.6942 
 646   0.0000       3.340575        90.9017 
 647   0.0000       3.347431        91.0882 
 648   0.0000       3.349906        91.1556 
 649   0.0000       3.364789        91.5606 
 650   0.0000       3.379459        91.9598 
 651   0.0000       3.385632        92.1277 
 652   0.0000       3.389408        92.2305 
 653   0.0000       3.396220        92.4159 
 654   0.0000       3.403044        92.6015 
 655   0.0000       3.422179        93.1222 
 656   0.0000       3.432400        93.4003 
 657   0.0000       3.432645        93.4070 
 658   0.0000       3.450103        93.8821 
 659   0.0000       3.461494        94.1920 
 660   0.0000       3.469271        94.4037 
 661   0.0000       3.472254        94.4848 
 662   0.0000       3.480675        94.7140 
 663   0.0000       3.485493        94.8451 
 664   0.0000       3.496719        95.1506 
 665   0.0000       3.501783        95.2884 
 666   0.0000       3.524151        95.8970 
 667   0.0000       3.532697        96.1296 
 668   0.0000       3.540579        96.3441 
 669   0.0000       3.550094        96.6030 
 670   0.0000       3.562822        96.9493 
 671   0.0000       3.564417        96.9927 
 672   0.0000       3.576351        97.3175 
 673   0.0000       3.586350        97.5895 
 674   0.0000       3.594567        97.8132 
 675   0.0000       3.598368        97.9166 
 676   0.0000       3.605295        98.1051 
 677   0.0000       3.627180        98.7006 
 678   0.0000       3.639057        99.0238 
 679   0.0000       3.650034        99.3225 
 680   0.0000       3.651828        99.3713 
 681   0.0000       3.666126        99.7604 
 682   0.0000       3.667565        99.7995 
 683   0.0000       3.675018       100.0023 
 684   0.0000       3.685773       100.2950 
 685   0.0000       3.697001       100.6005 
 686   0.0000       3.712149       101.0127 
 687   0.0000       3.724420       101.3466 
 688   0.0000       3.735214       101.6403 
 689   0.0000       3.743848       101.8753 
 690   0.0000       3.748007       101.9885 
 691   0.0000       3.763632       102.4136 
 692   0.0000       3.777093       102.7799 
 693   0.0000       3.787570       103.0650 
 694   0.0000       3.803050       103.4862 
 695   0.0000       3.809386       103.6587 
 696   0.0000       3.814492       103.7976 
 697   0.0000       3.818071       103.8950 
 698   0.0000       3.829798       104.2141 
 699   0.0000       3.834387       104.3390 
 700   0.0000       3.845019       104.6283 
 701   0.0000       3.853577       104.8612 
 702   0.0000       3.866189       105.2044 
 703   0.0000       3.872279       105.3701 
 704   0.0000       3.872684       105.3811 
 705   0.0000       3.878213       105.5315 
 706   0.0000       3.887677       105.7891 
 707   0.0000       3.896610       106.0321 
 708   0.0000       3.917883       106.6110 
 709   0.0000       3.923114       106.7533 
 710   0.0000       3.930133       106.9444 
 711   0.0000       3.944962       107.3479 
 712   0.0000       3.948831       107.4531 
 713   0.0000       3.960817       107.7793 
 714   0.0000       3.970876       108.0530 
 715   0.0000       3.979347       108.2835 
 716   0.0000       3.984517       108.4242 
 717   0.0000       3.994826       108.7047 
 718   0.0000       4.005479       108.9946 
 719   0.0000       4.008308       109.0716 
 720   0.0000       4.024665       109.5167 
 721   0.0000       4.035918       109.8229 
 722   0.0000       4.050541       110.2208 
 723   0.0000       4.053497       110.3013 
 724   0.0000       4.067449       110.6809 
 725   0.0000       4.077780       110.9620 
 726   0.0000       4.083319       111.1127 
 727   0.0000       4.087855       111.2362 
 728   0.0000       4.102150       111.6252 
 729   0.0000       4.118006       112.0566 
 730   0.0000       4.127120       112.3046 
 731   0.0000       4.130786       112.4044 
 732   0.0000       4.138083       112.6030 
 733   0.0000       4.138896       112.6251 
 734   0.0000       4.149140       112.9039 
 735   0.0000       4.169945       113.4700 
 736   0.0000       4.173313       113.5616 
 737   0.0000       4.186035       113.9078 
 738   0.0000       4.189393       113.9992 
 739   0.0000       4.206201       114.4566 
 740   0.0000       4.211629       114.6042 
 741   0.0000       4.221788       114.8807 
 742   0.0000       4.232498       115.1721 
 743   0.0000       4.239371       115.3591 
 744   0.0000       4.258502       115.8797 
 745   0.0000       4.266750       116.1042 
 746   0.0000       4.272916       116.2719 
 747   0.0000       4.281877       116.5158 
 748   0.0000       4.293620       116.8353 
 749   0.0000       4.313491       117.3761 
 750   0.0000       4.315712       117.4365 
 751   0.0000       4.317829       117.4941 
 752   0.0000       4.323469       117.6476 
 753   0.0000       4.338137       118.0467 
 754   0.0000       4.340958       118.1235 
 755   0.0000       4.352523       118.4382 
 756   0.0000       4.357514       118.5740 
 757   0.0000       4.363106       118.7261 
 758   0.0000       4.378900       119.1559 
 759   0.0000       4.390029       119.4588 
 760   0.0000       4.396017       119.6217 
 761   0.0000       4.399325       119.7117 
 762   0.0000       4.404328       119.8479 
 763   0.0000       4.413001       120.0839 
 764   0.0000       4.429188       120.5243 
 765   0.0000       4.431450       120.5859 
 766   0.0000       4.443846       120.9232 
 767   0.0000       4.451727       121.1377 
 768   0.0000       4.465856       121.5221 
 769   0.0000       4.474989       121.7706 
 770   0.0000       4.489136       122.1556 
 771   0.0000       4.504084       122.5623 
 772   0.0000       4.517123       122.9172 
 773   0.0000       4.532622       123.3389 
 774   0.0000       4.539580       123.5282 
 775   0.0000       4.545120       123.6790 
 776   0.0000       4.564939       124.2183 
 777   0.0000       4.570243       124.3626 
 778   0.0000       4.574641       124.4823 
 779   0.0000       4.581932       124.6807 
 780   0.0000       4.602133       125.2304 
 781   0.0000       4.604261       125.2883 
 782   0.0000       4.621774       125.7649 
 783   0.0000       4.630253       125.9956 
 784   0.0000       4.636397       126.1628 
 785   0.0000       4.658450       126.7629 
 786   0.0000       4.660311       126.8135 
 787   0.0000       4.666187       126.9734 
 788   0.0000       4.673826       127.1813 
 789   0.0000       4.690015       127.6218 
 790   0.0000       4.695377       127.7677 
 791   0.0000       4.701623       127.9377 
 792   0.0000       4.712371       128.2301 
 793   0.0000       4.712705       128.2392 
 794   0.0000       4.724299       128.5547 
 795   0.0000       4.738239       128.9340 
 796   0.0000       4.748079       129.2018 
 797   0.0000       4.758353       129.4814 
 798   0.0000       4.765285       129.6700 
 799   0.0000       4.774005       129.9073 
 800   0.0000       4.782219       130.1308 
 801   0.0000       4.797580       130.5488 
 802   0.0000       4.806305       130.7862 
 803   0.0000       4.819699       131.1507 
 804   0.0000       4.840311       131.7116 
 805   0.0000       4.852532       132.0441 
 806   0.0000       4.874570       132.6438 
 807   0.0000       4.882008       132.8462 
 808   0.0000       4.910101       133.6106 
 809   0.0000       4.916879       133.7951 
 810   0.0000       4.928569       134.1132 
 811   0.0000       4.940279       134.4318 
 812   0.0000       4.950427       134.7080 
 813   0.0000       4.953241       134.7845 
 814   0.0000       4.972897       135.3194 
 815   0.0000       4.982380       135.5775 
 816   0.0000       5.011952       136.3822 
 817   0.0000       5.022234       136.6619 
 818   0.0000       5.029524       136.8603 
 819   0.0000       5.040516       137.1594 
 820   0.0000       5.063906       137.7959 
 821   0.0000       5.085643       138.3874 
 822   0.0000       5.092213       138.5662 
 823   0.0000       5.105981       138.9408 
 824   0.0000       5.108377       139.0060 
 825   0.0000       5.126952       139.5115 
 826   0.0000       5.137010       139.7851 
 827   0.0000       5.155863       140.2982 
 828   0.0000       5.184021       141.0644 
 829   0.0000       5.185309       141.0994 
 830   0.0000       5.202564       141.5690 
 831   0.0000       5.215774       141.9284 
 832   0.0000       5.234794       142.4460 
 833   0.0000       5.249245       142.8392 
 834   0.0000       5.277145       143.5984 
 835   0.0000       5.281728       143.7231 
 836   0.0000       5.303132       144.3056 
 837   0.0000       5.316929       144.6810 
 838   0.0000       5.337029       145.2279 
 839   0.0000       5.358508       145.8124 
 840   0.0000       5.369995       146.1250 
 841   0.0000       5.407953       147.1579 
 842   0.0000       5.430825       147.7803 
 843   0.0000       5.461671       148.6196 
 844   0.0000       5.470282       148.8539 
 845   0.0000       5.492610       149.4615 
 846   0.0000       5.517548       150.1401 
 847   0.0000       5.550663       151.0412 
 848   0.0000       5.572858       151.6452 
 849   0.0000       5.585766       151.9964 
 850   0.0000       5.600759       152.4044 
 851   0.0000       5.618920       152.8986 
 852   0.0000       5.658549       153.9769 
 853   0.0000       5.675794       154.4462 
 854   0.0000       5.694766       154.9625 
 855   0.0000       6.080382       165.4556 
 856   0.0000       6.103940       166.0966 
 857   0.0000       6.124529       166.6569 
 858   0.0000       6.140128       167.0814 
 859   0.0000       6.152913       167.4293 
 860   0.0000       6.175952       168.0562 
 861   0.0000       6.201505       168.7515 
 862   0.0000       6.204606       168.8359 
 863   0.0000       6.229024       169.5004 
 864   0.0000       6.230597       169.5432 
 865   0.0000       6.249761       170.0646 
 866   0.0000       6.262337       170.4069 
 867   0.0000       6.287711       171.0973 
 868   0.0000       6.295550       171.3106 
 869   0.0000       6.307103       171.6250 
 870   0.0000       6.323378       172.0679 
 871   0.0000       6.333353       172.3393 
 872   0.0000       6.347538       172.7253 
 873   0.0000       6.358037       173.0110 
 874   0.0000       6.363034       173.1470 
 875   0.0000       6.375438       173.4845 
 876   0.0000       6.404345       174.2711 
 877   0.0000       6.406453       174.3284 
 878   0.0000       6.431290       175.0043 
 879   0.0000       6.448891       175.4833 
 880   0.0000       6.461033       175.8136 
 881   0.0000       6.471075       176.0869 
 882   0.0000       6.480937       176.3553 
 883   0.0000       6.492469       176.6691 
 884   0.0000       6.501460       176.9137 
 885   0.0000       6.518026       177.3645 
 886   0.0000       6.528324       177.6447 
 887   0.0000       6.537288       177.8886 
 888   0.0000       6.552318       178.2976 
 889   0.0000       6.570917       178.8037 
 890   0.0000       6.580543       179.0657 
 891   0.0000       6.592108       179.3804 
 892   0.0000       6.603995       179.7038 
 893   0.0000       6.614898       180.0005 
 894   0.0000       6.627150       180.3339 
 895   0.0000       6.629139       180.3880 
 896   0.0000       6.646471       180.8597 
 897   0.0000       6.651660       181.0009 
 898   0.0000       6.671621       181.5440 
 899   0.0000       6.677988       181.7173 
 900   0.0000       6.688573       182.0053 
 901   0.0000       6.690970       182.0705 
 902   0.0000       6.705584       182.4682 
 903   0.0000       6.714694       182.7161 
 904   0.0000       6.722473       182.9278 
 905   0.0000       6.738089       183.3527 
 906   0.0000       6.745363       183.5506 
 907   0.0000       6.757123       183.8707 
 908   0.0000       6.767251       184.1463 
 909   0.0000       6.777587       184.4275 
 910   0.0000       6.785398       184.6401 
 911   0.0000       6.795262       184.9085 
 912   0.0000       6.806685       185.2193 
 913   0.0000       6.809339       185.2915 
 914   0.0000       6.819843       185.5774 
 915   0.0000       6.843669       186.2257 
 916   0.0000       6.853988       186.5065 
 917   0.0000       6.871502       186.9831 
 918   0.0000       6.884081       187.3254 
 919   0.0000       6.890458       187.4989 
 920   0.0000       6.903305       187.8485 
 921   0.0000       6.911251       188.0647 
 922   0.0000       6.914760       188.1602 
 923   0.0000       6.920263       188.3099 
 924   0.0000       6.936527       188.7525 
 925   0.0000       6.946397       189.0211 
 926   0.0000       6.960389       189.4018 
 927   0.0000       6.968766       189.6298 
 928   0.0000       6.978556       189.8962 
 929   0.0000       6.986417       190.1101 
 930   0.0000       6.990125       190.2110 
 931   0.0000       7.003151       190.5654 
 932   0.0000       7.011736       190.7990 
 933   0.0000       7.016312       190.9236 
 934   0.0000       7.028766       191.2625 
 935   0.0000       7.037592       191.5026 
 936   0.0000       7.045941       191.7298 
 937   0.0000       7.055762       191.9970 
 938   0.0000       7.068491       192.3434 
 939   0.0000       7.073510       192.4800 
 940   0.0000       7.082142       192.7149 
 941   0.0000       7.090581       192.9445 
 942   0.0000       7.100967       193.2271 
 943   0.0000       7.109099       193.4484 
 944   0.0000       7.112466       193.5400 
 945   0.0000       7.128670       193.9810 
 946   0.0000       7.142191       194.3489 
 947   0.0000       7.151580       194.6044 
 948   0.0000       7.158509       194.7929 
 949   0.0000       7.166229       195.0030 
 950   0.0000       7.178870       195.3470 
 951   0.0000       7.187216       195.5741 
 952   0.0000       7.199008       195.8950 
 953   0.0000       7.209074       196.1689 
 954   0.0000       7.216987       196.3842 
 955   0.0000       7.221655       196.5112 
 956   0.0000       7.230638       196.7557 
 957   0.0000       7.236922       196.9267 
 958   0.0000       7.241875       197.0614 
 959   0.0000       7.251696       197.3287 
 960   0.0000       7.258928       197.5255 
 961   0.0000       7.273863       197.9319 
 962   0.0000       7.275887       197.9870 
 963   0.0000       7.283685       198.1991 
 964   0.0000       7.289433       198.3556 
 965   0.0000       7.304603       198.7683 
 966   0.0000       7.309257       198.8950 
 967   0.0000       7.322307       199.2501 
 968   0.0000       7.327510       199.3917 
 969   0.0000       7.333398       199.5519 
 970   0.0000       7.341984       199.7855 
 971   0.0000       7.348341       199.9585 
 972   0.0000       7.360033       200.2767 
 973   0.0000       7.371267       200.5824 
 974   0.0000       7.376847       200.7342 
 975   0.0000       7.388680       201.0562 
 976   0.0000       7.399813       201.3591 
 977   0.0000       7.416027       201.8003 
 978   0.0000       7.426193       202.0770 
 979   0.0000       7.427742       202.1191 
 980   0.0000       7.450649       202.7425 
 981   0.0000       7.454622       202.8506 
 982   0.0000       7.464534       203.1203 
 983   0.0000       7.471839       203.3191 
 984   0.0000       7.478047       203.4880 
 985   0.0000       7.487267       203.7389 
 986   0.0000       7.496112       203.9796 
 987   0.0000       7.501329       204.1215 
 988   0.0000       7.521731       204.6767 
 989   0.0000       7.526870       204.8166 
 990   0.0000       7.534769       205.0315 
 991   0.0000       7.541437       205.2129 
 992   0.0000       7.558146       205.6676 
 993   0.0000       7.579409       206.2462 
 994   0.0000       7.583188       206.3490 
 995   0.0000       7.602155       206.8651 
 996   0.0000       7.615234       207.2210 
 997   0.0000       7.617765       207.2899 
 998   0.0000       7.635729       207.7788 
 999   0.0000       7.645071       208.0330 
 1000   0.0000       7.651950       208.2201 
 1001   0.0000       7.668032       208.6578 
 1002   0.0000       7.678216       208.9349 
 1003   0.0000       7.685669       209.1377 
 1004   0.0000       7.698593       209.4894 
 1005   0.0000       7.708970       209.7718 
 1006   0.0000       7.724720       210.2003 
 1007   0.0000       7.741154       210.6475 
 1008   0.0000       7.753627       210.9869 
 1009   0.0000       7.775216       211.5744 
 1010   0.0000       7.781753       211.7523 
 1011   0.0000       7.793005       212.0584 
 1012   0.0000       7.803503       212.3441 
 1013   0.0000       7.810261       212.5280 
 1014   0.0000       7.819582       212.7816 
 1015   0.0000       7.828299       213.0188 
 1016   0.0000       7.848932       213.5803 
 1017   0.0000       7.856771       213.7936 
 1018   0.0000       7.858048       213.8284 
 1019   0.0000       7.873328       214.2442 
 1020   0.0000       7.898557       214.9306 
 1021   0.0000       7.899637       214.9601 
 1022   0.0000       7.914225       215.3570 
 1023   0.0000       7.935679       215.9408 
 1024   0.0000       7.939728       216.0510 
 1025   0.0000       7.944629       216.1843 
 1026   0.0000       7.954340       216.4486 
 1027   0.0000       7.976555       217.0531 
 1028   0.0000       7.980757       217.1674 
 1029   0.0000       7.995231       217.5613 
 1030   0.0000       8.012217       218.0235 
 1031   0.0000       8.020288       218.2431 
 1032   0.0000       8.024813       218.3663 
 1033   0.0000       8.044032       218.8893 
 1034   0.0000       8.054596       219.1767 
 1035   0.0000       8.069934       219.5941 
 1036   0.0000       8.086032       220.0321 
 1037   0.0000       8.095057       220.2777 
 1038   0.0000       8.105463       220.5609 
 1039   0.0000       8.119127       220.9327 
 1040   0.0000       8.135162       221.3690 
 1041   0.0000       8.145137       221.6405 
 1042   0.0000       8.152774       221.8482 
 1043   0.0000       8.169659       222.3077 
 1044   0.0000       8.186132       222.7560 
 1045   0.0000       8.188242       222.8134 
 1046   0.0000       8.223374       223.7694 
 1047   0.0000       8.235021       224.0863 
 1048   0.0000       8.240821       224.2441 
 1049   0.0000       8.264305       224.8832 
 1050   0.0000       8.266562       224.9446 
 1051   0.0000       8.290710       225.6017 
 1052   0.0000       8.296095       225.7482 
 1053   0.0000       8.308678       226.0906 
 1054   0.0000       8.327287       226.5970 
 1055   0.0000       8.340334       226.9520 
 1056   0.0000       8.354970       227.3503 
 1057   0.0000       8.382796       228.1075 
 1058   0.0000       8.390843       228.3265 
 1059   0.0000       8.392662       228.3759 
 1060   0.0000       8.404008       228.6847 
 1061   0.0000       8.419152       229.0968 
 1062   0.0000       8.428309       229.3459 
 1063   0.0000       8.442292       229.7265 
 1064   0.0000       8.459647       230.1987 
 1065   0.0000       8.463233       230.2963 
 1066   0.0000       8.491236       231.0583 
 1067   0.0000       8.509667       231.5598 
 1068   0.0000       8.537064       232.3053 
 1069   0.0000       8.546801       232.5703 
 1070   0.0000       8.562309       232.9923 
 1071   0.0000       8.573612       233.2998 
 1072   0.0000       8.591542       233.7877 
 1073   0.0000       8.603215       234.1054 
 1074   0.0000       8.612785       234.3658 
 1075   0.0000       8.621446       234.6015 
 1076   0.0000       8.634989       234.9700 
 1077   0.0000       8.640298       235.1145 
 1078   0.0000       8.666845       235.8368 
 1079   0.0000       8.668204       235.8738 
 1080   0.0000       8.699467       236.7245 
 1081   0.0000       8.709015       236.9843 
 1082   0.0000       8.717211       237.2074 
 1083   0.0000       8.727841       237.4966 
 1084   0.0000       8.741858       237.8781 
 1085   0.0000       8.748844       238.0682 
 1086   0.0000       8.755188       238.2408 
 1087   0.0000       8.771669       238.6892 
 1088   0.0000       8.785904       239.0766 
 1089   0.0000       8.797963       239.4047 
 1090   0.0000       8.804152       239.5732 
 1091   0.0000       8.819341       239.9865 
 1092   0.0000       8.825991       240.1674 
 1093   0.0000       8.842583       240.6189 
 1094   0.0000       8.848183       240.7713 
 1095   0.0000       8.856098       240.9867 
 1096   0.0000       8.867596       241.2996 
 1097   0.0000       8.878965       241.6089 
 1098   0.0000       8.885435       241.7850 
 1099   0.0000       8.889763       241.9028 
 1100   0.0000       8.908329       242.4079 
 1101   0.0000       8.923204       242.8127 
 1102   0.0000       8.940486       243.2830 
 1103   0.0000       8.952060       243.5979 
 1104   0.0000       8.971583       244.1292 
 1105   0.0000       8.983713       244.4593 
 1106   0.0000       8.992623       244.7017 
 1107   0.0000       9.006602       245.0821 
 1108   0.0000       9.018284       245.4000 
 1109   0.0000       9.039119       245.9669 
 1110   0.0000       9.041531       246.0326 
 1111   0.0000       9.053867       246.3682 
 1112   0.0000       9.059476       246.5209 
 1113   0.0000       9.070639       246.8246 
 1114   0.0000       9.100602       247.6400 
 1115   0.0000       9.112694       247.9690 
 1116   0.0000       9.135696       248.5949 
 1117   0.0000       9.158709       249.2211 
 1118   0.0000       9.175652       249.6822 
 1119   0.0000       9.193199       250.1597 
 1120   0.0000       9.197748       250.2835 
 1121   0.0000       9.216367       250.7901 
 1122   0.0000       9.243099       251.5175 
 1123   0.0000       9.253063       251.7886 
 1124   0.0000       9.266650       252.1584 
 1125   0.0000       9.290456       252.8062 
 1126   0.0000       9.294761       252.9233 
 1127   0.0000       9.322870       253.6882 
 1128   0.0000       9.340747       254.1746 
 1129   0.0000       9.368990       254.9432 
 1130   0.0000       9.384491       255.3650 
 1131   0.0000       9.390246       255.5216 
 1132   0.0000       9.429897       256.6006 
 1133   0.0000       9.436000       256.7666 
 1134   0.0000       9.460052       257.4211 
 1135   0.0000       9.473488       257.7867 
 1136   0.0000       9.483907       258.0702 
 1137   0.0000       9.508759       258.7465 
 1138   0.0000       9.522376       259.1170 
 1139   0.0000       9.535653       259.4783 
 1140   0.0000       9.540610       259.6132 
 1141   0.0000       9.548341       259.8236 
 1142   0.0000       9.596536       261.1350 
 1143   0.0000       9.604447       261.3503 
 1144   0.0000       9.614936       261.6357 
 1145   0.0000       9.625773       261.9306 
 1146   0.0000       9.650238       262.5963 
 1147   0.0000       9.655297       262.7340 
 1148   0.0000       9.664959       262.9969 
 1149   0.0000       9.674163       263.2473 
 1150   0.0000       9.681033       263.4343 
 1151   0.0000       9.684588       263.5310 
 1152   0.0000       9.711203       264.2553 
 1153   0.0000       9.716759       264.4065 
 1154   0.0000       9.746973       265.2286 
 1155   0.0000       9.769453       265.8403 
[...]
      px      :     0.684113
      py      :     0.746372
      dz2     :     0.053565  d :     0.454958
      dxz     :     0.073211
      dyz     :     0.064711
      dx2y2   :     0.154610
      dxy     :     0.108861
      f0      :     0.019816  f :     0.224239
      f+1     :     0.012168
      f-1     :     0.032961
      f+2     :     0.039464
      f-2     :     0.030834
      f+3     :     0.037220
      f-3     :     0.051776
      g0      :     0.005131  g :     0.073566
      g+1     :     0.003265
      g-1     :     0.006168
      g+2     :     0.003559
      g-2     :     0.006714
      g+3     :     0.009664
      g-3     :     0.015981
      g+4     :     0.013318
      g-4     :     0.009764
  7 C s       :     2.333214  s :     2.333214
      pz      :     0.636424  p :     1.897604
      px      :     0.621633
      py      :     0.639548
      dz2     :     0.160928  d :     0.712085
      dxz     :     0.132534
      dyz     :     0.083289
      dx2y2   :     0.160745
      dxy     :     0.174590
      f0      :     0.049199  f :     0.451093
      f+1     :     0.079249
      f-1     :     0.028693
      f+2     :     0.039864
      f-2     :     0.066417
      f+3     :     0.090098
      f-3     :     0.097571
      g0      :     0.007189  g :     0.115425
      g+1     :     0.014376
      g-1     :     0.008309
      g+2     :     0.010157
      g-2     :     0.009950
      g+3     :     0.010516
      g-3     :     0.011693
      g+4     :     0.015580
      g-4     :     0.027656
  8 C s       :     2.334342  s :     2.334342
      pz      :     0.634182  p :     1.900550
      px      :     0.630052
      py      :     0.636315
      dz2     :     0.176799  d :     0.707037
      dxz     :     0.113669
      dyz     :     0.088167
      dx2y2   :     0.119904
      dxy     :     0.208498
      f0      :     0.036336  f :     0.443993
      f+1     :     0.080697
      f-1     :     0.046405
      f+2     :     0.054058
      f-2     :     0.059351
      f+3     :     0.077790
      f-3     :     0.089354
      g0      :     0.010100  g :     0.113754
      g+1     :     0.011529
      g-1     :     0.006286
      g+2     :     0.009144
      g-2     :     0.012852
      g+3     :     0.012437
      g-3     :     0.019243
      g+4     :     0.020801
      g-4     :     0.011361
  9 H s       :     0.564719  s :     0.564719
      pz      :     0.127362  p :     0.284099
      px      :     0.075199
      py      :     0.081538
      dz2     :     0.062391  d :     0.276308
      dxz     :     0.092920
      dyz     :     0.080719
      dx2y2   :     0.021993
      dxy     :     0.018286
      f0      :     0.029170  f :     0.137111
      f+1     :     0.046995
      f-1     :     0.029551
      f+2     :     0.015725
      f-2     :     0.012771
      f+3     :     0.001626
      f-3     :     0.001272
 10 H s       :     0.639397  s :     0.639397
      pz      :     0.084654  p :     0.310451
      px      :     0.100200
      py      :     0.125597
      dz2     :     0.022878  d :     0.263103
      dxz     :     0.021411
      dyz     :     0.069668
      dx2y2   :     0.076283
      dxy     :     0.072863
      f0      :     0.014893  f :     0.122392
      f+1     :     0.004634
      f-1     :     0.011577
      f+2     :     0.012217
      f-2     :     0.014479
      f+3     :     0.016832
      f-3     :     0.047760
 11 H s       :     0.633132  s :     0.633132
      pz      :     0.094008  p :     0.319201
      px      :     0.139067
      py      :     0.086126
      dz2     :     0.049186  d :     0.272313
      dxz     :     0.062560
      dyz     :     0.024078
      dx2y2   :     0.046697
      dxy     :     0.089791
      f0      :     0.008392  f :     0.124287
      f+1     :     0.029249
      f-1     :     0.001215
      f+2     :     0.017440
      f-2     :     0.022726
      f+3     :     0.011650
      f-3     :     0.033614
 12 H s       :     0.570352  s :     0.570352
      pz      :     0.077245  p :     0.292322
      px      :     0.089995
      py      :     0.125082
      dz2     :     0.030472  d :     0.301021
      dxz     :     0.029282
      dyz     :     0.087034
      dx2y2   :     0.075325
      dxy     :     0.078908
      f0      :     0.015963  f :     0.144160
      f+1     :     0.006550
      f-1     :     0.014462
      f+2     :     0.021637
      f-2     :     0.017439
      f+3     :     0.024256
      f-3     :     0.043853
 13 H s       :     0.569835  s :     0.569835
      pz      :     0.127536  p :     0.281964
      px      :     0.077204
      py      :     0.077223
      dz2     :     0.065772  d :     0.273279
      dxz     :     0.085882
      dyz     :     0.080281
      dx2y2   :     0.010605
      dxy     :     0.030739
      f0      :     0.028797  f :     0.134137
      f+1     :     0.038504
      f-1     :     0.034454
      f+2     :     0.004387
      f-2     :     0.023425
      f+3     :     0.002033
      f-3     :     0.002536
 14 H s       :     0.577382  s :     0.577382
      pz      :     0.084538  p :     0.283042
      px      :     0.088543
      py      :     0.109960
      dz2     :     0.057766  d :     0.282688
      dxz     :     0.036422
      dyz     :     0.052105
      dx2y2   :     0.066546
      dxy     :     0.069848
      f0      :     0.006137  f :     0.136730
      f+1     :     0.014693
      f-1     :     0.030442
      f+2     :     0.011124
      f-2     :     0.018927
      f+3     :     0.018781
      f-3     :     0.036625
 15 H s       :     0.579279  s :     0.579279
      pz      :     0.074508  p :     0.282203
      px      :     0.100304
      py      :     0.107391
      dz2     :     0.025506  d :     0.279975
      dxz     :     0.051465
      dyz     :     0.058067
      dx2y2   :     0.087542
      dxy     :     0.057394
      f0      :     0.016783  f :     0.135775
      f+1     :     0.007493
      f-1     :     0.009667
      f+2     :     0.006763
      f-2     :     0.031323
      f+3     :     0.024726
      f-3     :     0.039022
 16 H s       :     0.568917  s :     0.568917
      pz      :     0.124035  p :     0.281528
      px      :     0.079432
      py      :     0.078062
      dz2     :     0.061565  d :     0.273760
      dxz     :     0.086441
      dyz     :     0.080925
      dx2y2   :     0.008139
      dxy     :     0.036690
      f0      :     0.030360  f :     0.134946
      f+1     :     0.036566
      f-1     :     0.031649
      f+2     :     0.005655
      f-2     :     0.027121
      f+3     :     0.001983
      f-3     :     0.001613
 17 H s       :     0.642221  s :     0.642221
      pz      :     0.085206  p :     0.310809
      px      :     0.079979
      py      :     0.145623
      dz2     :     0.029147  d :     0.262023
      dxz     :     0.019007
      dyz     :     0.054703
      dx2y2   :     0.078899
      dxy     :     0.080267
      f0      :     0.012447  f :     0.121856
      f+1     :     0.006577
      f-1     :     0.012593
      f+2     :     0.004769
      f-2     :     0.013559
      f+3     :     0.026723
      f-3     :     0.045188
 18 H s       :     0.633665  s :     0.633665
      pz      :     0.085417  p :     0.321294
      px      :     0.098269
      py      :     0.137608
      dz2     :     0.029696  d :     0.272879
      dxz     :     0.043743
      dyz     :     0.035164
      dx2y2   :     0.106896
      dxy     :     0.057379
      f0      :     0.012949  f :     0.124363
      f+1     :     0.009272
      f-1     :     0.010037
      f+2     :     0.001185
      f-2     :     0.018569
      f+3     :     0.025670
      f-3     :     0.046681
 19 H s       :     0.645021  s :     0.645021
      pz      :     0.099909  p :     0.314878
      px      :     0.094039
      py      :     0.120929
      dz2     :     0.037673  d :     0.263961
      dxz     :     0.045005
      dyz     :     0.046025
      dx2y2   :     0.084434
      dxy     :     0.050824
      f0      :     0.008512  f :     0.122104
      f+1     :     0.014911
      f-1     :     0.009591
      f+2     :     0.023598
      f-2     :     0.014434
      f+3     :     0.018571
      f-3     :     0.032487
 20 H s       :     0.644860  s :     0.644860
      pz      :     0.097769  p :     0.314601
      px      :     0.080687
      py      :     0.136145
      dz2     :     0.033340  d :     0.263919
      dxz     :     0.029841
      dyz     :     0.061736
      dx2y2   :     0.071618
      dxy     :     0.067384
      f0      :     0.009310  f :     0.122083
      f+1     :     0.007423
      f-1     :     0.015510
      f+2     :     0.017746
      f-2     :     0.017566
      f+3     :     0.019332
      f-3     :     0.035196


                      *****************************
                      * MAYER POPULATION ANALYSIS *
                      *****************************

  NA   - Mulliken gross atomic population
  ZA   - Total nuclear charge
  QA   - Mulliken gross atomic charge
  VA   - Mayer's total valence
  BVA  - Mayer's bonded valence
  FA   - Mayer's free valence

  ATOM       NA         ZA         QA         VA         BVA        FA
  0 C      6.2023     6.0000    -0.2023     3.3179     3.3179    -0.0000
  1 C      5.8857     6.0000     0.1143     2.2867     2.2867    -0.0000
  2 C      6.9648     6.0000    -0.9648     3.3541     3.3541     0.0000
  3 C      6.8881     6.0000    -0.8881     3.3207     3.3207     0.0000
  4 C      5.8553     6.0000     0.1447     2.0726     2.0726    -0.0000
  5 C      5.6644     6.0000     0.3356     1.9736     1.9736    -0.0000
  6 C      6.9634     6.0000    -0.9634     3.5386     3.5386    -0.0000
  7 C      6.2779     6.0000    -0.2779     3.3762     3.3762    -0.0000
  8 C      6.3395     6.0000    -0.3395     3.5039     3.5039     0.0000
  9 H      0.7348     1.0000     0.2652     1.0256     1.0256    -0.0000
 10 H      0.7189     1.0000     0.2811     0.9411     0.9411    -0.0000
 11 H      0.7205     1.0000     0.2795     0.9696     0.9696    -0.0000
 12 H      0.7757     1.0000     0.2243     0.9349     0.9349     0.0000
 13 H      0.8140     1.0000     0.1860     1.0900     1.0900    -0.0000
 14 H      0.7248     1.0000     0.2752     0.8976     0.8976    -0.0000
 15 H      0.7443     1.0000     0.2557     0.9497     0.9497     0.0000
 16 H      0.7589     1.0000     0.2411     0.9955     0.9955     0.0000
 17 H      0.7756     1.0000     0.2244     1.0041     1.0041     0.0000
 18 H      0.6842     1.0000     0.3158     0.9264     0.9264     0.0000
 19 H      0.7477     1.0000     0.2523     0.9855     0.9855     0.0000
 20 H      0.7592     1.0000     0.2408     1.0059     1.0059    -0.0000

  Mayer bond orders larger than 0.100000
B(  0-C ,  1-C ) :   0.7660 B(  0-C ,  2-C ) :  -0.1570 B(  0-C ,  5-C ) :   0.8422 
B(  0-C ,  9-H ) :   0.8745 B(  0-C , 12-H ) :   1.0426 B(  1-C ,  2-C ) :   1.4479 
B(  1-C ,  5-C ) :  -0.2532 B(  1-C ,  8-C ) :   0.6846 B(  1-C , 19-H ) :  -0.1523 
B(  1-C , 20-H ) :  -0.1243 B(  2-C ,  8-C ) :  -0.1874 B(  2-C , 19-H ) :   1.1060 
B(  2-C , 20-H ) :   1.1199 B(  3-C ,  4-C ) :   1.5320 B(  3-C ,  5-C ) :  -0.3656 
B(  3-C ,  7-C ) :  -0.1005 B(  3-C , 17-H ) :   1.1400 B(  3-C , 18-H ) :   1.0253 
B(  4-C ,  5-C ) :   0.5227 B(  4-C ,  6-C ) :  -0.1811 B(  4-C ,  7-C ) :   0.5648 
B(  4-C , 17-H ) :  -0.1417 B(  4-C , 18-H ) :  -0.1184 B(  5-C ,  6-C ) :   1.5671 
B(  5-C , 11-H ) :  -0.1177 B(  6-C , 10-H ) :   1.0306 B(  6-C , 11-H ) :   1.0657 
B(  7-C ,  8-C ) :   1.1799 B(  7-C , 13-H ) :   0.9345 B(  7-C , 14-H ) :   1.0095 
B(  8-C , 15-H ) :   0.9865 B(  8-C , 16-H ) :   0.8874 

-------
TIMINGS
-------

Total SCF time: 0 days 0 hours 53 min 20 sec 

Total time                  ....    3200.781 sec
Sum of individual times     ....    3196.650 sec  ( 99.9%)

Fock matrix formation       ....    3189.849 sec  ( 99.7%)
Diagonalization             ....       1.556 sec  (  0.0%)
Density matrix formation    ....       0.287 sec  (  0.0%)
Population analysis         ....       0.508 sec  (  0.0%)
Initial guess               ....       0.772 sec  (  0.0%)
Orbital Transformation      ....       0.000 sec  (  0.0%)
Orbital Orthonormalization  ....       0.000 sec  (  0.0%)
DIIS solution               ....       1.743 sec  (  0.1%)
SOSCF solution              ....       1.838 sec  (  0.1%)


           ************************************************************
           *        Program running with 32 parallel MPI-processes    *
           *              working on a common directory               *
           ************************************************************

------------------------------------------------------------------------------
                                ORCA  MP2 
------------------------------------------------------------------------------

Freezing NCore=18 chemical core electrons

-------------
RI-MP2 ENERGY
-------------
Dimension of the basis                    ... 1272
Memory devoted to MP2                     ... 4500 MB   
Data format for buffers                   ... DOUBLE
Compression type for matrix containers    ... UNCOMPRESSED
Overall scaling of the MP2 energy         ...   1.000e+00
Calculating two index integrals           ... done (    0.101 sec)
Cholesky decomposition of V**-1           ... done (    0.499 sec)

-----------------
RI-TRANSFORMATION (AUX index driven)
-----------------

Dimension of the orbital-basis         ... 1272
Dimension of the aux-basis             ... 2472
Transformation of internal/external MOs...    9-  32 to   33-1271
Number Format for Storage              ... Double (8 Byte)
Integral mode                          ... Direct

First Phase: integral generation and transformation of MO indices
  Aux angular momentum 0               ... done (    0.215 sec)
  Aux angular momentum 1               ... done (    0.542 sec)
  Aux angular momentum 2               ... done (    0.796 sec)
  Aux angular momentum 3               ... done (    0.826 sec)
  Aux angular momentum 4               ... done (    0.756 sec)
  Aux angular momentum 5               ... done (    0.524 sec)
Closing buffer VIA ( 0.55 GB; CompressionRatio= 1.00)
  Phase 1 completed in     3.852 sec
Second Phase: sorting and transformation of aux index

IA-Transformation
Memory available                       ... 4323 MB 
Max. # MO pairs treated in a batch     ... 1    
# of internal orbitals                 ... 24
# batches for internal orbitals        ... 1
Closing buffer IAV ( 0.02 GB; CompressionRatio= 1.00)
(ia|v) transformation done in     0.730 sec

  Phase 2 completed in     1.493 sec
RI-Integral transformation completed in     5.358 sec
Opening buffers                              ... done

Starting loop over batches of integrals:

Operator 0  - window                       ... (  9- 32)x( 33-1271)
Operator 0  - Memory available             ...  4500 MB
Operator 0  - Memory needed per MO         ...  23.4 MB
Operator 0  - Number of orbitals per batch ... 1
Operator 0  - Number of batches            ... 1

OPERATOR  0   PASS   0:  MOs     9 ...    9 +   10 ...   10 +   11 ...   11 +   12 ...   12
                            +   13 ...   13 +   14 ...   14 +   15 ...   15 +   16 ...   16
                            +   17 ...   17 +   18 ...   18 +   19 ...   19 +   20 ...   20
                            +   21 ...   21 +   22 ...   22 +   23 ...   23 +   24 ...   24
                            +   25 ...   25 +   26 ...   26 +   27 ...   27 +   28 ...   28
                            +   29 ...   29 +   30 ...   30 +   31 ...   31 +   32 ...   32
  Reading integrals       ... ok
Time spent in pair loops =     0.235 sec
Deleting buffer (Ka|jb)[aa] ...done

-----------------------------------------------
 RI-MP2 CORRELATION ENERGY:     -1.572509960 Eh
-----------------------------------------------


-------
TIMINGS
-------

Total time                :   10.132 sec
Integral trafo            :    5.374 sec ( 53.0%)
I/O of integrals          :    0.025 sec (  0.3%)
K(i,j) Operators          :    0.143 sec (  1.4%)
T(i,j) pair energies      :    0.034 sec (  0.3%)
V-calculation             :    0.101 sec (  1.0%)
V**(-1/2)                 :    0.499 sec (  4.9%)
Gamma(ia|P)               :    0.000 sec (  0.0%)
Gamma-Trafo               :    0.000 sec (  0.0%)
D(virtual)                :    0.000 sec (  0.0%)
D(internal)               :    0.000 sec (  0.0%)
W(virtual)                :    0.000 sec (  0.0%)
W(internal)               :    0.000 sec (  0.0%)
L(virtual)                :    0.000 sec (  0.0%)
L(internal)               :    0.000 sec (  0.0%)
G(D)                      :    0.000 sec (  0.0%)
G(Z)                      :    0.000 sec (  0.0%)
Z-Vector Solution         :    0.000 sec (  0.0%)
3-Index Derivative        :    0.000 sec (  0.0%)
2-Index Derivative        :    0.000 sec (  0.0%)
Separable Gradient        :    0.000 sec (  0.0%)


---------------------------------------
MP2 TOTAL ENERGY:     -349.454457012 Eh
---------------------------------------

-------------------------   --------------------
FINAL SINGLE POINT ENERGY      -349.454457011876
-------------------------   --------------------


                            ***************************************
                            *     ORCA property calculations      *
                            ***************************************


  WARNING: The energy has been calculated at the MP2 level but the densities
           used in the property calculations are still SCF densities
           MP2 response densities have not been calculated 
           use %mp2 Density relaxed end
           or  %mp2 Density unrelaxed end

                                    ---------------------
                                    Active property flags
                                    ---------------------
   (+) Dipole Moment


------------------------------------------------------------------------------
                       ORCA ELECTRIC PROPERTIES CALCULATION
------------------------------------------------------------------------------

Dipole Moment Calculation                       ... on
Quadrupole Moment Calculation                   ... off
Polarizability Calculation                      ... off
GBWName                                         ... /tmp/pbs.2143444.pbsha.ib.sockeye/MP2augccpVQZ_10_62P.gbw
Electron density file                           ... /tmp/pbs.2143444.pbsha.ib.sockeye/MP2augccpVQZ_10_62P.scfp
The origin for moment calculation is the CENTER OF MASS  = ( 0.010973,  0.011996  0.003279)

-------------
DIPOLE MOMENT
-------------
                                X             Y             Z
Electronic contribution:      0.73146       0.63461       0.26016
Nuclear contribution   :     -0.72422      -0.79174      -0.21640
                        -----------------------------------------
Total Dipole Moment    :      0.00724      -0.15713       0.04376
                        -----------------------------------------
Magnitude (a.u.)       :      0.16327
Magnitude (Debye)      :      0.41499



--------------------
Rotational spectrum 
--------------------
 
Rotational constants in cm-1:     0.092428     0.046582     0.033873 
Rotational constants in MHz :  2770.921625  1396.496198  1015.501121 

 Dipole components along the rotational axes: 
x,y,z [a.u.] :    -0.006870    -0.157310     0.043156 
x,y,z [Debye]:    -0.017461    -0.399851     0.109693 

 

Timings for individual modules:

Sum of individual times         ...     3219.314 sec (=  53.655 min)
GTO integral calculation        ...        4.419 sec (=   0.074 min)   0.1 %
SCF iterations                  ...     3202.354 sec (=  53.373 min)  99.5 %
MP2 module                      ...       12.542 sec (=   0.209 min)   0.4 %
                             ****ORCA TERMINATED NORMALLY****
TOTAL RUN TIME: 0 days 0 hours 53 minutes 41 seconds 330 msec
