
                                 *****************
                                 * O   R   C   A *
                                 *****************

           --- An Ab Initio, DFT and Semiempirical electronic structure package ---

                  #######################################################
                  #                        -***-                        #
                  #          Department of theory and spectroscopy      #
                  #               Directorship: Frank Neese             #
                  #        Max Planck Institute fuer Kohlenforschung    #
                  #                Kaiser Wilhelm Platz 1               #
                  #                 D-45470 Muelheim/Ruhr               #
                  #                      Germany                        #
                  #                                                     #
                  #                  All rights reserved                #
                  #                        -***-                        #
                  #######################################################


                         Program Version 4.2.1 -  RELEASE  -


 With contributions from (in alphabetic order):
   Daniel Aravena         : Magnetic Suceptibility
   Michael Atanasov       : Ab Initio Ligand Field Theory (pilot matlab implementation)
   Alexander A. Auer      : GIAO ZORA, VPT2
   Ute Becker             : Parallelization
   Giovanni Bistoni       : ED, misc. LED, open-shell LED, HFLD
   Martin Brehm           : Molecular dynamics
   Dmytro Bykov           : SCF Hessian
   Vijay G. Chilkuri      : MRCI spin determinant printing, contributions to CSF-ICE
   Dipayan Datta          : RHF DLPNO-CCSD density
   Achintya Kumar Dutta   : EOM-CC, STEOM-CC
   Dmitry Ganyushin       : Spin-Orbit,Spin-Spin,Magnetic field MRCI
   Miquel Garcia          : C-PCM Hessian, Gaussian charge scheme
   Yang Guo               : DLPNO-NEVPT2, CIM, IAO-localization
   Andreas Hansen         : Spin unrestricted coupled pair/coupled cluster methods
   Benjamin Helmich-Paris : CASSCF linear response (MC-RPA)
   Lee Huntington         : MR-EOM, pCC
   Robert Izsak           : Overlap fitted RIJCOSX, COSX-SCS-MP3, EOM
   Christian Kollmar      : KDIIS, OOCD, Brueckner-CCSD(T), CCSD density
   Simone Kossmann        : Meta GGA functionals, TD-DFT gradient, OOMP2, MP2 Hessian
   Martin Krupicka        : AUTO-CI
   Lucas Lang             : DCDCAS
   Dagmar Lenk            : GEPOL surface, SMD
   Dimitrios Liakos       : Extrapolation schemes; Compound Job, initial MDCI parallelization
   Dimitrios Manganas     : Further ROCIS development; embedding schemes
   Dimitrios Pantazis     : SARC Basis sets
   Taras Petrenko         : DFT Hessian,TD-DFT gradient, ASA, ECA, R-Raman, ABS, FL, XAS/XES, NRVS
   Peter Pinski           : DLPNO-MP2, DLPNO-MP2 Gradient
   Christoph Reimann      : Effective Core Potentials
   Marius Retegan         : Local ZFS, SOC
   Christoph Riplinger    : Optimizer, TS searches, QM/MM, DLPNO-CCSD(T), (RO)-DLPNO pert. Triples
   Tobias Risthaus        : Range-separated hybrids, TD-DFT gradient, RPA, STAB
   Michael Roemelt        : Original ROCIS implementation
   Masaaki Saitow         : Open-shell DLPNO-CCSD energy and density
   Barbara Sandhoefer     : DKH picture change effects
   Avijit Sen             : IP-ROCIS
   Kantharuban Sivalingam : CASSCF convergence, NEVPT2, FIC-MRCI
   Bernardo de Souza      : ESD, SOC TD-DFT
   Georgi Stoychev        : AutoAux, RI-MP2 NMR
   Willem Van den Heuvel  : Paramagnetic NMR
   Boris Wezisla          : Elementary symmetry handling
   Frank Wennmohs         : Technical directorship


 We gratefully acknowledge several colleagues who have allowed us to
 interface, adapt or use parts of their codes:
   Stefan Grimme, W. Hujo, H. Kruse,             : VdW corrections, initial TS optimization,
                  C. Bannwarth                     DFT functionals, gCP, sTDA/sTD-DF
   Ed Valeev, F. Pavosevic, A. Kumar             : LibInt (2-el integral package), F12 methods
   Garnet Chan, S. Sharma, J. Yang, R. Olivares  : DMRG
   Ulf Ekstrom                                   : XCFun DFT Library
   Mihaly Kallay                                 : mrcc  (arbitrary order and MRCC methods)
   Andreas Klamt, Michael Diedenhofen            : otool_cosmo (COSMO solvation model)
   Jiri Pittner, Ondrej Demel                    : Mk-CCSD
   Frank Weinhold                                : gennbo (NPA and NBO analysis)
   Christopher J. Cramer and Donald G. Truhlar   : smd solvation model
   Lars Goerigk                                  : TD-DFT with DH, B97 family of functionals
   V. Asgeirsson, H. Jonsson                     : NEB implementation
   FAccTs GmbH                                   : IRC, NEB, NEB-TS, Multilevel, MM, QM/MM, CI optimization
   S Lehtola, MJT Oliveira, MAL Marques          : LibXC Library


 Your calculation uses the libint2 library for the computation of 2-el integrals
 For citations please refer to: http://libint.valeyev.net

 Your ORCA version has been built with support for libXC version: 4.2.3
 For citations please refer to: https://tddft.org/programs/libxc/

 This ORCA versions uses:
   CBLAS   interface :  Fast vector & matrix operations
   LAPACKE interface :  Fast linear algebra routines
   SCALAPACK package :  Parallel linear algebra routines




***************************************
The coordinates will be read from file: 01_7R.xyz
***************************************


----- Orbital basis set information -----
Your calculation utilizes the basis: aug-cc-pVQZ 
    H, B-Ne : Obtained from the ccRepo (grant-hill.group.shef.ac.uk/ccrepo) Feb. 2017
              R. A. Kendall, T. H. Dunning, Jr., R. J. Harrison, J. Chem. Phys. 96, 6796 (1992)
         He : Obtained from the ccRepo (grant-hill.group.shef.ac.uk/ccrepo) Feb. 2017
              D. E. Woon, T. H. Dunning, Jr., J. Chem. Phys. 100, 2975 (1994)
  Li-Be, Na : Obtained from the ccRepo (grant-hill.group.shef.ac.uk/ccrepo) Feb. 2017
              B. P. Prascher, D. E. Woon, K. A. Peterson, T. H. Dunning, Jr., A. K. Wilson, Theor. Chem. Acc. 128, 69 (2011)
         Mg : Obtained from the Peterson Research Group Website (tyr0.chem.wsu.edu/~kipeters) Feb. 2017
              B. P. Prascher, D. E. Woon, K. A. Peterson, T. H. Dunning, Jr., A. K. Wilson, Theor. Chem. Acc. 128, 69 (2011)
      Al-Ar : Obtained from the ccRepo (grant-hill.group.shef.ac.uk/ccrepo) Feb. 2017
              D. E. Woon, T. H. Dunning, Jr., J. Chem. Phys. 98, 1358 (1993)
      Sc-Zn : Obtained from the ccRepo (grant-hill.group.shef.ac.uk/ccrepo) Feb. 2017
              N. B. Balabanov, K. A. Peterson, J. Chem. Phys. 123, 064107 (2005)
              N. B. Balabanov, K. A. Peterson, J. Chem. Phys. 125, 074110 (2006)
      Ga-Kr : Obtained from the ccRepo (grant-hill.group.shef.ac.uk/ccrepo) Feb. 2017
              A. K. Wilson, D. E. Woon, K. A. Peterson, T. H. Dunning, Jr., J. Chem. Phys. 110, 7667 (1999)

----- AuxC basis set information -----
Your calculation utilizes the auxiliary basis: aug-cc-pVQZ/C 
  H-He, B-F, Al-Ar, Ga-Kr : Obtained from the EMSL Basis Set Exchange (bse.pnl.gov) Feb. 2017
                            F. Weigend, A. Kohn, C. Hattig, J. Chem. Phys. 116, 3175 (2002)
                   Be, Mg : Obtained from the TURBOMOLE 7.0 basis set library
                            C. Haettig, Phys. Chem. Chem. Phys. 7, 59 (2005)
                       Ne : Obtained from the EMSL Basis Set Exchange (bse.pnl.gov) Feb. 2017
                            C. Haettig, Phys. Chem. Chem. Phys. 7, 59 (2005)
                            F. Weigend, A. Kohn, C. Hattig, J. Chem. Phys. 116, 3175 (2002)
                    Sc-Zn : Obtained from the EMSL Basis Set Exchange (bse.pnl.gov) Feb. 2017
                            D. H. Bross, J. G. Hill, H. J. Werner, K. A. Peterson, J. Chem. Phys. 139, 094302 (2013)

================================================================================
                                        WARNINGS
                       Please study these warnings very carefully!
================================================================================


WARNING: your system is open-shell and RHF/RKS was chosen
  ===> : WILL SWITCH to UHF/UKS


WARNING: No MP2 level density has been requested!
         To caclulate MP2 level properties use
         %mp2 Density relaxed end
         or
         %mp2 Density unrelaxed end

WARNING: Post HF methods need fully converged wavefunctions
  ===> : Setting SCFConvForced true
         You can overwrite this default with %scf ConvForced false 


INFO   : the flag for use of LIBINT has been found!

================================================================================
                                       INPUT FILE
================================================================================
NAME = /tmp/pbs.2143093.pbsha.ib.sockeye/MP2augccpVQZ_01_7R.inp
|  1> %pal
|  2>  nprocs 32
|  3> end
|  4> !RI-MP2 aug-cc-pVQZ aug-cc-pVQZ/C TightSCF
|  5> %maxcore 4500
|  6> *xyzfile 0 2  01_7R.xyz
|  7> 
|  8> 
|  9>                          ****END OF INPUT****
================================================================================

                       ****************************
                       * Single Point Calculation *
                       ****************************

---------------------------------
CARTESIAN COORDINATES (ANGSTROEM)
---------------------------------
  C     -3.038518   -0.418864   -0.141486
  C     -1.838551    0.453372   -0.073128
  C     -0.533231   -0.312652    0.131958
  C      0.694385    0.599452    0.158030
  C      1.966116   -0.150488    0.408753
  C      2.997348   -0.203820   -0.421790
  H     -4.031750   -0.012478   -0.000957
  H     -2.953014   -1.453504   -0.450861
  H     -1.961561    1.195916    0.724953
  H     -1.756315    1.046263   -0.999413
  H     -0.415044   -1.051456   -0.667262
  H     -0.590052   -0.877584    1.068232
  H      0.558201    1.350266    0.945920
  H      0.770653    1.146124   -0.787047
  H      3.888982   -0.772145   -0.186050
  H      2.987013    0.323738   -1.370304
  H      2.017592   -0.697137    1.348769

----------------------------
CARTESIAN COORDINATES (A.U.)
----------------------------
  NO LB      ZA    FRAG     MASS         X           Y           Z
   0 C     6.0000    0    12.011   -5.741967   -0.791538   -0.267370
   1 C     6.0000    0    12.011   -3.474358    0.856749   -0.138192
   2 C     6.0000    0    12.011   -1.007661   -0.590827    0.249364
   3 C     6.0000    0    12.011    1.312197    1.132800    0.298633
   4 C     6.0000    0    12.011    3.715421   -0.284381    0.772431
   5 C     6.0000    0    12.011    5.664167   -0.385164   -0.797068
   6 H     1.0000    0     1.008   -7.618903   -0.023580   -0.001808
   7 H     1.0000    0     1.008   -5.580388   -2.746724   -0.852004
   8 H     1.0000    0     1.008   -3.706813    2.259954    1.369963
   9 H     1.0000    0     1.008   -3.318954    1.977151   -1.888617
  10 H     1.0000    0     1.008   -0.784319   -1.986964   -1.260942
  11 H     1.0000    0     1.008   -1.115037   -1.658393    2.018666
  12 H     1.0000    0     1.008    1.054847    2.551633    1.787530
  13 H     1.0000    0     1.008    1.456323    2.165860   -1.487303
  14 H     1.0000    0     1.008    7.349111   -1.459143   -0.351584
  15 H     1.0000    0     1.008    5.644637    0.611776   -2.589499
  16 H     1.0000    0     1.008    3.812696   -1.317398    2.548804

--------------------------------
INTERNAL COORDINATES (ANGSTROEM)
--------------------------------
 C      0   0   0     0.000000000000     0.00000000     0.00000000
 C      1   0   0     1.485055304340     0.00000000     0.00000000
 C      2   1   0     1.527322277181   113.71449529     0.00000000
 C      3   2   1     1.529592919523   112.90056051   178.29316481
 C      4   3   2     1.497521873860   112.69335624   177.92397859
 C      5   4   3     1.325173730081   125.17501651   119.17570506
 H      1   2   3     1.082315936620   120.99811397   162.39805268
 H      1   2   3     1.083283782875   120.68623260   334.96411244
 H      2   1   3     1.097012458725   109.90375293   236.54759007
 H      2   1   3     1.102853752227   109.71516708   121.81379228
 H      3   2   1     1.094784054408   109.43276991    56.50030943
 H      3   2   1     1.094982097452   109.22195310   300.44082754
 H      4   3   2     1.096831070198   108.71033477    56.79523904
 H      4   3   2     1.094457682753   109.81953131   300.42412169
 H      6   5   4     1.083317978795   121.68312555   180.52170813
 H      6   5   4     1.085404562265   121.38106152     0.67985519
 H      5   4   3     1.088625274386   115.86130333   299.99625333

---------------------------
INTERNAL COORDINATES (A.U.)
---------------------------
 C      0   0   0     0.000000000000     0.00000000     0.00000000
 C      1   0   0     2.806347818930     0.00000000     0.00000000
 C      2   1   0     2.886220822108   113.71449529     0.00000000
 C      3   2   1     2.890511714284   112.90056051   178.29316481
 C      4   3   2     2.829906221152   112.69335624   177.92397859
 C      5   4   3     2.504215429720   125.17501651   119.17570506
 H      1   2   3     2.045280710590   120.99811397   162.39805268
 H      1   2   3     2.047109674953   120.68623260   334.96411244
 H      2   1   3     2.073053112489   109.90375293   236.54759007
 H      2   1   3     2.084091557477   109.71516708   121.81379228
 H      3   2   1     2.068842038614   109.43276991    56.50030943
 H      3   2   1     2.069216285731   109.22195310   300.44082754
 H      4   3   2     2.072710337850   108.71033477    56.79523904
 H      4   3   2     2.068225285569   109.81953131   300.42412169
 H      6   5   4     2.047174295876   121.68312555   180.52170813
 H      6   5   4     2.051117367189   121.38106152     0.67985519
 H      5   4   3     2.057203631055   115.86130333   299.99625333

---------------------
BASIS SET INFORMATION
---------------------
There are 2 groups of distinct atoms

 Group   1 Type C   : 22s7p4d3f2g contracted to 6s5p4d3f2g pattern {991111/31111/1111/111/11}
 Group   2 Type H   : 7s4p3d2f contracted to 5s4p3d2f pattern {31111/1111/111/11}

Atom   0C    basis set group =>   1
Atom   1C    basis set group =>   1
Atom   2C    basis set group =>   1
Atom   3C    basis set group =>   1
Atom   4C    basis set group =>   1
Atom   5C    basis set group =>   1
Atom   6H    basis set group =>   2
Atom   7H    basis set group =>   2
Atom   8H    basis set group =>   2
Atom   9H    basis set group =>   2
Atom  10H    basis set group =>   2
Atom  11H    basis set group =>   2
Atom  12H    basis set group =>   2
Atom  13H    basis set group =>   2
Atom  14H    basis set group =>   2
Atom  15H    basis set group =>   2
Atom  16H    basis set group =>   2
---------------------------------
AUXILIARY/C BASIS SET INFORMATION
---------------------------------
There are 2 groups of distinct atoms

 Group   1 Type C   : 9s8p7d6f4g2h contracted to 9s8p7d6f4g2h pattern {111111111/11111111/1111111/111111/1111/11}
 Group   2 Type H   : 6s5p4d3f2g contracted to 6s5p4d3f2g pattern {111111/11111/1111/111/11}

Atom   0C    basis set group =>   1
Atom   1C    basis set group =>   1
Atom   2C    basis set group =>   1
Atom   3C    basis set group =>   1
Atom   4C    basis set group =>   1
Atom   5C    basis set group =>   1
Atom   6H    basis set group =>   2
Atom   7H    basis set group =>   2
Atom   8H    basis set group =>   2
Atom   9H    basis set group =>   2
Atom  10H    basis set group =>   2
Atom  11H    basis set group =>   2
Atom  12H    basis set group =>   2
Atom  13H    basis set group =>   2
Atom  14H    basis set group =>   2
Atom  15H    basis set group =>   2
Atom  16H    basis set group =>   2


           ************************************************************
           *        Program running with 32 parallel MPI-processes    *
           *              working on a common directory               *
           ************************************************************
------------------------------------------------------------------------------
                           ORCA GTO INTEGRAL CALCULATION
------------------------------------------------------------------------------

                         BASIS SET STATISTICS AND STARTUP INFO

 # of primitive gaussian shells          ...  404
 # of primitive gaussian functions       ... 1140
 # of contracted shells                  ...  274
 # of contracted basis functions         ...  986
 Highest angular momentum                ...    4
 Maximum contraction depth               ...    9
 Integral package used                   ... LIBINT
 Integral threshhold            Thresh   ...  2.500e-11
 Primitive cut-off              TCut     ...  2.500e-12


------------------------------ INTEGRAL EVALUATION ----------------------------


 * One electron integrals 
 Pre-screening matrix                    ... done
 Shell pair data                         ... done (   0.011 sec)



           ************************************************************
           *        Program running with 32 parallel MPI-processes    *
           *              working on a common directory               *
           ************************************************************
-------------------------------------------------------------------------------
                                 ORCA SCF
-------------------------------------------------------------------------------

------------
SCF SETTINGS
------------
Hamiltonian:
 Ab initio Hamiltonian  Method          .... Hartree-Fock(GTOs)


General Settings:
 Integral files         IntName         .... /tmp/pbs.2143093.pbsha.ib.sockeye/MP2augccpVQZ_01_7R
 Hartree-Fock type      HFTyp           .... UHF
 Total Charge           Charge          ....    0
 Multiplicity           Mult            ....    2
 Number of Electrons    NEL             ....   47
 Basis Dimension        Dim             ....  986
 Nuclear Repulsion      ENuc            ....    219.7957887345 Eh

Convergence Acceleration:
 DIIS                   CNVDIIS         .... on
   Start iteration      DIISMaxIt       ....    12
   Startup error        DIISStart       ....  0.200000
   # of expansion vecs  DIISMaxEq       ....     5
   Bias factor          DIISBfac        ....   1.050
   Max. coefficient     DIISMaxC        ....  10.000
 Newton-Raphson         CNVNR           .... off
 SOSCF                  CNVSOSCF        .... off
 Level Shifting         CNVShift        .... on
   Level shift para.    LevelShift      ....    0.2500
   Turn off err/grad.   ShiftErr        ....    0.0010
 Zerner damping         CNVZerner       .... off
 Static damping         CNVDamp         .... on
   Fraction old density DampFac         ....    0.7000
   Max. Damping (<1)    DampMax         ....    0.9800
   Min. Damping (>=0)   DampMin         ....    0.0000
   Turn off err/grad.   DampErr         ....    0.1000
 Fernandez-Rico         CNVRico         .... off

SCF Procedure:
 Maximum # iterations   MaxIter         ....   125
 SCF integral mode      SCFMode         .... Direct
   Integral package                     .... LIBINT
 Reset frequency        DirectResetFreq ....    20
 Integral Threshold     Thresh          ....  2.500e-11 Eh
 Primitive CutOff       TCut            ....  2.500e-12 Eh

Convergence Tolerance:
 Convergence Check Mode ConvCheckMode   .... Total+1el-Energy
 Convergence forced     ConvForced      .... 1
 Energy Change          TolE            ....  1.000e-08 Eh
 1-El. energy change                    ....  1.000e-05 Eh
 DIIS Error             TolErr          ....  5.000e-07


Diagonalization of the overlap matrix:
Smallest eigenvalue                        ... 7.266e-07
Time for diagonalization                   ...    0.694 sec
Threshold for overlap eigenvalues          ... 1.000e-08
Number of eigenvalues below threshold      ... 0
Time for construction of square roots      ...    0.204 sec
Total time needed                          ...    0.901 sec

-------------------
DFT GRID GENERATION
-------------------

General Integration Accuracy     IntAcc      ...  4.340
Radial Grid Type                 RadialGrid  ... Gauss-Chebyshev
Angular Grid (max. acc.)         AngularGrid ... Lebedev-110
Angular grid pruning method      GridPruning ... 3 (G Style)
Weight generation scheme         WeightScheme... Becke
Basis function cutoff            BFCut       ...    1.0000e-11
Integration weight cutoff        WCut        ...    1.0000e-14
Grids for H and He will be reduced by one unit

# of grid points (after initial pruning)     ...  18670 (   0.0 sec)
# of grid points (after weights+screening)   ...  17350 (   0.0 sec)
nearest neighbour list constructed           ...    0.0 sec
Grid point re-assignment to atoms done       ...    0.0 sec
Grid point division into batches done        ...    0.0 sec
Reduced shell lists constructed in    0.0 sec

Total number of grid points                  ...    17350
Total number of batches                      ...      281
Average number of points per batch           ...       61
Average number of grid points per atom       ...     1021
Average number of shells per batch           ...   176.30 (64.34%)
Average number of basis functions per batch  ...   627.30 (63.62%)
Average number of large shells per batch     ...   147.00 (83.38%)
Average number of large basis fcns per batch ...   514.60 (82.03%)
Maximum spatial batch extension              ...   2.78,  3.08,  2.88 au
Average spatial batch extension              ...   0.06,  0.06,  0.07 au

Time for grid setup =    0.088 sec

------------------------------
INITIAL GUESS: MODEL POTENTIAL
------------------------------
Loading Hartree-Fock densities                     ... done
Calculating cut-offs                               ... done
Setting up the integral package                    ... done
Initializing the effective Hamiltonian             ... done
Starting the Coulomb interaction                   ... done (   0.1 sec)
Reading the grid                                   ... done
Mapping shells                                     ... done
Starting the XC term evaluation                    ... done (   0.1 sec)
Transforming the Hamiltonian                       ... done (   0.1 sec)
Diagonalizing the Hamiltonian                      ... done (   0.5 sec)
Back transforming the eigenvectors                 ... done (   0.1 sec)
Now organizing SCF variables                       ... done
                      ------------------
                      INITIAL GUESS DONE (   1.1 sec)
                      ------------------
--------------
SCF ITERATIONS
--------------
ITER       Energy         Delta-E        Max-DP      RMS-DP      [F,P]     Damp
               ***  Starting incremental Fock matrix formation  ***
  0   -233.2916582389   0.000000000000 0.06532822  0.00038038  0.2320984 0.7000
  1   -233.4108036135  -0.119145374505 0.05042920  0.00030098  0.1542938 0.7000
                               ***Turning on DIIS***
  2   -233.4851715508  -0.074367937356 0.12019778  0.00073271  0.0972996 0.0000
  3   -233.0926366770   0.392534873842 0.00908147  0.00007383  0.0288329 0.0000
  4   -233.5818414638  -0.489204786846 0.00522856  0.00003172  0.0070804 0.0000
  5   -233.6235387826  -0.041697318750 0.00329798  0.00001404  0.0040055 0.0000
  6   -233.6401165743  -0.016577791690 0.00178012  0.00000755  0.0018183 0.0000
  7   -233.6427970340  -0.002680459746 0.00121613  0.00000657  0.0009646 0.0000
  8   -233.6427886505   0.000008383536 0.00055148  0.00000282  0.0003971 0.0000
  9   -233.6427699980   0.000018652435 0.00025565  0.00000111  0.0001861 0.0000
 10   -233.6429308490  -0.000160850948 0.00016480  0.00000070  0.0000798 0.0000
 11   -233.6428514567   0.000079392312 0.00009395  0.00000043  0.0000337 0.0000
 12   -233.6428766246  -0.000025167986 0.00004518  0.00000032  0.0000107 0.0000
 13   -233.6428836522  -0.000007027570 0.00004967  0.00000044  0.0000034 0.0000
 14   -233.6428846318  -0.000000979585 0.00003953  0.00000030  0.0000011 0.0000
                            ***DIIS convergence achieved***

               *****************************************************
               *                     SUCCESS                       *
               *           SCF CONVERGED AFTER  15 CYCLES          *
               *****************************************************


----------------
TOTAL SCF ENERGY
----------------

Total Energy       :         -233.64288457 Eh           -6357.74611 eV

Components:
Nuclear Repulsion  :          219.79578873 Eh            5980.94748 eV
Electronic Energy  :         -453.43867331 Eh          -12338.69359 eV
One Electron Energy:         -749.20219702 Eh          -20386.82823 eV
Two Electron Energy:          295.76352371 Eh            8048.13464 eV

Virial components:
Potential Energy   :         -467.09562692 Eh          -12710.31819 eV
Kinetic Energy     :          233.45274235 Eh            6352.57208 eV
Virial Ratio       :            2.00081448


---------------
SCF CONVERGENCE
---------------

  Last Energy change         ...    5.9728e-08  Tolerance :   1.0000e-08
  Last MAX-Density change    ...    1.3001e-04  Tolerance :   1.0000e-07
  Last RMS-Density change    ...    5.6450e-07  Tolerance :   5.0000e-09
  Last DIIS Error            ...    4.2302e-07  Tolerance :   5.0000e-07

             **** THE GBW FILE WAS UPDATED (/tmp/pbs.2143093.pbsha.ib.sockeye/MP2augccpVQZ_01_7R.gbw) ****
             **** DENSITY FILE WAS UPDATED (/tmp/pbs.2143093.pbsha.ib.sockeye/MP2augccpVQZ_01_7R.scfp) ****
             **** ENERGY FILE WAS UPDATED (/tmp/pbs.2143093.pbsha.ib.sockeye/MP2augccpVQZ_01_7R.en.tmp) ****
----------------------
UHF SPIN CONTAMINATION
----------------------

Expectation value of <S**2>     :     0.763449
Ideal value S*(S+1) for S=0.5   :     0.750000
Deviation                       :     0.013449

             **** THE GBW FILE WAS UPDATED (/tmp/pbs.2143093.pbsha.ib.sockeye/MP2augccpVQZ_01_7R.gbw) ****
             **** DENSITY FILE WAS UPDATED (/tmp/pbs.2143093.pbsha.ib.sockeye/MP2augccpVQZ_01_7R.scfp) ****
----------------
ORBITAL ENERGIES
----------------
                 SPIN UP ORBITALS
  NO   OCC          E(Eh)            E(eV) 
   0   1.0000     -11.229396      -305.5674 
   1   1.0000     -11.226997      -305.5021 
   2   1.0000     -11.223269      -305.4007 
   3   1.0000     -11.222046      -305.3674 
   4   1.0000     -11.220361      -305.3215 
   5   1.0000     -11.216085      -305.2052 
   6   1.0000      -1.097443       -29.8629 
   7   1.0000      -1.050440       -28.5839 
   8   1.0000      -0.971572       -26.4378 
   9   1.0000      -0.868327       -23.6284 
  10   1.0000      -0.796620       -21.6771 
  11   1.0000      -0.755743       -20.5648 
  12   1.0000      -0.654958       -17.8223 
  13   1.0000      -0.622730       -16.9453 
  14   1.0000      -0.605875       -16.4867 
  15   1.0000      -0.591956       -16.1079 
  16   1.0000      -0.555611       -15.1189 
  17   1.0000      -0.534758       -14.5515 
  18   1.0000      -0.510802       -13.8996 
  19   1.0000      -0.490630       -13.3507 
  20   1.0000      -0.477049       -12.9812 
  21   1.0000      -0.465898       -12.6777 
  22   1.0000      -0.360562        -9.8114 
  23   1.0000      -0.348383        -9.4800 
  24   0.0000       0.026962         0.7337 
  25   0.0000       0.029759         0.8098 
  26   0.0000       0.032960         0.8969 
  27   0.0000       0.034379         0.9355 
  28   0.0000       0.042955         1.1689 
  29   0.0000       0.049354         1.3430 
  30   0.0000       0.052352         1.4246 
  31   0.0000       0.053983         1.4690 
  32   0.0000       0.060246         1.6394 
  33   0.0000       0.069387         1.8881 
  34   0.0000       0.074230         2.0199 
  35   0.0000       0.084571         2.3013 
  36   0.0000       0.089856         2.4451 
  37   0.0000       0.098571         2.6822 
  38   0.0000       0.101857         2.7717 
  39   0.0000       0.104263         2.8371 
  40   0.0000       0.108708         2.9581 
  41   0.0000       0.115962         3.1555 
  42   0.0000       0.116930         3.1818 
  43   0.0000       0.119255         3.2451 
  44   0.0000       0.126129         3.4321 
  45   0.0000       0.130026         3.5382 
  46   0.0000       0.132642         3.6094 
  47   0.0000       0.138118         3.7584 
  48   0.0000       0.140039         3.8106 
  49   0.0000       0.143742         3.9114 
  50   0.0000       0.150123         4.0850 
  51   0.0000       0.152612         4.1528 
  52   0.0000       0.164884         4.4867 
  53   0.0000       0.165809         4.5119 
  54   0.0000       0.170241         4.6325 
  55   0.0000       0.179237         4.8773 
  56   0.0000       0.186138         5.0651 
  57   0.0000       0.193426         5.2634 
  58   0.0000       0.204580         5.5669 
  59   0.0000       0.206327         5.6145 
  60   0.0000       0.215714         5.8699 
  61   0.0000       0.223143         6.0720 
  62   0.0000       0.235704         6.4138 
  63   0.0000       0.237618         6.4659 
  64   0.0000       0.242829         6.6077 
  65   0.0000       0.250156         6.8071 
  66   0.0000       0.254148         6.9157 
  67   0.0000       0.256906         6.9908 
  68   0.0000       0.265292         7.2190 
  69   0.0000       0.272954         7.4275 
  70   0.0000       0.274369         7.4660 
  71   0.0000       0.279814         7.6141 
  72   0.0000       0.281216         7.6523 
  73   0.0000       0.286402         7.7934 
  74   0.0000       0.288369         7.8469 
  75   0.0000       0.291294         7.9265 
  76   0.0000       0.293849         7.9960 
  77   0.0000       0.297755         8.1023 
  78   0.0000       0.304292         8.2802 
  79   0.0000       0.306592         8.3428 
  80   0.0000       0.309920         8.4334 
  81   0.0000       0.312318         8.4986 
  82   0.0000       0.317334         8.6351 
  83   0.0000       0.319841         8.7033 
  84   0.0000       0.324020         8.8170 
  85   0.0000       0.329490         8.9659 
  86   0.0000       0.331598         9.0232 
  87   0.0000       0.336344         9.1524 
  88   0.0000       0.339551         9.2396 
  89   0.0000       0.343961         9.3596 
  90   0.0000       0.350470         9.5368 
  91   0.0000       0.352214         9.5842 
  92   0.0000       0.355977         9.6866 
  93   0.0000       0.363064         9.8795 
  94   0.0000       0.370204        10.0738 
  95   0.0000       0.373292        10.1578 
  96   0.0000       0.378036        10.2869 
  97   0.0000       0.381955        10.3935 
  98   0.0000       0.386573        10.5192 
  99   0.0000       0.388689        10.5768 
 100   0.0000       0.394434        10.7331 
 101   0.0000       0.399959        10.8834 
 102   0.0000       0.400582        10.9004 
 103   0.0000       0.408336        11.1114 
 104   0.0000       0.410340        11.1659 
 105   0.0000       0.415688        11.3115 
 106   0.0000       0.418338        11.3836 
 107   0.0000       0.420127        11.4322 
 108   0.0000       0.423984        11.5372 
 109   0.0000       0.430459        11.7134 
 110   0.0000       0.435390        11.8476 
 111   0.0000       0.441794        12.0218 
 112   0.0000       0.446346        12.1457 
 113   0.0000       0.451486        12.2856 
 114   0.0000       0.457140        12.4394 
 115   0.0000       0.460776        12.5383 
 116   0.0000       0.464716        12.6456 
 117   0.0000       0.469833        12.7848 
 118   0.0000       0.470546        12.8042 
 119   0.0000       0.479388        13.0448 
 120   0.0000       0.487695        13.2709 
 121   0.0000       0.489642        13.3238 
 122   0.0000       0.497114        13.5272 
 123   0.0000       0.502858        13.6835 
 124   0.0000       0.507212        13.8019 
 125   0.0000       0.512849        13.9553 
 126   0.0000       0.518027        14.0962 
 127   0.0000       0.532312        14.4849 
 128   0.0000       0.534872        14.5546 
 129   0.0000       0.540342        14.7035 
 130   0.0000       0.546826        14.8799 
 131   0.0000       0.554691        15.0939 
 132   0.0000       0.559718        15.2307 
 133   0.0000       0.564821        15.3696 
 134   0.0000       0.567677        15.4473 
 135   0.0000       0.572786        15.5863 
 136   0.0000       0.583164        15.8687 
 137   0.0000       0.589423        16.0390 
 138   0.0000       0.594659        16.1815 
 139   0.0000       0.598412        16.2836 
 140   0.0000       0.606789        16.5116 
 141   0.0000       0.609542        16.5865 
 142   0.0000       0.612069        16.6552 
 143   0.0000       0.615846        16.7580 
 144   0.0000       0.621788        16.9197 
 145   0.0000       0.633260        17.2319 
 146   0.0000       0.637999        17.3608 
 147   0.0000       0.639811        17.4101 
 148   0.0000       0.646364        17.5885 
 149   0.0000       0.650592        17.7035 
 150   0.0000       0.661555        18.0018 
 151   0.0000       0.668278        18.1848 
 152   0.0000       0.674969        18.3669 
 153   0.0000       0.682760        18.5788 
 154   0.0000       0.686883        18.6910 
 155   0.0000       0.694368        18.8947 
 156   0.0000       0.697105        18.9692 
 157   0.0000       0.704432        19.1686 
 158   0.0000       0.707645        19.2560 
 159   0.0000       0.714210        19.4347 
 160   0.0000       0.718422        19.5492 
 161   0.0000       0.723405        19.6849 
 162   0.0000       0.730865        19.8878 
 163   0.0000       0.732578        19.9345 
 164   0.0000       0.743376        20.2283 
 165   0.0000       0.743785        20.2394 
 166   0.0000       0.748947        20.3799 
 167   0.0000       0.749873        20.4051 
 168   0.0000       0.757490        20.6124 
 169   0.0000       0.760305        20.6890 
 170   0.0000       0.764807        20.8114 
 171   0.0000       0.773447        21.0466 
 172   0.0000       0.776194        21.1213 
 173   0.0000       0.785753        21.3814 
 174   0.0000       0.789837        21.4926 
 175   0.0000       0.794489        21.6192 
 176   0.0000       0.801791        21.8178 
 177   0.0000       0.808530        22.0012 
 178   0.0000       0.814162        22.1545 
 179   0.0000       0.824039        22.4232 
 180   0.0000       0.833910        22.6918 
 181   0.0000       0.834053        22.6957 
 182   0.0000       0.845810        23.0157 
 183   0.0000       0.852872        23.2078 
 184   0.0000       0.855325        23.2746 
 185   0.0000       0.857204        23.3257 
 186   0.0000       0.869250        23.6535 
 187   0.0000       0.873108        23.7585 
 188   0.0000       0.877101        23.8671 
 189   0.0000       0.887965        24.1628 
 190   0.0000       0.891576        24.2610 
 191   0.0000       0.894510        24.3409 
 192   0.0000       0.901815        24.5396 
 193   0.0000       0.904525        24.6134 
 194   0.0000       0.905528        24.6407 
 195   0.0000       0.916984        24.9524 
 196   0.0000       0.918859        25.0034 
 197   0.0000       0.924471        25.1561 
 198   0.0000       0.929942        25.3050 
 199   0.0000       0.936084        25.4721 
 200   0.0000       0.943862        25.6838 
 201   0.0000       0.949220        25.8296 
 202   0.0000       0.949715        25.8431 
 203   0.0000       0.954938        25.9852 
 204   0.0000       0.965143        26.2629 
 205   0.0000       0.972081        26.4517 
 206   0.0000       0.978922        26.6378 
 207   0.0000       0.983087        26.7512 
 208   0.0000       0.991879        26.9904 
 209   0.0000       0.997022        27.1303 
 210   0.0000       1.007208        27.4075 
 211   0.0000       1.013865        27.5887 
 212   0.0000       1.018552        27.7162 
 213   0.0000       1.026375        27.9291 
 214   0.0000       1.030595        28.0439 
 215   0.0000       1.039168        28.2772 
 216   0.0000       1.042663        28.3723 
 217   0.0000       1.050875        28.5957 
 218   0.0000       1.056772        28.7562 
 219   0.0000       1.057572        28.7780 
 220   0.0000       1.067969        29.0609 
 221   0.0000       1.072658        29.1885 
 222   0.0000       1.082144        29.4466 
 223   0.0000       1.082912        29.4675 
 224   0.0000       1.092818        29.7371 
 225   0.0000       1.098616        29.8949 
 226   0.0000       1.102928        30.0122 
 227   0.0000       1.114490        30.3268 
 228   0.0000       1.115943        30.3664 
 229   0.0000       1.125852        30.6360 
 230   0.0000       1.127480        30.6803 
 231   0.0000       1.139118        30.9970 
 232   0.0000       1.147140        31.2153 
 233   0.0000       1.157840        31.5064 
 234   0.0000       1.161513        31.6064 
 235   0.0000       1.169760        31.8308 
 236   0.0000       1.178921        32.0801 
 237   0.0000       1.180515        32.1235 
 238   0.0000       1.184441        32.2303 
 239   0.0000       1.193281        32.4708 
 240   0.0000       1.202785        32.7295 
 241   0.0000       1.205021        32.7903 
 242   0.0000       1.212419        32.9916 
 243   0.0000       1.221242        33.2317 
 244   0.0000       1.225681        33.3525 
 245   0.0000       1.229050        33.4442 
 246   0.0000       1.238146        33.6917 
 247   0.0000       1.247241        33.9392 
 248   0.0000       1.251468        34.0542 
 249   0.0000       1.254297        34.1312 
 250   0.0000       1.263686        34.3866 
 251   0.0000       1.267928        34.5021 
 252   0.0000       1.276442        34.7338 
 253   0.0000       1.282594        34.9011 
 254   0.0000       1.291380        35.1402 
 255   0.0000       1.294669        35.2297 
 256   0.0000       1.297278        35.3007 
 257   0.0000       1.300877        35.3987 
 258   0.0000       1.303524        35.4707 
 259   0.0000       1.315639        35.8003 
 260   0.0000       1.321303        35.9545 
 261   0.0000       1.329624        36.1809 
 262   0.0000       1.336975        36.3809 
 263   0.0000       1.341689        36.5092 
 264   0.0000       1.349623        36.7251 
 265   0.0000       1.355067        36.8732 
 266   0.0000       1.363431        37.1008 
 267   0.0000       1.370816        37.3018 
 268   0.0000       1.377878        37.4940 
 269   0.0000       1.384366        37.6705 
 270   0.0000       1.387658        37.7601 
 271   0.0000       1.398487        38.0548 
 272   0.0000       1.400276        38.1035 
 273   0.0000       1.410052        38.3695 
 274   0.0000       1.419470        38.6258 
 275   0.0000       1.431730        38.9593 
 276   0.0000       1.445084        39.3227 
 277   0.0000       1.452097        39.5136 
 278   0.0000       1.466379        39.9022 
 279   0.0000       1.470728        40.0205 
 280   0.0000       1.476414        40.1753 
 281   0.0000       1.484318        40.3903 
 282   0.0000       1.497340        40.7447 
 283   0.0000       1.500682        40.8356 
 284   0.0000       1.512507        41.1574 
 285   0.0000       1.518048        41.3082 
 286   0.0000       1.529333        41.6153 
 287   0.0000       1.541015        41.9331 
 288   0.0000       1.548887        42.1474 
 289   0.0000       1.553963        42.2855 
 290   0.0000       1.557864        42.3916 
 291   0.0000       1.565644        42.6033 
 292   0.0000       1.571894        42.7734 
 293   0.0000       1.586244        43.1639 
 294   0.0000       1.592841        43.3434 
 295   0.0000       1.596707        43.4486 
 296   0.0000       1.600204        43.5438 
 297   0.0000       1.605946        43.7000 
 298   0.0000       1.616175        43.9784 
 299   0.0000       1.623323        44.1729 
 300   0.0000       1.632850        44.4321 
 301   0.0000       1.638385        44.5827 
 302   0.0000       1.641780        44.6751 
 303   0.0000       1.647517        44.8312 
 304   0.0000       1.673948        45.5504 
 305   0.0000       1.679558        45.7031 
 306   0.0000       1.690989        46.0142 
 307   0.0000       1.704456        46.3806 
 308   0.0000       1.715446        46.6797 
 309   0.0000       1.719327        46.7853 
 310   0.0000       1.724450        46.9247 
 311   0.0000       1.740084        47.3501 
 312   0.0000       1.745991        47.5108 
 313   0.0000       1.757513        47.8244 
 314   0.0000       1.772430        48.2303 
 315   0.0000       1.776179        48.3323 
 316   0.0000       1.782817        48.5129 
 317   0.0000       1.790286        48.7162 
 318   0.0000       1.792435        48.7746 
 319   0.0000       1.812470        49.3198 
 320   0.0000       1.825073        49.6628 
 321   0.0000       1.836148        49.9641 
 322   0.0000       1.841815        50.1183 
 323   0.0000       1.852651        50.4132 
 324   0.0000       1.861218        50.6463 
 325   0.0000       1.868394        50.8416 
 326   0.0000       1.873173        50.9716 
 327   0.0000       1.881291        51.1925 
 328   0.0000       1.890779        51.4507 
 329   0.0000       1.901100        51.7316 
 330   0.0000       1.915209        52.1155 
 331   0.0000       1.919350        52.2282 
 332   0.0000       1.926766        52.4300 
 333   0.0000       1.936556        52.6964 
 334   0.0000       1.961570        53.3770 
 335   0.0000       1.964732        53.4631 
 336   0.0000       1.968399        53.5629 
 337   0.0000       1.975134        53.7461 
 338   0.0000       1.987085        54.0713 
 339   0.0000       1.992438        54.2170 
 340   0.0000       1.995417        54.2981 
 341   0.0000       2.007123        54.6166 
 342   0.0000       2.012587        54.7653 
 343   0.0000       2.022677        55.0399 
 344   0.0000       2.026431        55.1420 
 345   0.0000       2.030976        55.2657 
 346   0.0000       2.042424        55.5772 
 347   0.0000       2.052370        55.8478 
 348   0.0000       2.061683        56.1012 
 349   0.0000       2.064610        56.1809 
 350   0.0000       2.079388        56.5830 
 351   0.0000       2.083316        56.6899 
 352   0.0000       2.091873        56.9228 
 353   0.0000       2.099983        57.1434 
 354   0.0000       2.107752        57.3549 
 355   0.0000       2.110766        57.4369 
 356   0.0000       2.117054        57.6080 
 357   0.0000       2.126664        57.8695 
 358   0.0000       2.134135        58.0728 
 359   0.0000       2.137193        58.1560 
 360   0.0000       2.139867        58.2287 
 361   0.0000       2.146683        58.4142 
 362   0.0000       2.152621        58.5758 
 363   0.0000       2.158754        58.7427 
 364   0.0000       2.162015        58.8314 
 365   0.0000       2.166139        58.9436 
 366   0.0000       2.171134        59.0795 
 367   0.0000       2.176811        59.2340 
 368   0.0000       2.181585        59.3639 
 369   0.0000       2.185305        59.4652 
 370   0.0000       2.201122        59.8956 
 371   0.0000       2.205474        60.0140 
 372   0.0000       2.206074        60.0303 
 373   0.0000       2.214760        60.2667 
 374   0.0000       2.218588        60.3708 
 375   0.0000       2.221150        60.4406 
 376   0.0000       2.229578        60.6699 
 377   0.0000       2.236314        60.8532 
 378   0.0000       2.238355        60.9087 
 379   0.0000       2.239743        60.9465 
 380   0.0000       2.245691        61.1084 
 381   0.0000       2.253030        61.3081 
 382   0.0000       2.258895        61.4677 
 383   0.0000       2.262972        61.5786 
 384   0.0000       2.270882        61.7938 
 385   0.0000       2.283395        62.1343 
 386   0.0000       2.289162        62.2913 
 387   0.0000       2.294399        62.4338 
 388   0.0000       2.310395        62.8690 
 389   0.0000       2.316020        63.0221 
 390   0.0000       2.320829        63.1530 
 391   0.0000       2.327796        63.3426 
 392   0.0000       2.332644        63.4745 
 393   0.0000       2.335693        63.5574 
 394   0.0000       2.337367        63.6030 
 395   0.0000       2.345392        63.8214 
 396   0.0000       2.348781        63.9136 
 397   0.0000       2.356667        64.1282 
 398   0.0000       2.361468        64.2588 
 399   0.0000       2.367863        64.4328 
 400   0.0000       2.376168        64.6588 
 401   0.0000       2.377896        64.7058 
 402   0.0000       2.388595        64.9970 
 403   0.0000       2.394104        65.1469 
 404   0.0000       2.400228        65.3135 
 405   0.0000       2.409361        65.5620 
 406   0.0000       2.415399        65.7263 
 407   0.0000       2.426224        66.0209 
 408   0.0000       2.432349        66.1876 
 409   0.0000       2.443075        66.4794 
 410   0.0000       2.449311        66.6491 
 411   0.0000       2.461230        66.9735 
 412   0.0000       2.462040        66.9955 
 413   0.0000       2.476832        67.3980 
 414   0.0000       2.489903        67.7537 
 415   0.0000       2.493545        67.8528 
 416   0.0000       2.494834        67.8879 
 417   0.0000       2.503452        68.1224 
 418   0.0000       2.510138        68.3043 
 419   0.0000       2.522709        68.6464 
 420   0.0000       2.523903        68.6789 
 421   0.0000       2.539776        69.1108 
 422   0.0000       2.542528        69.1857 
 423   0.0000       2.547458        69.3199 
 424   0.0000       2.555151        69.5292 
 425   0.0000       2.562458        69.7280 
 426   0.0000       2.568726        69.8986 
 427   0.0000       2.581669        70.2508 
 428   0.0000       2.584482        70.3273 
 429   0.0000       2.595284        70.6213 
 430   0.0000       2.604973        70.8849 
 431   0.0000       2.613810        71.1254 
 432   0.0000       2.626217        71.4630 
 433   0.0000       2.627969        71.5107 
 434   0.0000       2.639433        71.8226 
 435   0.0000       2.650922        72.1353 
 436   0.0000       2.663448        72.4761 
 437   0.0000       2.671737        72.7017 
 438   0.0000       2.688618        73.1610 
 439   0.0000       2.691670        73.2441 
 440   0.0000       2.699397        73.4543 
 441   0.0000       2.703044        73.5536 
 442   0.0000       2.709713        73.7350 
 443   0.0000       2.734519        74.4100 
 444   0.0000       2.740305        74.5675 
 445   0.0000       2.748496        74.7904 
 446   0.0000       2.761427        75.1422 
 447   0.0000       2.768776        75.3422 
 448   0.0000       2.771736        75.4228 
 449   0.0000       2.775740        75.5317 
 450   0.0000       2.779085        75.6227 
 451   0.0000       2.799174        76.1694 
 452   0.0000       2.804681        76.3192 
 453   0.0000       2.814062        76.5745 
 454   0.0000       2.821895        76.7877 
 455   0.0000       2.827538        76.9412 
 456   0.0000       2.831052        77.0368 
 457   0.0000       2.840255        77.2873 
 458   0.0000       2.850481        77.5655 
 459   0.0000       2.865632        77.9778 
 460   0.0000       2.875321        78.2415 
 461   0.0000       2.877934        78.3126 
 462   0.0000       2.884639        78.4950 
 463   0.0000       2.897443        78.8434 
 464   0.0000       2.902148        78.9715 
 465   0.0000       2.906862        79.0997 
 466   0.0000       2.914471        79.3068 
 467   0.0000       2.926199        79.6259 
 468   0.0000       2.937593        79.9360 
 469   0.0000       2.947577        80.2076 
 470   0.0000       2.953917        80.3802 
 471   0.0000       2.959077        80.5206 
 472   0.0000       2.965453        80.6941 
 473   0.0000       2.975938        80.9794 
 474   0.0000       2.993689        81.4624 
 475   0.0000       2.995484        81.5113 
 476   0.0000       3.007282        81.8323 
 477   0.0000       3.009983        81.9058 
 478   0.0000       3.019934        82.1766 
 479   0.0000       3.023601        82.2764 
 480   0.0000       3.040927        82.7478 
 481   0.0000       3.052365        83.0591 
 482   0.0000       3.061307        83.3024 
 483   0.0000       3.068130        83.4881 
 484   0.0000       3.075146        83.6790 
 485   0.0000       3.085481        83.9602 
 486   0.0000       3.094897        84.2164 
 487   0.0000       3.099750        84.3485 
 488   0.0000       3.110033        84.6283 
 489   0.0000       3.116201        84.7962 
 490   0.0000       3.142132        85.5018 
 491   0.0000       3.150471        85.7287 
 492   0.0000       3.151937        85.7686 
 493   0.0000       3.160375        85.9982 
 494   0.0000       3.171519        86.3014 
 495   0.0000       3.192431        86.8705 
 496   0.0000       3.196984        86.9943 
 497   0.0000       3.203077        87.1602 
 498   0.0000       3.230650        87.9105 
 499   0.0000       3.237914        88.1081 
 500   0.0000       3.248714        88.4020 
 501   0.0000       3.252155        88.4956 
 502   0.0000       3.269029        88.9548 
 503   0.0000       3.284786        89.3836 
 504   0.0000       3.289759        89.5189 
 505   0.0000       3.304621        89.9233 
 506   0.0000       3.306343        89.9702 
 507   0.0000       3.328889        90.5837 
 508   0.0000       3.335946        90.7757 
 509   0.0000       3.346751        91.0697 
 510   0.0000       3.367547        91.6356 
 511   0.0000       3.370224        91.7085 
 512   0.0000       3.390720        92.2662 
 513   0.0000       3.397855        92.4603 
 514   0.0000       3.407094        92.7117 
 515   0.0000       3.430609        93.3516 
 516   0.0000       3.439249        93.5867 
 517   0.0000       3.447134        93.8013 
 518   0.0000       3.451508        93.9203 
 519   0.0000       3.482175        94.7548 
 520   0.0000       3.497348        95.1677 
 521   0.0000       3.507834        95.4530 
 522   0.0000       3.516593        95.6914 
 523   0.0000       3.523999        95.8929 
 524   0.0000       3.541805        96.3774 
 525   0.0000       3.543541        96.4247 
 526   0.0000       3.567897        97.0874 
 527   0.0000       3.572066        97.2009 
 528   0.0000       3.585350        97.5623 
 529   0.0000       3.591832        97.7387 
 530   0.0000       3.602992        98.0424 
 531   0.0000       3.627350        98.7052 
 532   0.0000       3.635049        98.9147 
 533   0.0000       3.653155        99.4074 
 534   0.0000       3.659575        99.5821 
 535   0.0000       3.682149       100.1964 
 536   0.0000       3.699691       100.6737 
 537   0.0000       3.702917       100.7615 
 538   0.0000       3.705232       100.8245 
 539   0.0000       3.728360       101.4538 
 540   0.0000       3.735131       101.6381 
 541   0.0000       3.751932       102.0953 
 542   0.0000       3.765423       102.4624 
 543   0.0000       3.790235       103.1375 
 544   0.0000       3.797834       103.3443 
 545   0.0000       3.804760       103.5328 
 546   0.0000       3.805418       103.5507 
 547   0.0000       3.823678       104.0476 
 548   0.0000       3.832868       104.2977 
 549   0.0000       3.851870       104.8147 
 550   0.0000       3.857738       104.9744 
 551   0.0000       3.868185       105.2587 
 552   0.0000       3.876603       105.4877 
 553   0.0000       3.894377       105.9714 
 554   0.0000       3.903754       106.2266 
 555   0.0000       3.914552       106.5204 
 556   0.0000       3.935354       107.0864 
 557   0.0000       3.944816       107.3439 
 558   0.0000       3.965554       107.9082 
 559   0.0000       3.967387       107.9581 
 560   0.0000       3.979731       108.2940 
 561   0.0000       3.989115       108.5493 
 562   0.0000       3.999371       108.8284 
 563   0.0000       4.012379       109.1824 
 564   0.0000       4.018592       109.3514 
 565   0.0000       4.036989       109.8521 
 566   0.0000       4.046621       110.1142 
 567   0.0000       4.069183       110.7281 
 568   0.0000       4.085589       111.1745 
 569   0.0000       4.090042       111.2957 
 570   0.0000       4.094829       111.4260 
 571   0.0000       4.106636       111.7473 
 572   0.0000       4.111208       111.8717 
 573   0.0000       4.119553       112.0987 
 574   0.0000       4.142544       112.7244 
 575   0.0000       4.153215       113.0147 
 576   0.0000       4.163736       113.3010 
 577   0.0000       4.183215       113.8311 
 578   0.0000       4.199943       114.2863 
 579   0.0000       4.205990       114.4508 
 580   0.0000       4.210947       114.5857 
 581   0.0000       4.217574       114.7660 
 582   0.0000       4.235716       115.2597 
 583   0.0000       4.256370       115.8217 
 584   0.0000       4.265659       116.0745 
 585   0.0000       4.268596       116.1544 
 586   0.0000       4.285872       116.6245 
 587   0.0000       4.291709       116.7833 
 588   0.0000       4.326348       117.7259 
 589   0.0000       4.333600       117.9232 
 590   0.0000       4.343518       118.1931 
 591   0.0000       4.349779       118.3635 
 592   0.0000       4.358271       118.5946 
 593   0.0000       4.366069       118.8068 
 594   0.0000       4.399109       119.7058 
 595   0.0000       4.402649       119.8022 
 596   0.0000       4.422609       120.3453 
 597   0.0000       4.441955       120.8717 
 598   0.0000       4.444985       120.9542 
 599   0.0000       4.448275       121.0437 
 600   0.0000       4.470206       121.6405 
 601   0.0000       4.482975       121.9880 
 602   0.0000       4.496783       122.3637 
 603   0.0000       4.500627       122.4683 
 604   0.0000       4.508087       122.6713 
 605   0.0000       4.521704       123.0418 
 606   0.0000       4.538352       123.4948 
 607   0.0000       4.549597       123.8008 
 608   0.0000       4.562300       124.1465 
 609   0.0000       4.566607       124.2637 
 610   0.0000       4.594038       125.0101 
 611   0.0000       4.598199       125.1234 
 612   0.0000       4.606806       125.3576 
 613   0.0000       4.616286       125.6155 
 614   0.0000       4.635794       126.1464 
 615   0.0000       4.645309       126.4053 
 616   0.0000       4.651306       126.5685 
 617   0.0000       4.655878       126.6929 
 618   0.0000       4.675355       127.2229 
 619   0.0000       4.685009       127.4856 
 620   0.0000       4.695647       127.7751 
 621   0.0000       4.721370       128.4750 
 622   0.0000       4.723542       128.5341 
 623   0.0000       4.736144       128.8770 
 624   0.0000       4.751139       129.2851 
 625   0.0000       4.761775       129.5745 
 626   0.0000       4.786971       130.2601 
 627   0.0000       4.820348       131.1683 
 628   0.0000       4.829893       131.4281 
 629   0.0000       4.848307       131.9291 
 630   0.0000       4.863022       132.3295 
 631   0.0000       4.866364       132.4205 
 632   0.0000       4.904476       133.4576 
 633   0.0000       4.937064       134.3443 
 634   0.0000       4.938358       134.3796 
 635   0.0000       4.996233       135.9544 
 636   0.0000       5.004031       136.1666 
 637   0.0000       5.020077       136.6032 
 638   0.0000       5.053020       137.4997 
 639   0.0000       5.065347       137.8351 
 640   0.0000       5.079914       138.2315 
 641   0.0000       5.102409       138.8436 
 642   0.0000       5.140103       139.8693 
 643   0.0000       5.172241       140.7438 
 644   0.0000       5.177211       140.8791 
 645   0.0000       5.195419       141.3745 
 646   0.0000       5.217389       141.9724 
 647   0.0000       5.222776       142.1190 
 648   0.0000       5.237479       142.5191 
 649   0.0000       5.263521       143.2277 
 650   0.0000       5.274421       143.5243 
 651   0.0000       5.309537       144.4798 
 652   0.0000       5.329212       145.0152 
 653   0.0000       5.354155       145.6940 
 654   0.0000       5.361841       145.9031 
 655   0.0000       5.382918       146.4766 
 656   0.0000       5.447294       148.2284 
 657   0.0000       5.465260       148.7173 
 658   0.0000       5.508737       149.9003 
 659   0.0000       5.565013       151.4317 
 660   0.0000       6.026271       163.9832 
 661   0.0000       6.050747       164.6492 
 662   0.0000       6.066091       165.0667 
 663   0.0000       6.147986       167.2952 
 664   0.0000       6.154184       167.4639 
 665   0.0000       6.181318       168.2022 
 666   0.0000       6.187237       168.3633 
 667   0.0000       6.206320       168.8825 
 668   0.0000       6.221670       169.3003 
 669   0.0000       6.241081       169.8284 
 670   0.0000       6.278833       170.8557 
 671   0.0000       6.286569       171.0662 
 672   0.0000       6.297007       171.3503 
 673   0.0000       6.301332       171.4679 
 674   0.0000       6.341211       172.5531 
 675   0.0000       6.351172       172.8242 
 676   0.0000       6.363841       173.1689 
 677   0.0000       6.382742       173.6832 
 678   0.0000       6.407186       174.3484 
 679   0.0000       6.420738       174.7172 
 680   0.0000       6.430840       174.9921 
 681   0.0000       6.457957       175.7299 
 682   0.0000       6.474968       176.1928 
 683   0.0000       6.485221       176.4718 
 684   0.0000       6.502370       176.9385 
 685   0.0000       6.515870       177.3058 
 686   0.0000       6.525194       177.5596 
 687   0.0000       6.531965       177.7438 
 688   0.0000       6.557133       178.4287 
 689   0.0000       6.563913       178.6132 
 690   0.0000       6.589778       179.3170 
 691   0.0000       6.610890       179.8915 
 692   0.0000       6.615332       180.0123 
 693   0.0000       6.625759       180.2961 
 694   0.0000       6.642913       180.7629 
 695   0.0000       6.646287       180.8547 
 696   0.0000       6.668481       181.4586 
 697   0.0000       6.690270       182.0515 
 698   0.0000       6.699066       182.2909 
 699   0.0000       6.713782       182.6913 
 700   0.0000       6.720970       182.8869 
 701   0.0000       6.733598       183.2305 
 702   0.0000       6.745651       183.5585 
 703   0.0000       6.766469       184.1250 
 704   0.0000       6.776422       184.3958 
 705   0.0000       6.786643       184.6740 
 706   0.0000       6.793871       184.8706 
 707   0.0000       6.809981       185.3090 
 708   0.0000       6.819531       185.5689 
 709   0.0000       6.857288       186.5963 
 710   0.0000       6.867310       186.8690 
 711   0.0000       6.883834       187.3186 
 712   0.0000       6.896155       187.6539 
 713   0.0000       6.905040       187.8957 
 714   0.0000       6.916292       188.2019 
 715   0.0000       6.926206       188.4716 
 716   0.0000       6.941272       188.8816 
 717   0.0000       6.956601       189.2987 
 718   0.0000       6.967869       189.6054 
 719   0.0000       6.973685       189.7636 
 720   0.0000       6.976779       189.8478 
 721   0.0000       6.993622       190.3061 
 722   0.0000       6.996477       190.3838 
 723   0.0000       7.019511       191.0106 
 724   0.0000       7.033329       191.3866 
 725   0.0000       7.045162       191.7086 
 726   0.0000       7.050165       191.8447 
 727   0.0000       7.058449       192.0702 
 728   0.0000       7.072520       192.4531 
 729   0.0000       7.079544       192.6442 
 730   0.0000       7.089409       192.9126 
 731   0.0000       7.105429       193.3485 
 732   0.0000       7.113206       193.5602 
 733   0.0000       7.127401       193.9464 
 734   0.0000       7.132145       194.0755 
 735   0.0000       7.138008       194.2351 
 736   0.0000       7.147752       194.5002 
 737   0.0000       7.167573       195.0396 
 738   0.0000       7.172478       195.1730 
 739   0.0000       7.182979       195.4588 
 740   0.0000       7.195346       195.7953 
 741   0.0000       7.211497       196.2348 
 742   0.0000       7.216192       196.3626 
 743   0.0000       7.226456       196.6419 
 744   0.0000       7.238312       196.9645 
 745   0.0000       7.246649       197.1913 
 746   0.0000       7.252866       197.3605 
 747   0.0000       7.263208       197.6419 
 748   0.0000       7.281132       198.1297 
 749   0.0000       7.295390       198.5177 
 750   0.0000       7.304194       198.7572 
 751   0.0000       7.312854       198.9929 
 752   0.0000       7.323875       199.2928 
 753   0.0000       7.345880       199.8916 
 754   0.0000       7.362005       200.3304 
 755   0.0000       7.374036       200.6577 
 756   0.0000       7.374878       200.6806 
 757   0.0000       7.398113       201.3129 
 758   0.0000       7.411844       201.6865 
 759   0.0000       7.431535       202.2223 
 760   0.0000       7.446894       202.6403 
 761   0.0000       7.467805       203.2093 
 762   0.0000       7.478600       203.5030 
 763   0.0000       7.499731       204.0781 
 764   0.0000       7.519845       204.6254 
 765   0.0000       7.530976       204.9283 
 766   0.0000       7.537080       205.0944 
 767   0.0000       7.553481       205.5407 
 768   0.0000       7.572592       206.0607 
 769   0.0000       7.587862       206.4762 
 770   0.0000       7.606709       206.9891 
 771   0.0000       7.624383       207.4700 
 772   0.0000       7.646652       208.0760 
 773   0.0000       7.654924       208.3011 
 774   0.0000       7.678082       208.9312 
 775   0.0000       7.692840       209.3328 
 776   0.0000       7.710091       209.8022 
 777   0.0000       7.725198       210.2133 
 778   0.0000       7.744574       210.7406 
 779   0.0000       7.757287       211.0865 
 780   0.0000       7.767372       211.3609 
 781   0.0000       7.776116       211.5989 
 782   0.0000       7.791470       212.0167 
 783   0.0000       7.809106       212.4966 
 784   0.0000       7.810639       212.5383 
 785   0.0000       7.841739       213.3846 
 786   0.0000       7.852514       213.6778 
 787   0.0000       7.880530       214.4401 
 788   0.0000       7.896612       214.8777 
 789   0.0000       7.920209       215.5198 
 790   0.0000       7.930088       215.7887 
 791   0.0000       7.941279       216.0932 
 792   0.0000       7.948954       216.3020 
 793   0.0000       7.979184       217.1246 
 794   0.0000       7.994677       217.5462 
 795   0.0000       8.002800       217.7673 
 796   0.0000       8.019605       218.2246 
 797   0.0000       8.034263       218.6234 
 798   0.0000       8.052622       219.1230 
 799   0.0000       8.060401       219.3347 
 800   0.0000       8.104072       220.5230 
 801   0.0000       8.113502       220.7796 
 802   0.0000       8.132117       221.2862 
 803   0.0000       8.141900       221.5524 
 804   0.0000       8.156281       221.9437 
 805   0.0000       8.186964       222.7786 
 806   0.0000       8.191232       222.8948 
 807   0.0000       8.213665       223.5052 
 808   0.0000       8.223154       223.7634 
 809   0.0000       8.246135       224.3887 
 810   0.0000       8.260078       224.7681 
 811   0.0000       8.303375       225.9463 
 812   0.0000       8.329621       226.6605 
 813   0.0000       8.335708       226.8261 
 814   0.0000       8.358858       227.4561 
 815   0.0000       8.363093       227.5713 
 816   0.0000       8.408753       228.8138 
 817   0.0000       8.418045       229.0666 
 818   0.0000       8.446222       229.8334 
 819   0.0000       8.473670       230.5803 
 820   0.0000       8.485249       230.8954 
 821   0.0000       8.505857       231.4561 
 822   0.0000       8.517519       231.7735 
 823   0.0000       8.537687       232.3223 
 824   0.0000       8.559345       232.9116 
 825   0.0000       8.569533       233.1888 
 826   0.0000       8.581824       233.5233 
 827   0.0000       8.605007       234.1541 
 828   0.0000       8.621202       234.5948 
 829   0.0000       8.643845       235.2110 
 830   0.0000       8.655503       235.5282 
 831   0.0000       8.660538       235.6652 
 832   0.0000       8.664090       235.7619 
 833   0.0000       8.707899       236.9540 
 834   0.0000       8.721513       237.3244 
 835   0.0000       8.724277       237.3996 
 836   0.0000       8.727599       237.4901 
 837   0.0000       8.741550       237.8697 
 838   0.0000       8.759437       238.3564 
 839   0.0000       8.770593       238.6600 
 840   0.0000       8.782173       238.9751 
 841   0.0000       8.809246       239.7118 
 842   0.0000       8.812765       239.8075 
 843   0.0000       8.838479       240.5072 
 844   0.0000       8.847839       240.7619 
 845   0.0000       8.860384       241.1033 
 846   0.0000       8.876385       241.5387 
 847   0.0000       8.899510       242.1680 
 848   0.0000       8.912670       242.5261 
 849   0.0000       8.923897       242.8316 
 850   0.0000       8.952345       243.6057 
 851   0.0000       8.969721       244.0785 
 852   0.0000       8.994771       244.7602 
 853   0.0000       9.005884       245.0626 
 854   0.0000       9.053853       246.3679 
 855   0.0000       9.059989       246.5348 
 856   0.0000       9.090585       247.3674 
 857   0.0000       9.140855       248.7353 
 858   0.0000       9.157983       249.2014 
 859   0.0000       9.198758       250.3109 
 860   0.0000       9.211528       250.6584 
 861   0.0000       9.229978       251.1605 
 862   0.0000       9.253444       251.7990 
 863   0.0000       9.274883       252.3824 
 864   0.0000       9.285591       252.6738 
 865   0.0000       9.299768       253.0595 
 866   0.0000       9.321592       253.6534 
 867   0.0000       9.359215       254.6772 
 868   0.0000       9.375313       255.1152 
 869   0.0000       9.408833       256.0273 
 870   0.0000       9.413186       256.1458 
 871   0.0000       9.433285       256.6927 
 872   0.0000       9.453909       257.2539 
 873   0.0000       9.458811       257.3873 
 874   0.0000       9.471748       257.7394 
 875   0.0000       9.489009       258.2091 
 876   0.0000       9.505875       258.6680 
 877   0.0000       9.534393       259.4440 
 878   0.0000       9.552690       259.9419 
 879   0.0000       9.554971       260.0040 
 880   0.0000       9.577517       260.6175 
 881   0.0000       9.588775       260.9238 
 882   0.0000       9.605116       261.3685 
 883   0.0000       9.613204       261.5886 
 884   0.0000       9.623453       261.8675 
 885   0.0000       9.634190       262.1596 
 886   0.0000       9.656424       262.7647 
 887   0.0000       9.681673       263.4517 
 888   0.0000       9.692170       263.7374 
 889   0.0000       9.695629       263.8315 
 890   0.0000       9.715489       264.3719 
 891   0.0000       9.723790       264.5978 
 892   0.0000       9.748020       265.2571 
 893   0.0000       9.768193       265.8060 
 894   0.0000       9.796608       266.5793 
 895   0.0000       9.817069       267.1360 
 896   0.0000       9.842779       267.8356 
 897   0.0000       9.856105       268.1982 
 898   0.0000       9.883510       268.9440 
 899   0.0000       9.888339       269.0754 
 900   0.0000       9.908961       269.6365 
 901   0.0000       9.938960       270.4529 
 902   0.0000       9.945911       270.6420 
 903   0.0000       9.965302       271.1697 
 904   0.0000       9.976049       271.4621 
 905   0.0000       9.994645       271.9681 
 906   0.0000      10.007070       272.3062 
 907   0.0000      10.015227       272.5282 
 908   0.0000      10.026281       272.8290 
 909   0.0000      10.050465       273.4870 
 910   0.0000      10.058722       273.7118 
 911   0.0000      10.081659       274.3359 
 912   0.0000      10.113931       275.2140 
 913   0.0000      10.120388       275.3898 
 914   0.0000      10.150276       276.2030 
 915   0.0000      10.160876       276.4915 
 916   0.0000      10.170420       276.7512 
 917   0.0000      10.223613       278.1986 
 918   0.0000      10.245188       278.7857 
 919   0.0000      10.252147       278.9751 
 920   0.0000      10.261559       279.2312 
 921   0.0000      10.298896       280.2472 
 922   0.0000      10.310439       280.5613 
 923   0.0000      10.321952       280.8746 
 924   0.0000      10.337639       281.3015 
 925   0.0000      10.369203       282.1604 
 926   0.0000      10.388299       282.6800 
 927   0.0000      10.401267       283.0329 
 928   0.0000      10.413618       283.3690 
 929   0.0000      10.438093       284.0350 
 930   0.0000      10.453790       284.4621 
 931   0.0000      10.455721       284.5146 
 932   0.0000      10.474459       285.0245 
 933   0.0000      10.477557       285.1088 
 934   0.0000      10.506380       285.8931 
 935   0.0000      10.518470       286.2221 
 936   0.0000      10.533880       286.6414 
 937   0.0000      10.595917       288.3296 
 938   0.0000      10.619896       288.9821 
 939   0.0000      10.646307       289.7007 
 940   0.0000      10.660286       290.0811 
 941   0.0000      10.703903       291.2680 
 942   0.0000      10.736368       292.1514 
 943   0.0000      10.772161       293.1254 
 944   0.0000      10.802970       293.9637 
 945   0.0000      10.812128       294.2130 
 946   0.0000      10.873251       295.8762 
 947   0.0000      10.889965       296.3310 
 948   0.0000      10.956987       298.1548 
 949   0.0000      10.991215       299.0862 
 950   0.0000      11.029721       300.1340 
 951   0.0000      11.030665       300.1597 
 952   0.0000      11.057508       300.8901 
 953   0.0000      11.082466       301.5692 
 954   0.0000      11.104137       302.1589 
 955   0.0000      11.165989       303.8420 
 956   0.0000      11.190981       304.5221 
 957   0.0000      11.221079       305.3411 
 958   0.0000      11.277416       306.8741 
 959   0.0000      11.280265       306.9516 
 960   0.0000      11.346323       308.7491 
 961   0.0000      11.375537       309.5441 
 962   0.0000      11.482180       312.4460 
 963   0.0000      11.499968       312.9300 
 964   0.0000      11.523214       313.5626 
 965   0.0000      11.605113       315.7912 
 966   0.0000      11.648616       316.9750 
 967   0.0000      11.654600       317.1378 
 968   0.0000      11.959884       325.4450 
 969   0.0000      12.962328       352.7229 
 970   0.0000      13.053440       355.2022 
 971   0.0000      13.293611       361.7375 
 972   0.0000      13.372570       363.8861 
 973   0.0000      13.425770       365.3338 
 974   0.0000      13.464587       366.3900 
 975   0.0000      13.514810       367.7567 
 976   0.0000      13.532106       368.2273 
 977   0.0000      13.584291       369.6473 
 978   0.0000      13.605362       370.2207 
 979   0.0000      13.786987       375.1630 
 980   0.0000      26.422200       718.9846 
 981   0.0000      26.774872       728.5813 
 982   0.0000      27.375404       744.9226 
 983   0.0000      28.436912       773.8077 
 984   0.0000      28.496547       775.4305 
 985   0.0000      28.695479       780.8437 

                 SPIN DOWN ORBITALS
  NO   OCC          E(Eh)            E(eV) 
   0   1.0000     -11.229418      -305.5680 
   1   1.0000     -11.225148      -305.4518 
   2   1.0000     -11.223311      -305.4018 
   3   1.0000     -11.219872      -305.3082 
   4   1.0000     -11.216070      -305.2048 
   5   1.0000     -11.203458      -304.8616 
   6   1.0000      -1.093783       -29.7633 
   7   1.0000      -1.037933       -28.2436 
   8   1.0000      -0.950229       -25.8570 
   9   1.0000      -0.840717       -22.8771 
  10   1.0000      -0.773419       -21.0458 
  11   1.0000      -0.753916       -20.5151 
  12   1.0000      -0.652043       -17.7430 
  13   1.0000      -0.616914       -16.7871 
  14   1.0000      -0.596347       -16.2274 
  15   1.0000      -0.587395       -15.9838 
  16   1.0000      -0.546810       -14.8795 
  17   1.0000      -0.523375       -14.2417 
  18   1.0000      -0.505580       -13.7575 
  19   1.0000      -0.485129       -13.2010 
  20   1.0000      -0.472298       -12.8519 
  21   1.0000      -0.464356       -12.6358 
  22   1.0000      -0.360117        -9.7993 
  23   0.0000       0.027254         0.7416 
  24   0.0000       0.029907         0.8138 
  25   0.0000       0.032779         0.8920 
  26   0.0000       0.034489         0.9385 
  27   0.0000       0.043024         1.1707 
  28   0.0000       0.048811         1.3282 
  29   0.0000       0.051472         1.4006 
  30   0.0000       0.054019         1.4699 
  31   0.0000       0.059389         1.6161 
  32   0.0000       0.069067         1.8794 
  33   0.0000       0.074144         2.0176 
  34   0.0000       0.083954         2.2845 
  35   0.0000       0.089189         2.4270 
  36   0.0000       0.092091         2.5059 
  37   0.0000       0.101592         2.7644 
  38   0.0000       0.104683         2.8486 
  39   0.0000       0.108745         2.9591 
  40   0.0000       0.113676         3.0933 
  41   0.0000       0.116848         3.1796 
  42   0.0000       0.117694         3.2026 
  43   0.0000       0.125330         3.4104 
  44   0.0000       0.129956         3.5363 
  45   0.0000       0.131226         3.5708 
  46   0.0000       0.135721         3.6932 
  47   0.0000       0.139771         3.8034 
  48   0.0000       0.140979         3.8362 
  49   0.0000       0.147214         4.0059 
  50   0.0000       0.151738         4.1290 
  51   0.0000       0.156283         4.2527 
  52   0.0000       0.165343         4.4992 
  53   0.0000       0.168750         4.5919 
  54   0.0000       0.175931         4.7873 
  55   0.0000       0.180004         4.8982 
  56   0.0000       0.187311         5.0970 
  57   0.0000       0.194254         5.2859 
  58   0.0000       0.205480         5.5914 
  59   0.0000       0.207804         5.6546 
  60   0.0000       0.217497         5.9184 
  61   0.0000       0.226584         6.1657 
  62   0.0000       0.236985         6.4487 
  63   0.0000       0.238221         6.4823 
  64   0.0000       0.244115         6.6427 
  65   0.0000       0.252049         6.8586 
  66   0.0000       0.255939         6.9644 
  67   0.0000       0.258905         7.0452 
  68   0.0000       0.265846         7.2341 
  69   0.0000       0.274873         7.4797 
  70   0.0000       0.276782         7.5316 
  71   0.0000       0.281440         7.6584 
  72   0.0000       0.286327         7.7914 
  73   0.0000       0.287979         7.8363 
  74   0.0000       0.289648         7.8817 
  75   0.0000       0.294572         8.0157 
  76   0.0000       0.298230         8.1152 
  77   0.0000       0.304032         8.2731 
  78   0.0000       0.305297         8.3076 
  79   0.0000       0.307242         8.3605 
  80   0.0000       0.312438         8.5019 
  81   0.0000       0.314486         8.5576 
  82   0.0000       0.319559         8.6956 
  83   0.0000       0.321284         8.7426 
  84   0.0000       0.325399         8.8546 
  85   0.0000       0.330198         8.9851 
  86   0.0000       0.335367         9.1258 
  87   0.0000       0.337170         9.1749 
  88   0.0000       0.340900         9.2764 
  89   0.0000       0.345728         9.4077 
  90   0.0000       0.350855         9.5472 
  91   0.0000       0.352689         9.5972 
  92   0.0000       0.360284         9.8038 
  93   0.0000       0.364057         9.9065 
  94   0.0000       0.370936        10.0937 
  95   0.0000       0.374469        10.1898 
  96   0.0000       0.382005        10.3949 
  97   0.0000       0.384090        10.4516 
  98   0.0000       0.388083        10.5603 
  99   0.0000       0.392116        10.6700 
 100   0.0000       0.395939        10.7741 
 101   0.0000       0.400873        10.9083 
 102   0.0000       0.401296        10.9198 
 103   0.0000       0.409101        11.1322 
 104   0.0000       0.412238        11.2176 
 105   0.0000       0.417508        11.3610 
 106   0.0000       0.420163        11.4332 
 107   0.0000       0.424311        11.5461 
 108   0.0000       0.428890        11.6707 
 109   0.0000       0.432362        11.7652 
 110   0.0000       0.436732        11.8841 
 111   0.0000       0.443614        12.0714 
 112   0.0000       0.447190        12.1686 
 113   0.0000       0.454425        12.3655 
 114   0.0000       0.460852        12.5404 
 115   0.0000       0.465127        12.6568 
 116   0.0000       0.466524        12.6948 
 117   0.0000       0.470620        12.8062 
 118   0.0000       0.475008        12.9256 
 119   0.0000       0.480689        13.0802 
 120   0.0000       0.489104        13.3092 
 121   0.0000       0.491818        13.3830 
 122   0.0000       0.500227        13.6119 
 123   0.0000       0.504402        13.7255 
 124   0.0000       0.510137        13.8815 
 125   0.0000       0.514613        14.0033 
 126   0.0000       0.519582        14.1386 
 127   0.0000       0.533881        14.5276 
 128   0.0000       0.535789        14.5796 
 129   0.0000       0.541104        14.7242 
 130   0.0000       0.547871        14.9083 
 131   0.0000       0.555072        15.1043 
 132   0.0000       0.559967        15.2375 
 133   0.0000       0.565491        15.3878 
 134   0.0000       0.570450        15.5227 
 135   0.0000       0.573828        15.6146 
 136   0.0000       0.584643        15.9089 
 137   0.0000       0.591410        16.0931 
 138   0.0000       0.599473        16.3125 
 139   0.0000       0.601243        16.3607 
 140   0.0000       0.611458        16.6386 
 141   0.0000       0.612582        16.6692 
 142   0.0000       0.615547        16.7499 
 143   0.0000       0.617939        16.8150 
 144   0.0000       0.633863        17.2483 
 145   0.0000       0.638882        17.3849 
 146   0.0000       0.641189        17.4476 
 147   0.0000       0.642132        17.4733 
 148   0.0000       0.648885        17.6571 
 149   0.0000       0.655595        17.8396 
 150   0.0000       0.662466        18.0266 
 151   0.0000       0.674038        18.3415 
 152   0.0000       0.680508        18.5176 
 153   0.0000       0.683698        18.6044 
 154   0.0000       0.690111        18.7789 
 155   0.0000       0.697223        18.9724 
 156   0.0000       0.699672        19.0390 
 157   0.0000       0.706822        19.2336 
 158   0.0000       0.712323        19.3833 
 159   0.0000       0.716711        19.5027 
 160   0.0000       0.720562        19.6075 
 161   0.0000       0.724876        19.7249 
 162   0.0000       0.732841        19.9416 
 163   0.0000       0.734890        19.9974 
 164   0.0000       0.745172        20.2772 
 165   0.0000       0.746729        20.3195 
 166   0.0000       0.751446        20.4479 
 167   0.0000       0.753808        20.5122 
 168   0.0000       0.758804        20.6481 
 169   0.0000       0.761469        20.7206 
 170   0.0000       0.768387        20.9089 
 171   0.0000       0.776638        21.1334 
 172   0.0000       0.777543        21.1580 
 173   0.0000       0.789522        21.4840 
 174   0.0000       0.793492        21.5920 
 175   0.0000       0.797936        21.7129 
 176   0.0000       0.804009        21.8782 
 177   0.0000       0.811607        22.0849 
 178   0.0000       0.816803        22.2263 
 179   0.0000       0.827601        22.5202 
 180   0.0000       0.835311        22.7300 
 181   0.0000       0.835965        22.7478 
 182   0.0000       0.848950        23.1011 
 183   0.0000       0.853976        23.2379 
 184   0.0000       0.856843        23.3159 
 185   0.0000       0.859696        23.3935 
 186   0.0000       0.870467        23.6866 
 187   0.0000       0.876779        23.8584 
 188   0.0000       0.878599        23.9079 
 189   0.0000       0.889898        24.2153 
 190   0.0000       0.892487        24.2858 
 191   0.0000       0.896609        24.3980 
 192   0.0000       0.903228        24.5781 
 193   0.0000       0.905563        24.6416 
 194   0.0000       0.907588        24.6967 
 195   0.0000       0.917825        24.9753 
 196   0.0000       0.920263        25.0416 
 197   0.0000       0.926952        25.2237 
 198   0.0000       0.932364        25.3709 
 199   0.0000       0.939329        25.5604 
 200   0.0000       0.945725        25.7345 
 201   0.0000       0.950071        25.8527 
[...]
      f+1     :     0.000006
      f-1     :     0.000003
      f+2     :    -0.000000
      f-2     :     0.000046
      f+3     :    -0.000019
      f-3     :    -0.000021
      g0      :     0.000002  g :     0.000014
      g+1     :     0.000003
      g-1     :     0.000002
      g+2     :    -0.000001
      g-2     :     0.000005
      g+3     :     0.000007
      g-3     :     0.000004
      g+4     :    -0.000004
      g-4     :    -0.000006
  5 C s       :     0.000013  s :     0.000013
      pz      :     0.000060  p :     0.000250
      px      :     0.000043
      py      :     0.000147
      dz2     :    -0.000020  d :    -0.000049
      dxz     :    -0.000004
      dyz     :    -0.000015
      dx2y2   :    -0.000004
      dxy     :    -0.000006
      f0      :    -0.000006  f :    -0.000025
      f+1     :    -0.000004
      f-1     :     0.000002
      f+2     :    -0.000002
      f-2     :    -0.000015
      f+3     :    -0.000002
      f-3     :     0.000002
      g0      :     0.000000  g :    -0.000013
      g+1     :    -0.000005
      g-1     :    -0.000000
      g+2     :    -0.000001
      g-2     :    -0.000001
      g+3     :    -0.000001
      g-3     :    -0.000005
      g+4     :    -0.000000
      g-4     :    -0.000001
  6 H s       :    -0.023118  s :    -0.023118
      pz      :     0.072308  p :     0.089660
      px      :     0.009641
      py      :     0.007711
      dz2     :     0.002521  d :     0.059703
      dxz     :     0.038163
      dyz     :     0.009896
      dx2y2   :     0.002671
      dxy     :     0.006453
      f0      :     0.006340  f :     0.026421
      f+1     :     0.001989
      f-1     :     0.000626
      f+2     :     0.006163
      f-2     :     0.007599
      f+3     :     0.001785
      f-3     :     0.001920
  7 H s       :    -0.022708  s :    -0.022708
      pz      :     0.075352  p :     0.090897
      px      :     0.001850
      py      :     0.013695
      dz2     :     0.012516  d :     0.060734
      dxz     :     0.001418
      dyz     :     0.038547
      dx2y2   :     0.005555
      dxy     :     0.002699
      f0      :     0.002073  f :     0.026560
      f+1     :     0.000030
      f-1     :     0.011758
      f+2     :     0.008827
      f-2     :     0.000535
      f+3     :     0.001777
      f-3     :     0.001561
  8 H s       :     0.010388  s :     0.010388
      pz      :    -0.000832  p :    -0.000752
      px      :    -0.000288
      py      :     0.000369
      dz2     :     0.000095  d :     0.004634
      dxz     :     0.000602
      dyz     :     0.000312
      dx2y2   :     0.000077
      dxy     :     0.003547
      f0      :     0.000856  f :     0.002882
      f+1     :     0.001311
      f-1     :     0.000188
      f+2     :    -0.000383
      f-2     :    -0.000419
      f+3     :     0.001424
      f-3     :    -0.000095
  9 H s       :     0.023661  s :     0.023661
      pz      :    -0.000863  p :     0.004803
      px      :     0.003873
      py      :     0.001794
      dz2     :     0.000655  d :     0.002993
      dxz     :    -0.001027
      dyz     :    -0.000701
      dx2y2   :     0.000055
      dxy     :     0.004012
      f0      :    -0.000218  f :     0.001150
      f+1     :     0.000325
      f-1     :     0.000484
      f+2     :    -0.000123
      f-2     :    -0.000505
      f+3     :     0.000569
      f-3     :     0.000619
 10 H s       :    -0.000747  s :    -0.000747
      pz      :     0.000280  p :     0.000407
      px      :     0.000040
      py      :     0.000087
      dz2     :    -0.000070  d :     0.000260
      dxz     :     0.000136
      dyz     :     0.000182
      dx2y2   :    -0.000004
      dxy     :     0.000016
      f0      :    -0.000052  f :     0.000224
      f+1     :    -0.000026
      f-1     :     0.000039
      f+2     :     0.000112
      f-2     :     0.000211
      f+3     :    -0.000022
      f-3     :    -0.000038
 11 H s       :    -0.000322  s :    -0.000322
      pz      :     0.000117  p :     0.002265
      px      :     0.001551
      py      :     0.000597
      dz2     :     0.000343  d :     0.002948
      dxz     :     0.000197
      dyz     :     0.000206
      dx2y2   :     0.002091
      dxy     :     0.000111
      f0      :    -0.000006  f :     0.001125
      f+1     :     0.000247
      f-1     :     0.000020
      f+2     :     0.000176
      f-2     :     0.000194
      f+3     :     0.000497
      f-3     :    -0.000001
 12 H s       :     0.000143  s :     0.000143
      pz      :    -0.000008  p :     0.000003
      px      :     0.000041
      py      :    -0.000030
      dz2     :     0.000045  d :     0.000124
      dxz     :     0.000040
      dyz     :    -0.000018
      dx2y2   :     0.000056
      dxy     :     0.000001
      f0      :     0.000008  f :     0.000042
      f+1     :     0.000087
      f-1     :    -0.000002
      f+2     :    -0.000029
      f-2     :    -0.000010
      f+3     :    -0.000021
      f-3     :     0.000010
 13 H s       :     0.000161  s :     0.000161
      pz      :     0.000017  p :     0.000438
      px      :     0.000450
      py      :    -0.000029
      dz2     :     0.000050  d :     0.000138
      dxz     :     0.000008
      dyz     :    -0.000022
      dx2y2   :     0.000113
      dxy     :    -0.000012
      f0      :     0.000021  f :    -0.000009
      f+1     :    -0.000021
      f-1     :    -0.000002
      f+2     :     0.000015
      f-2     :    -0.000022
      f+3     :    -0.000002
      f-3     :     0.000004
 14 H s       :    -0.000012  s :    -0.000012
      pz      :     0.000006  p :     0.000043
      px      :     0.000009
      py      :     0.000028
      dz2     :     0.000002  d :     0.000028
      dxz     :     0.000005
      dyz     :    -0.000001
      dx2y2   :     0.000016
      dxy     :     0.000006
      f0      :     0.000001  f :     0.000013
      f+1     :     0.000001
      f-1     :     0.000001
      f+2     :     0.000001
      f-2     :     0.000000
      f+3     :     0.000008
      f-3     :     0.000000
 15 H s       :    -0.000013  s :    -0.000013
      pz      :     0.000014  p :     0.000046
      px      :     0.000010
      py      :     0.000022
      dz2     :     0.000022  d :     0.000047
      dxz     :     0.000006
      dyz     :     0.000006
      dx2y2   :     0.000007
      dxy     :     0.000005
      f0      :     0.000012  f :     0.000019
      f+1     :     0.000001
      f-1     :     0.000000
      f+2     :     0.000003
      f-2     :     0.000002
      f+3     :     0.000001
      f-3     :     0.000001
 16 H s       :     0.000045  s :     0.000045
      pz      :    -0.000012  p :    -0.000045
      px      :    -0.000011
      py      :    -0.000022
      dz2     :    -0.000008  d :    -0.000024
      dxz     :    -0.000006
      dyz     :    -0.000008
      dx2y2   :    -0.000006
      dxy     :     0.000004
      f0      :    -0.000006  f :    -0.000019
      f+1     :    -0.000004
      f-1     :    -0.000001
      f+2     :    -0.000003
      f-2     :    -0.000001
      f+3     :    -0.000001
      f-3     :    -0.000003


                      *****************************
                      * MAYER POPULATION ANALYSIS *
                      *****************************

  NA   - Mulliken gross atomic population
  ZA   - Total nuclear charge
  QA   - Mulliken gross atomic charge
  VA   - Mayer's total valence
  BVA  - Mayer's bonded valence
  FA   - Mayer's free valence

  ATOM       NA         ZA         QA         VA         BVA        FA
  0 C      7.0157     6.0000    -1.0157     3.6006     2.6624     0.9382
  1 C      6.2994     6.0000    -0.2994     3.6085     3.5935     0.0150
  2 C      6.2503     6.0000    -0.2503     3.3315     3.3310     0.0005
  3 C      6.2125     6.0000    -0.2125     3.5388     3.5388     0.0000
  4 C      6.6099     6.0000    -0.6099     3.5133     3.5133     0.0000
  5 C      6.8842     6.0000    -0.8842     3.6473     3.6473     0.0000
  6 H      0.6370     1.0000     0.3630     0.9267     0.9158     0.0109
  7 H      0.6655     1.0000     0.3345     0.9930     0.9809     0.0121
  8 H      0.7682     1.0000     0.2318     0.9439     0.9431     0.0008
  9 H      0.7950     1.0000     0.2050     1.0281     1.0225     0.0056
 10 H      0.7572     1.0000     0.2428     0.9484     0.9484     0.0000
 11 H      0.7469     1.0000     0.2531     0.9677     0.9677    -0.0000
 12 H      0.6982     1.0000     0.3018     0.9113     0.9113     0.0000
 13 H      0.7312     1.0000     0.2688     0.9732     0.9732     0.0000
 14 H      0.6436     1.0000     0.3564     0.9089     0.9089     0.0000
 15 H      0.7037     1.0000     0.2963     0.9904     0.9904     0.0000
 16 H      0.5815     1.0000     0.4185     0.8523     0.8523     0.0000

  Mayer bond orders larger than 0.100000
B(  0-C ,  1-C ) :   0.9201 B(  0-C ,  2-C ) :  -0.1968 B(  0-C ,  6-H ) :   0.9273 
B(  0-C ,  7-H ) :   0.9310 B(  1-C ,  2-C ) :   0.8929 B(  1-C ,  8-H ) :   0.9115 
B(  1-C ,  9-H ) :   0.8871 B(  2-C ,  3-C ) :   0.9740 B(  2-C ,  4-C ) :  -0.1142 
B(  2-C , 10-H ) :   0.8813 B(  2-C , 11-H ) :   0.8470 B(  3-C ,  4-C ) :   0.9318 
B(  3-C ,  5-C ) :  -0.1746 B(  3-C , 12-H ) :   0.8231 B(  3-C , 13-H ) :   0.8956 
B(  4-C ,  5-C ) :   1.9128 B(  4-C , 16-H ) :   0.8029 B(  5-C , 14-H ) :   0.9458 
B(  5-C , 15-H ) :   0.9384 

-------
TIMINGS
-------

Total SCF time: 0 days 0 hours 25 min 30 sec 

Total time                  ....    1530.992 sec
Sum of individual times     ....    1527.780 sec  ( 99.8%)

Fock matrix formation       ....    1506.758 sec  ( 98.4%)
Diagonalization             ....      13.090 sec  (  0.9%)
Density matrix formation    ....       0.535 sec  (  0.0%)
Population analysis         ....       0.667 sec  (  0.0%)
Initial guess               ....       1.002 sec  (  0.1%)
Orbital Transformation      ....       0.000 sec  (  0.0%)
Orbital Orthonormalization  ....       0.000 sec  (  0.0%)
DIIS solution               ....       5.639 sec  (  0.4%)


           ************************************************************
           *        Program running with 32 parallel MPI-processes    *
           *              working on a common directory               *
           ************************************************************

------------------------------------------------------------------------------
                                ORCA  MP2 
------------------------------------------------------------------------------

Freezing NCore=12 chemical core electrons

-------------
RI-MP2 ENERGY
-------------
Dimension of the basis                    ...  986
Memory devoted to MP2                     ... 4500 MB   
Data format for buffers                   ... DOUBLE
Compression type for matrix containers    ... UNCOMPRESSED
Overall scaling of the MP2 energy         ...   1.000e+00
Calculating two index integrals           ... done (    0.072 sec)
Cholesky decomposition of V**-1           ... done (    0.294 sec)

-----------------
RI-TRANSFORMATION (AUX index driven)
-----------------

Dimension of the orbital-basis         ... 986
Dimension of the aux-basis             ... 1888
Transformation of internal/external MOs...    6-  23 to   24- 985
Number Format for Storage              ... Double (8 Byte)
Integral mode                          ... Direct

First Phase: integral generation and transformation of MO indices
  Aux angular momentum 0               ... done (    0.104 sec)
  Aux angular momentum 1               ... done (    0.243 sec)
  Aux angular momentum 2               ... done (    0.332 sec)
  Aux angular momentum 3               ... done (    0.461 sec)
  Aux angular momentum 4               ... done (    0.402 sec)
  Aux angular momentum 5               ... done (    0.289 sec)
Closing buffer VIA ( 0.24 GB; CompressionRatio= 1.00)
  Phase 1 completed in     2.014 sec
Second Phase: sorting and transformation of aux index

IA-Transformation
Memory available                       ... 4365 MB 
Max. # MO pairs treated in a batch     ... 1    
# of internal orbitals                 ... 18
# batches for internal orbitals        ... 1
Closing buffer IAV ( 0.01 GB; CompressionRatio= 1.00)
(ia|v) transformation done in     0.263 sec

  Phase 2 completed in     0.705 sec
RI-Integral transformation completed in     2.733 sec

-----------------
RI-TRANSFORMATION (AUX index driven)
-----------------

Dimension of the orbital-basis         ... 986
Dimension of the aux-basis             ... 1888
Transformation of internal/external MOs...    6-  22 to   23- 985
Number Format for Storage              ... Double (8 Byte)
Integral mode                          ... Direct

First Phase: integral generation and transformation of MO indices
  Aux angular momentum 0               ... done (    0.102 sec)
  Aux angular momentum 1               ... done (    0.241 sec)
  Aux angular momentum 2               ... done (    0.336 sec)
  Aux angular momentum 3               ... done (    0.467 sec)
  Aux angular momentum 4               ... done (    0.400 sec)
  Aux angular momentum 5               ... done (    0.285 sec)
Closing buffer VIA ( 0.23 GB; CompressionRatio= 1.00)
  Phase 1 completed in     1.991 sec
Second Phase: sorting and transformation of aux index

IA-Transformation
Memory available                       ... 4365 MB 
Max. # MO pairs treated in a batch     ... 1    
# of internal orbitals                 ... 17
# batches for internal orbitals        ... 1
Closing buffer IAV ( 0.01 GB; CompressionRatio= 1.00)
(ia|v) transformation done in     0.236 sec

  Phase 2 completed in     0.678 sec
RI-Integral transformation completed in     2.679 sec
Opening buffers                              ... done

Starting loop over batches of integrals:

Operator 0  - window                       ... (  6- 23)x( 24-985)
Operator 0  - Memory available             ...  4500 MB
Operator 0  - Memory needed per MO         ...  13.9 MB
Operator 0  - Number of orbitals per batch ... 1
Operator 0  - Number of batches            ... 1

OPERATOR  0   PASS   0:  MOs     6 ...    6 +    7 ...    7 +    8 ...    8 +    9 ...    9
                            +   10 ...   10 +   11 ...   11 +   12 ...   12 +   13 ...   13
                            +   14 ...   14 +   15 ...   15 +   16 ...   16 +   17 ...   17
                            +   18 ...   18 +   19 ...   19 +   20 ...   20 +   21 ...   21
                            +   22 ...   22 +   23 ...   23
  Reading integrals       ... ok

Operator 1  - window                       ... (  6- 22)x( 23-985)
Operator 1  - Memory available             ...  4500 MB
Operator 1  - Memory needed per MO         ...  13.9 MB
Operator 1  - Number of orbitals per batch ... 1
Operator 1  - Number of batches            ... 1

OPERATOR  1   PASS   0:  MOs     6 ...    6 +    7 ...    7 +    8 ...    8 +    9 ...    9
                            +   10 ...   10 +   11 ...   11 +   12 ...   12 +   13 ...   13
                            +   14 ...   14 +   15 ...   15 +   16 ...   16 +   17 ...   17
                            +   18 ...   18 +   19 ...   19 +   20 ...   20 +   21 ...   21
                            +   22 ...   22
  Reading integrals       ... ok
Time spent in pair loops =     4.144 sec
Deleting buffer (Ka|jb)[aa] ...done
Deleting buffer (Ka|jb)[ab] ...done
Deleting buffer (Ka|jb)[ba] ...done
Deleting buffer (Ka|jb)[bb] ...done

Correlation energy components}
 E2 and T2 for alpha/alpha pairs :     -0.123013076 Eh      0.000000000
 E2 and T2 for beta/beta   pairs :     -0.108035526 Eh      0.000000000
 E2 and T2 for alpha/beta  pairs :     -0.829886535 Eh      0.000000000


-----------------------------------------------
 RI-MP2 CORRELATION ENERGY:     -1.060935137 Eh
-----------------------------------------------


-------
TIMINGS
-------

Total time                :   11.292 sec
Integral trafo            :    5.442 sec ( 48.2%)
I/O of integrals          :    0.025 sec (  0.2%)
K(i,j) Operators          :    2.371 sec ( 21.0%)
T(i,j) pair energies      :    0.164 sec (  1.5%)
V-calculation             :    0.072 sec (  0.6%)
V**(-1/2)                 :    0.294 sec (  2.6%)
Gamma(ia|P)               :    0.000 sec (  0.0%)
Gamma-Trafo               :    0.000 sec (  0.0%)
D(virtual)                :    0.000 sec (  0.0%)
D(internal)               :    0.000 sec (  0.0%)
W(virtual)                :    0.000 sec (  0.0%)
W(internal)               :    0.000 sec (  0.0%)
L(virtual)                :    0.000 sec (  0.0%)
L(internal)               :    0.000 sec (  0.0%)
G(D)                      :    0.000 sec (  0.0%)
G(Z)                      :    0.000 sec (  0.0%)
Z-Vector Solution         :    0.000 sec (  0.0%)
3-Index Derivative        :    0.000 sec (  0.0%)
2-Index Derivative        :    0.000 sec (  0.0%)
Separable Gradient        :    0.000 sec (  0.0%)


---------------------------------------
MP2 TOTAL ENERGY:     -234.703819709 Eh
---------------------------------------

-------------------------   --------------------
FINAL SINGLE POINT ENERGY      -234.703819709356
-------------------------   --------------------


                            ***************************************
                            *     ORCA property calculations      *
                            ***************************************


  WARNING: The energy has been calculated at the MP2 level but the densities
           used in the property calculations are still SCF densities
           MP2 response densities have not been calculated 
           use %mp2 Density relaxed end
           or  %mp2 Density unrelaxed end

                                    ---------------------
                                    Active property flags
                                    ---------------------
   (+) Dipole Moment


------------------------------------------------------------------------------
                       ORCA ELECTRIC PROPERTIES CALCULATION
------------------------------------------------------------------------------

Dipole Moment Calculation                       ... on
Quadrupole Moment Calculation                   ... off
Polarizability Calculation                      ... off
GBWName                                         ... /tmp/pbs.2143093.pbsha.ib.sockeye/MP2augccpVQZ_01_7R.gbw
Electron density file                           ... /tmp/pbs.2143093.pbsha.ib.sockeye/MP2augccpVQZ_01_7R.scfp
The origin for moment calculation is the CENTER OF MASS  = ( 0.033546, -0.004472  0.008448)

-------------
DIPOLE MOMENT
-------------
                                X             Y             Z
Electronic contribution:      1.47177      -0.12707       0.41225
Nuclear contribution   :     -1.57667       0.21018      -0.39703
                        -----------------------------------------
Total Dipole Moment    :     -0.10489       0.08312       0.01522
                        -----------------------------------------
Magnitude (a.u.)       :      0.13469
Magnitude (Debye)      :      0.34237



--------------------
Rotational spectrum 
--------------------
 
Rotational constants in cm-1:     0.476995     0.043170     0.042275 
Rotational constants in MHz : 14299.939220  1294.211698  1267.368368 

 Dipole components along the rotational axes: 
x,y,z [a.u.] :     0.104695    -0.084247    -0.009163 
x,y,z [Debye]:     0.266114    -0.214138    -0.023290 

 

Timings for individual modules:

Sum of individual times         ...     1549.285 sec (=  25.821 min)
GTO integral calculation        ...        3.269 sec (=   0.054 min)   0.2 %
SCF iterations                  ...     1532.610 sec (=  25.543 min)  98.9 %
MP2 module                      ...       13.405 sec (=   0.223 min)   0.9 %
                             ****ORCA TERMINATED NORMALLY****
TOTAL RUN TIME: 0 days 0 hours 25 minutes 51 seconds 112 msec
