
                                 *****************
                                 * O   R   C   A *
                                 *****************

           --- An Ab Initio, DFT and Semiempirical electronic structure package ---

                  #######################################################
                  #                        -***-                        #
                  #          Department of theory and spectroscopy      #
                  #               Directorship: Frank Neese             #
                  #        Max Planck Institute fuer Kohlenforschung    #
                  #                Kaiser Wilhelm Platz 1               #
                  #                 D-45470 Muelheim/Ruhr               #
                  #                      Germany                        #
                  #                                                     #
                  #                  All rights reserved                #
                  #                        -***-                        #
                  #######################################################


                         Program Version 4.2.1 -  RELEASE  -


 With contributions from (in alphabetic order):
   Daniel Aravena         : Magnetic Suceptibility
   Michael Atanasov       : Ab Initio Ligand Field Theory (pilot matlab implementation)
   Alexander A. Auer      : GIAO ZORA, VPT2
   Ute Becker             : Parallelization
   Giovanni Bistoni       : ED, misc. LED, open-shell LED, HFLD
   Martin Brehm           : Molecular dynamics
   Dmytro Bykov           : SCF Hessian
   Vijay G. Chilkuri      : MRCI spin determinant printing, contributions to CSF-ICE
   Dipayan Datta          : RHF DLPNO-CCSD density
   Achintya Kumar Dutta   : EOM-CC, STEOM-CC
   Dmitry Ganyushin       : Spin-Orbit,Spin-Spin,Magnetic field MRCI
   Miquel Garcia          : C-PCM Hessian, Gaussian charge scheme
   Yang Guo               : DLPNO-NEVPT2, CIM, IAO-localization
   Andreas Hansen         : Spin unrestricted coupled pair/coupled cluster methods
   Benjamin Helmich-Paris : CASSCF linear response (MC-RPA)
   Lee Huntington         : MR-EOM, pCC
   Robert Izsak           : Overlap fitted RIJCOSX, COSX-SCS-MP3, EOM
   Christian Kollmar      : KDIIS, OOCD, Brueckner-CCSD(T), CCSD density
   Simone Kossmann        : Meta GGA functionals, TD-DFT gradient, OOMP2, MP2 Hessian
   Martin Krupicka        : AUTO-CI
   Lucas Lang             : DCDCAS
   Dagmar Lenk            : GEPOL surface, SMD
   Dimitrios Liakos       : Extrapolation schemes; Compound Job, initial MDCI parallelization
   Dimitrios Manganas     : Further ROCIS development; embedding schemes
   Dimitrios Pantazis     : SARC Basis sets
   Taras Petrenko         : DFT Hessian,TD-DFT gradient, ASA, ECA, R-Raman, ABS, FL, XAS/XES, NRVS
   Peter Pinski           : DLPNO-MP2, DLPNO-MP2 Gradient
   Christoph Reimann      : Effective Core Potentials
   Marius Retegan         : Local ZFS, SOC
   Christoph Riplinger    : Optimizer, TS searches, QM/MM, DLPNO-CCSD(T), (RO)-DLPNO pert. Triples
   Tobias Risthaus        : Range-separated hybrids, TD-DFT gradient, RPA, STAB
   Michael Roemelt        : Original ROCIS implementation
   Masaaki Saitow         : Open-shell DLPNO-CCSD energy and density
   Barbara Sandhoefer     : DKH picture change effects
   Avijit Sen             : IP-ROCIS
   Kantharuban Sivalingam : CASSCF convergence, NEVPT2, FIC-MRCI
   Bernardo de Souza      : ESD, SOC TD-DFT
   Georgi Stoychev        : AutoAux, RI-MP2 NMR
   Willem Van den Heuvel  : Paramagnetic NMR
   Boris Wezisla          : Elementary symmetry handling
   Frank Wennmohs         : Technical directorship


 We gratefully acknowledge several colleagues who have allowed us to
 interface, adapt or use parts of their codes:
   Stefan Grimme, W. Hujo, H. Kruse,             : VdW corrections, initial TS optimization,
                  C. Bannwarth                     DFT functionals, gCP, sTDA/sTD-DF
   Ed Valeev, F. Pavosevic, A. Kumar             : LibInt (2-el integral package), F12 methods
   Garnet Chan, S. Sharma, J. Yang, R. Olivares  : DMRG
   Ulf Ekstrom                                   : XCFun DFT Library
   Mihaly Kallay                                 : mrcc  (arbitrary order and MRCC methods)
   Andreas Klamt, Michael Diedenhofen            : otool_cosmo (COSMO solvation model)
   Jiri Pittner, Ondrej Demel                    : Mk-CCSD
   Frank Weinhold                                : gennbo (NPA and NBO analysis)
   Christopher J. Cramer and Donald G. Truhlar   : smd solvation model
   Lars Goerigk                                  : TD-DFT with DH, B97 family of functionals
   V. Asgeirsson, H. Jonsson                     : NEB implementation
   FAccTs GmbH                                   : IRC, NEB, NEB-TS, Multilevel, MM, QM/MM, CI optimization
   S Lehtola, MJT Oliveira, MAL Marques          : LibXC Library


 Your calculation uses the libint2 library for the computation of 2-el integrals
 For citations please refer to: http://libint.valeyev.net

 Your ORCA version has been built with support for libXC version: 4.2.3
 For citations please refer to: https://tddft.org/programs/libxc/

 This ORCA versions uses:
   CBLAS   interface :  Fast vector & matrix operations
   LAPACKE interface :  Fast linear algebra routines
   SCALAPACK package :  Parallel linear algebra routines




***************************************
The coordinates will be read from file: 04_62P2.xyz
***************************************


----- Orbital basis set information -----
Your calculation utilizes the basis: aug-cc-pVQZ 
    H, B-Ne : Obtained from the ccRepo (grant-hill.group.shef.ac.uk/ccrepo) Feb. 2017
              R. A. Kendall, T. H. Dunning, Jr., R. J. Harrison, J. Chem. Phys. 96, 6796 (1992)
         He : Obtained from the ccRepo (grant-hill.group.shef.ac.uk/ccrepo) Feb. 2017
              D. E. Woon, T. H. Dunning, Jr., J. Chem. Phys. 100, 2975 (1994)
  Li-Be, Na : Obtained from the ccRepo (grant-hill.group.shef.ac.uk/ccrepo) Feb. 2017
              B. P. Prascher, D. E. Woon, K. A. Peterson, T. H. Dunning, Jr., A. K. Wilson, Theor. Chem. Acc. 128, 69 (2011)
         Mg : Obtained from the Peterson Research Group Website (tyr0.chem.wsu.edu/~kipeters) Feb. 2017
              B. P. Prascher, D. E. Woon, K. A. Peterson, T. H. Dunning, Jr., A. K. Wilson, Theor. Chem. Acc. 128, 69 (2011)
      Al-Ar : Obtained from the ccRepo (grant-hill.group.shef.ac.uk/ccrepo) Feb. 2017
              D. E. Woon, T. H. Dunning, Jr., J. Chem. Phys. 98, 1358 (1993)
      Sc-Zn : Obtained from the ccRepo (grant-hill.group.shef.ac.uk/ccrepo) Feb. 2017
              N. B. Balabanov, K. A. Peterson, J. Chem. Phys. 123, 064107 (2005)
              N. B. Balabanov, K. A. Peterson, J. Chem. Phys. 125, 074110 (2006)
      Ga-Kr : Obtained from the ccRepo (grant-hill.group.shef.ac.uk/ccrepo) Feb. 2017
              A. K. Wilson, D. E. Woon, K. A. Peterson, T. H. Dunning, Jr., J. Chem. Phys. 110, 7667 (1999)

----- AuxC basis set information -----
Your calculation utilizes the auxiliary basis: aug-cc-pVQZ/C 
  H-He, B-F, Al-Ar, Ga-Kr : Obtained from the EMSL Basis Set Exchange (bse.pnl.gov) Feb. 2017
                            F. Weigend, A. Kohn, C. Hattig, J. Chem. Phys. 116, 3175 (2002)
                   Be, Mg : Obtained from the TURBOMOLE 7.0 basis set library
                            C. Haettig, Phys. Chem. Chem. Phys. 7, 59 (2005)
                       Ne : Obtained from the EMSL Basis Set Exchange (bse.pnl.gov) Feb. 2017
                            C. Haettig, Phys. Chem. Chem. Phys. 7, 59 (2005)
                            F. Weigend, A. Kohn, C. Hattig, J. Chem. Phys. 116, 3175 (2002)
                    Sc-Zn : Obtained from the EMSL Basis Set Exchange (bse.pnl.gov) Feb. 2017
                            D. H. Bross, J. G. Hill, H. J. Werner, K. A. Peterson, J. Chem. Phys. 139, 094302 (2013)

================================================================================
                                        WARNINGS
                       Please study these warnings very carefully!
================================================================================


WARNING: No MP2 level density has been requested!
         To caclulate MP2 level properties use
         %mp2 Density relaxed end
         or
         %mp2 Density unrelaxed end

WARNING: Post HF methods need fully converged wavefunctions
  ===> : Setting SCFConvForced true
         You can overwrite this default with %scf ConvForced false 


INFO   : the flag for use of LIBINT has been found!

================================================================================
                                       INPUT FILE
================================================================================
NAME = /tmp/pbs.2143742.pbsha.ib.sockeye/MP2augccpVQZ_04_62P2.inp
|  1> %pal
|  2>  nprocs 32
|  3> end
|  4> !RI-MP2 aug-cc-pVQZ aug-cc-pVQZ/C TightSCF
|  5> %maxcore 4500
|  6> *xyzfile 0 1  04_62P2.xyz
|  7> 
|  8> 
|  9>                          ****END OF INPUT****
================================================================================

                       ****************************
                       * Single Point Calculation *
                       ****************************

---------------------------------
CARTESIAN COORDINATES (ANGSTROEM)
---------------------------------
  C      1.388317   -0.122941    0.000022
  C     -0.088371    0.125751   -0.000012
  O     -0.625843    1.199017   -0.000034
  O     -0.788572   -1.028404    0.000008
  H     -1.727330   -0.794605    0.000010
  H      1.917158    0.826074   -0.000212
  H      1.662905   -0.706849   -0.879591
  H      1.662911   -0.706389    0.879941

----------------------------
CARTESIAN COORDINATES (A.U.)
----------------------------
  NO LB      ZA    FRAG     MASS         X           Y           Z
   0 C     6.0000    0    12.011    2.623539   -0.232325    0.000042
   1 C     6.0000    0    12.011   -0.166997    0.237635   -0.000023
   2 O     8.0000    0    15.999   -1.182672    2.265814   -0.000064
   3 O     8.0000    0    15.999   -1.490185   -1.943402    0.000015
   4 H     1.0000    0     1.008   -3.264181   -1.501586    0.000019
   5 H     1.0000    0     1.008    3.622904    1.561054   -0.000401
   6 H     1.0000    0     1.008    3.142435   -1.335751   -1.662186
   7 H     1.0000    0     1.008    3.142446   -1.334882    1.662848

--------------------------------
INTERNAL COORDINATES (ANGSTROEM)
--------------------------------
 C      0   0   0     0.000000000000     0.00000000     0.00000000
 C      1   0   0     1.497482941928     0.00000000     0.00000000
 O      2   1   0     1.200323313955   126.16046455     0.00000000
 O      2   1   3     1.349946371093   111.68469413   180.00108082
 H      4   2   1     0.967434005485   107.25920832   179.99840219
 H      1   2   3     1.086417198070   109.56925446     0.00000000
 H      1   2   3     1.090901531751   109.69937275   238.92059238
 H      1   2   3     1.090903698821   109.69762900   121.05005600

---------------------------
INTERNAL COORDINATES (A.U.)
---------------------------
 C      0   0   0     0.000000000000     0.00000000     0.00000000
 C      1   0   0     2.829832650462     0.00000000     0.00000000
 O      2   1   0     2.268282335536   126.16046455     0.00000000
 O      2   1   3     2.551028936846   111.68469413   180.00108082
 H      4   2   1     1.828185323009   107.25920832   179.99840219
 H      1   2   3     2.053030971534   109.56925446     0.00000000
 H      1   2   3     2.061505134085   109.69937275   238.92059238
 H      1   2   3     2.061509229253   109.69762900   121.05005600

---------------------
BASIS SET INFORMATION
---------------------
There are 3 groups of distinct atoms

 Group   1 Type C   : 22s7p4d3f2g contracted to 6s5p4d3f2g pattern {991111/31111/1111/111/11}
 Group   2 Type O   : 22s7p4d3f2g contracted to 6s5p4d3f2g pattern {991111/31111/1111/111/11}
 Group   3 Type H   : 7s4p3d2f contracted to 5s4p3d2f pattern {31111/1111/111/11}

Atom   0C    basis set group =>   1
Atom   1C    basis set group =>   1
Atom   2O    basis set group =>   2
Atom   3O    basis set group =>   2
Atom   4H    basis set group =>   3
Atom   5H    basis set group =>   3
Atom   6H    basis set group =>   3
Atom   7H    basis set group =>   3
---------------------------------
AUXILIARY/C BASIS SET INFORMATION
---------------------------------
There are 3 groups of distinct atoms

 Group   1 Type C   : 9s8p7d6f4g2h contracted to 9s8p7d6f4g2h pattern {111111111/11111111/1111111/111111/1111/11}
 Group   2 Type O   : 9s8p7d6f4g2h contracted to 9s8p7d6f4g2h pattern {111111111/11111111/1111111/111111/1111/11}
 Group   3 Type H   : 6s5p4d3f2g contracted to 6s5p4d3f2g pattern {111111/11111/1111/111/11}

Atom   0C    basis set group =>   1
Atom   1C    basis set group =>   1
Atom   2O    basis set group =>   2
Atom   3O    basis set group =>   2
Atom   4H    basis set group =>   3
Atom   5H    basis set group =>   3
Atom   6H    basis set group =>   3
Atom   7H    basis set group =>   3


           ************************************************************
           *        Program running with 32 parallel MPI-processes    *
           *              working on a common directory               *
           ************************************************************
------------------------------------------------------------------------------
                           ORCA GTO INTEGRAL CALCULATION
------------------------------------------------------------------------------

                         BASIS SET STATISTICS AND STARTUP INFO

 # of primitive gaussian shells          ...  216
 # of primitive gaussian functions       ...  600
 # of contracted shells                  ...  136
 # of contracted basis functions         ...  504
 Highest angular momentum                ...    4
 Maximum contraction depth               ...    9
 Integral package used                   ... LIBINT
 Integral threshhold            Thresh   ...  2.500e-11
 Primitive cut-off              TCut     ...  2.500e-12


------------------------------ INTEGRAL EVALUATION ----------------------------


 * One electron integrals 
 Pre-screening matrix                    ... done
 Shell pair data                         ... done (   0.003 sec)



           ************************************************************
           *        Program running with 32 parallel MPI-processes    *
           *              working on a common directory               *
           ************************************************************
-------------------------------------------------------------------------------
                                 ORCA SCF
-------------------------------------------------------------------------------

------------
SCF SETTINGS
------------
Hamiltonian:
 Ab initio Hamiltonian  Method          .... Hartree-Fock(GTOs)


General Settings:
 Integral files         IntName         .... /tmp/pbs.2143742.pbsha.ib.sockeye/MP2augccpVQZ_04_62P2
 Hartree-Fock type      HFTyp           .... RHF
 Total Charge           Charge          ....    0
 Multiplicity           Mult            ....    1
 Number of Electrons    NEL             ....   32
 Basis Dimension        Dim             ....  504
 Nuclear Repulsion      ENuc            ....    121.5386703681 Eh

Convergence Acceleration:
 DIIS                   CNVDIIS         .... on
   Start iteration      DIISMaxIt       ....    12
   Startup error        DIISStart       ....  0.200000
   # of expansion vecs  DIISMaxEq       ....     5
   Bias factor          DIISBfac        ....   1.050
   Max. coefficient     DIISMaxC        ....  10.000
 Newton-Raphson         CNVNR           .... off
 SOSCF                  CNVSOSCF        .... on
   Start iteration      SOSCFMaxIt      ....   150
   Startup grad/error   SOSCFStart      ....  0.003300
 Level Shifting         CNVShift        .... on
   Level shift para.    LevelShift      ....    0.2500
   Turn off err/grad.   ShiftErr        ....    0.0010
 Zerner damping         CNVZerner       .... off
 Static damping         CNVDamp         .... on
   Fraction old density DampFac         ....    0.7000
   Max. Damping (<1)    DampMax         ....    0.9800
   Min. Damping (>=0)   DampMin         ....    0.0000
   Turn off err/grad.   DampErr         ....    0.1000
 Fernandez-Rico         CNVRico         .... off

SCF Procedure:
 Maximum # iterations   MaxIter         ....   125
 SCF integral mode      SCFMode         .... Direct
   Integral package                     .... LIBINT
 Reset frequency        DirectResetFreq ....    20
 Integral Threshold     Thresh          ....  2.500e-11 Eh
 Primitive CutOff       TCut            ....  2.500e-12 Eh

Convergence Tolerance:
 Convergence Check Mode ConvCheckMode   .... Total+1el-Energy
 Convergence forced     ConvForced      .... 1
 Energy Change          TolE            ....  1.000e-08 Eh
 1-El. energy change                    ....  1.000e-05 Eh
 Orbital Gradient       TolG            ....  1.000e-05
 Orbital Rotation angle TolX            ....  1.000e-05
 DIIS Error             TolErr          ....  5.000e-07


Diagonalization of the overlap matrix:
Smallest eigenvalue                        ... 5.442e-06
Time for diagonalization                   ...    0.066 sec
Threshold for overlap eigenvalues          ... 1.000e-08
Number of eigenvalues below threshold      ... 0
Time for construction of square roots      ...    0.040 sec
Total time needed                          ...    0.108 sec

-------------------
DFT GRID GENERATION
-------------------

General Integration Accuracy     IntAcc      ...  4.340
Radial Grid Type                 RadialGrid  ... Gauss-Chebyshev
Angular Grid (max. acc.)         AngularGrid ... Lebedev-110
Angular grid pruning method      GridPruning ... 3 (G Style)
Weight generation scheme         WeightScheme... Becke
Basis function cutoff            BFCut       ...    1.0000e-11
Integration weight cutoff        WCut        ...    1.0000e-14
Grids for H and He will be reduced by one unit

# of grid points (after initial pruning)     ...   9920 (   0.0 sec)
# of grid points (after weights+screening)   ...   9555 (   0.0 sec)
nearest neighbour list constructed           ...    0.0 sec
Grid point re-assignment to atoms done       ...    0.0 sec
Grid point division into batches done        ...    0.0 sec
Reduced shell lists constructed in    0.0 sec

Total number of grid points                  ...     9555
Total number of batches                      ...      154
Average number of points per batch           ...       62
Average number of grid points per atom       ...     1194
Average number of shells per batch           ...   102.00 (75.00%)
Average number of basis functions per batch  ...   384.00 (76.19%)
Average number of large shells per batch     ...    93.83 (91.99%)
Average number of large basis fcns per batch ...   352.83 (91.88%)
Maximum spatial batch extension              ...   1.80,  1.87,  1.96 au
Average spatial batch extension              ...   0.05,  0.06,  0.05 au

Time for grid setup =    0.033 sec

------------------------------
INITIAL GUESS: MODEL POTENTIAL
------------------------------
Loading Hartree-Fock densities                     ... done
Calculating cut-offs                               ... done
Setting up the integral package                    ... done
Initializing the effective Hamiltonian             ... done
Starting the Coulomb interaction                   ... done (   0.0 sec)
Reading the grid                                   ... done
Mapping shells                                     ... done
Starting the XC term evaluation                    ... done (   0.0 sec)
Transforming the Hamiltonian                       ... done (   0.0 sec)
Diagonalizing the Hamiltonian                      ... done (   0.0 sec)
Back transforming the eigenvectors                 ... done (   0.0 sec)
Now organizing SCF variables                       ... done
                      ------------------
                      INITIAL GUESS DONE (   0.2 sec)
                      ------------------
--------------
SCF ITERATIONS
--------------
ITER       Energy         Delta-E        Max-DP      RMS-DP      [F,P]     Damp
               ***  Starting incremental Fock matrix formation  ***
  0   -227.7014603087   0.000000000000 0.06045262  0.00045219  0.3598818 0.7000
  1   -227.7803509247  -0.078890615999 0.04423245  0.00034157  0.2195238 0.7000
                               ***Turning on DIIS***
  2   -227.8262712705  -0.045920345800 0.03159678  0.00024029  0.1286442 0.7000
  3   -228.2634020507  -0.437130780156 0.07771750  0.00058945  0.0789105 0.0000
  4   -227.8909660152   0.372436035452 0.00474479  0.00005067  0.0085197 0.0000
  5   -227.9184022731  -0.027436257900 0.00212560  0.00002312  0.0046471 0.0000
                      *** Initiating the SOSCF procedure ***
                           *** Shutting down DIIS ***
                      *** Re-Reading the Fockian *** 
                      *** Removing any level shift *** 
ITER      Energy       Delta-E        Grad      Rot      Max-DP    RMS-DP
  6   -227.91682202   0.0015802528  0.001790  0.001790  0.001054  0.000012
               *** Restarting incremental Fock matrix formation ***
  7   -227.92122403  -0.0044020105  0.000520  0.000805  0.000389  0.000006
  8   -227.92123255  -0.0000085185  0.000476  0.001422  0.000714  0.000006
  9   -227.92123606  -0.0000035098  0.000090  0.000131  0.000139  0.000001
 10   -227.92123630  -0.0000002414  0.000031  0.000050  0.000047  0.000001
 11   -227.92123633  -0.0000000268  0.000012  0.000022  0.000020  0.000000
 12   -227.92123633  -0.0000000033  0.000003  0.000005  0.000003  0.000000
                  ***Gradient check signals convergence***
              ***Rediagonalizing the Fockian in SOSCF/NRSCF***

               *****************************************************
               *                     SUCCESS                       *
               *           SCF CONVERGED AFTER  13 CYCLES          *
               *****************************************************


----------------
TOTAL SCF ENERGY
----------------

Total Energy       :         -227.92123633 Eh           -6202.05215 eV

Components:
Nuclear Repulsion  :          121.53867037 Eh            3307.23536 eV
Electronic Energy  :         -349.45990670 Eh           -9509.28750 eV
One Electron Energy:         -552.53342820 Eh          -15035.19896 eV
Two Electron Energy:          203.07352150 Eh            5525.91145 eV

Virial components:
Potential Energy   :         -455.59344669 Eh          -12397.32795 eV
Kinetic Energy     :          227.67221036 Eh            6195.27581 eV
Virial Ratio       :            2.00109379


---------------
SCF CONVERGENCE
---------------

  Last Energy change         ...   -4.2581e-10  Tolerance :   1.0000e-08
  Last MAX-Density change    ...    1.8931e-06  Tolerance :   1.0000e-07
  Last RMS-Density change    ...    1.9581e-08  Tolerance :   5.0000e-09
  Last Orbital Gradient      ...    6.9370e-07  Tolerance :   1.0000e-05
  Last Orbital Rotation      ...    9.9903e-07  Tolerance :   1.0000e-05

             **** THE GBW FILE WAS UPDATED (/tmp/pbs.2143742.pbsha.ib.sockeye/MP2augccpVQZ_04_62P2.gbw) ****
             **** DENSITY FILE WAS UPDATED (/tmp/pbs.2143742.pbsha.ib.sockeye/MP2augccpVQZ_04_62P2.scfp) ****
             **** ENERGY FILE WAS UPDATED (/tmp/pbs.2143742.pbsha.ib.sockeye/MP2augccpVQZ_04_62P2.en.tmp) ****
             **** THE GBW FILE WAS UPDATED (/tmp/pbs.2143742.pbsha.ib.sockeye/MP2augccpVQZ_04_62P2.gbw) ****
             **** DENSITY FILE WAS UPDATED (/tmp/pbs.2143742.pbsha.ib.sockeye/MP2augccpVQZ_04_62P2.scfp) ****
----------------
ORBITAL ENERGIES
----------------

  NO   OCC          E(Eh)            E(eV) 
   0   2.0000     -20.611118      -560.8570 
   1   2.0000     -20.548156      -559.1438 
   2   2.0000     -11.387123      -309.8594 
   3   2.0000     -11.245740      -306.0121 
   4   2.0000      -1.468933       -39.9717 
   5   2.0000      -1.364328       -37.1253 
   6   2.0000      -1.029693       -28.0194 
   7   2.0000      -0.826340       -22.4858 
   8   2.0000      -0.707220       -19.2444 
   9   2.0000      -0.683638       -18.6027 
  10   2.0000      -0.653629       -17.7862 
  11   2.0000      -0.585945       -15.9444 
  12   2.0000      -0.575330       -15.6555 
  13   2.0000      -0.563062       -15.3217 
  14   2.0000      -0.486171       -13.2294 
  15   2.0000      -0.456782       -12.4297 
  16   0.0000       0.024378         0.6634 
  17   0.0000       0.034721         0.9448 
  18   0.0000       0.040372         1.0986 
  19   0.0000       0.046065         1.2535 
  20   0.0000       0.069897         1.9020 
  21   0.0000       0.084481         2.2989 
  22   0.0000       0.085123         2.3163 
  23   0.0000       0.101182         2.7533 
  24   0.0000       0.106638         2.9018 
  25   0.0000       0.110181         2.9982 
  26   0.0000       0.118678         3.2294 
  27   0.0000       0.145764         3.9664 
  28   0.0000       0.147025         4.0008 
  29   0.0000       0.153059         4.1650 
  30   0.0000       0.159672         4.3449 
  31   0.0000       0.161931         4.4064 
  32   0.0000       0.182562         4.9678 
  33   0.0000       0.197058         5.3622 
  34   0.0000       0.202699         5.5157 
  35   0.0000       0.205207         5.5840 
  36   0.0000       0.218827         5.9546 
  37   0.0000       0.230146         6.2626 
  38   0.0000       0.239681         6.5220 
  39   0.0000       0.255222         6.9449 
  40   0.0000       0.261595         7.1184 
  41   0.0000       0.267855         7.2887 
  42   0.0000       0.278073         7.5667 
  43   0.0000       0.280024         7.6199 
  44   0.0000       0.288670         7.8551 
  45   0.0000       0.302721         8.2375 
  46   0.0000       0.307329         8.3628 
  47   0.0000       0.309447         8.4205 
  48   0.0000       0.319219         8.6864 
  49   0.0000       0.333633         9.0786 
  50   0.0000       0.335230         9.1221 
  51   0.0000       0.342276         9.3138 
  52   0.0000       0.345018         9.3884 
  53   0.0000       0.362581         9.8663 
  54   0.0000       0.371739        10.1155 
  55   0.0000       0.377512        10.2726 
  56   0.0000       0.390646        10.6300 
  57   0.0000       0.395918        10.7735 
  58   0.0000       0.401346        10.9212 
  59   0.0000       0.409073        11.1314 
  60   0.0000       0.439258        11.9528 
  61   0.0000       0.441115        12.0033 
  62   0.0000       0.461110        12.5474 
  63   0.0000       0.484304        13.1786 
  64   0.0000       0.493078        13.4173 
  65   0.0000       0.511599        13.9213 
  66   0.0000       0.549987        14.9659 
  67   0.0000       0.551460        15.0060 
  68   0.0000       0.569877        15.5071 
  69   0.0000       0.579107        15.7583 
  70   0.0000       0.584538        15.9061 
  71   0.0000       0.608224        16.5506 
  72   0.0000       0.612422        16.6649 
  73   0.0000       0.613638        16.6979 
  74   0.0000       0.618221        16.8226 
  75   0.0000       0.625161        17.0115 
  76   0.0000       0.639403        17.3990 
  77   0.0000       0.648751        17.6534 
  78   0.0000       0.665640        18.1130 
  79   0.0000       0.670900        18.2561 
  80   0.0000       0.674937        18.3660 
  81   0.0000       0.681544        18.5458 
  82   0.0000       0.685516        18.6538 
  83   0.0000       0.691635        18.8203 
  84   0.0000       0.703797        19.1513 
  85   0.0000       0.719078        19.5671 
  86   0.0000       0.720768        19.6131 
  87   0.0000       0.728343        19.8192 
  88   0.0000       0.754656        20.5352 
  89   0.0000       0.759539        20.6681 
  90   0.0000       0.768172        20.9030 
  91   0.0000       0.771257        20.9870 
  92   0.0000       0.779044        21.1989 
  93   0.0000       0.798694        21.7336 
  94   0.0000       0.806766        21.9532 
  95   0.0000       0.824263        22.4293 
  96   0.0000       0.837051        22.7773 
  97   0.0000       0.848832        23.0979 
  98   0.0000       0.858504        23.3611 
  99   0.0000       0.864418        23.5220 
 100   0.0000       0.871610        23.7177 
 101   0.0000       0.899548        24.4779 
 102   0.0000       0.901842        24.5404 
 103   0.0000       0.915608        24.9149 
 104   0.0000       0.922613        25.1056 
 105   0.0000       0.935720        25.4622 
 106   0.0000       0.959934        26.1211 
 107   0.0000       0.963256        26.2115 
 108   0.0000       0.983675        26.7672 
 109   0.0000       0.985156        26.8075 
 110   0.0000       1.008916        27.4540 
 111   0.0000       1.017798        27.6957 
 112   0.0000       1.040919        28.3248 
 113   0.0000       1.043409        28.3926 
 114   0.0000       1.079065        29.3628 
 115   0.0000       1.082416        29.4540 
 116   0.0000       1.093000        29.7420 
 117   0.0000       1.094779        29.7904 
 118   0.0000       1.106795        30.1174 
 119   0.0000       1.119616        30.4663 
 120   0.0000       1.156164        31.4608 
 121   0.0000       1.164595        31.6902 
 122   0.0000       1.188594        32.3433 
 123   0.0000       1.203044        32.7365 
 124   0.0000       1.207061        32.8458 
 125   0.0000       1.214328        33.0435 
 126   0.0000       1.217690        33.1350 
 127   0.0000       1.239582        33.7308 
 128   0.0000       1.267958        34.5029 
 129   0.0000       1.275958        34.7206 
 130   0.0000       1.308867        35.6161 
 131   0.0000       1.312432        35.7131 
 132   0.0000       1.333003        36.2729 
 133   0.0000       1.355443        36.8835 
 134   0.0000       1.367585        37.2139 
 135   0.0000       1.408275        38.3211 
 136   0.0000       1.443967        39.2923 
 137   0.0000       1.463306        39.8186 
 138   0.0000       1.474779        40.1308 
 139   0.0000       1.479613        40.2623 
 140   0.0000       1.509891        41.0862 
 141   0.0000       1.521353        41.3981 
 142   0.0000       1.538733        41.8711 
 143   0.0000       1.542191        41.9651 
 144   0.0000       1.557855        42.3914 
 145   0.0000       1.560868        42.4734 
 146   0.0000       1.585697        43.1490 
 147   0.0000       1.587127        43.1879 
 148   0.0000       1.612578        43.8805 
 149   0.0000       1.634782        44.4847 
 150   0.0000       1.663248        45.2593 
 151   0.0000       1.665886        45.3311 
 152   0.0000       1.686406        45.8894 
 153   0.0000       1.696661        46.1685 
 154   0.0000       1.698635        46.2222 
 155   0.0000       1.724630        46.9296 
 156   0.0000       1.736353        47.2486 
 157   0.0000       1.757286        47.8182 
 158   0.0000       1.758660        47.8556 
 159   0.0000       1.799561        48.9685 
 160   0.0000       1.813009        49.3345 
 161   0.0000       1.816004        49.4160 
 162   0.0000       1.826848        49.7111 
 163   0.0000       1.844629        50.1949 
 164   0.0000       1.857369        50.5416 
 165   0.0000       1.881671        51.2029 
 166   0.0000       1.884295        51.2743 
 167   0.0000       1.894657        51.5562 
 168   0.0000       1.926645        52.4267 
 169   0.0000       1.928404        52.4745 
 170   0.0000       1.939852        52.7861 
 171   0.0000       1.943223        52.8778 
 172   0.0000       1.952237        53.1231 
 173   0.0000       1.964701        53.4622 
 174   0.0000       1.986069        54.0437 
 175   0.0000       1.990272        54.1580 
 176   0.0000       2.007630        54.6304 
 177   0.0000       2.017516        54.8994 
 178   0.0000       2.026296        55.1383 
 179   0.0000       2.029333        55.2210 
 180   0.0000       2.043113        55.5959 
 181   0.0000       2.062496        56.1234 
 182   0.0000       2.064664        56.1824 
 183   0.0000       2.075626        56.4806 
 184   0.0000       2.083445        56.6934 
 185   0.0000       2.100444        57.1560 
 186   0.0000       2.137321        58.1594 
 187   0.0000       2.154321        58.6221 
 188   0.0000       2.159683        58.7680 
 189   0.0000       2.162231        58.8373 
 190   0.0000       2.183724        59.4222 
 191   0.0000       2.192248        59.6541 
 192   0.0000       2.202843        59.9424 
 193   0.0000       2.203523        59.9609 
 194   0.0000       2.236122        60.8480 
 195   0.0000       2.241331        60.9897 
 196   0.0000       2.252092        61.2825 
 197   0.0000       2.274978        61.9053 
 198   0.0000       2.275226        61.9120 
 199   0.0000       2.308018        62.8044 
 200   0.0000       2.308264        62.8111 
 201   0.0000       2.328075        63.3501 
 202   0.0000       2.340504        63.6883 
 203   0.0000       2.358315        64.1730 
 204   0.0000       2.360986        64.2457 
 205   0.0000       2.367877        64.4332 
 206   0.0000       2.404706        65.4354 
 207   0.0000       2.436236        66.2933 
 208   0.0000       2.470760        67.2328 
 209   0.0000       2.475143        67.3521 
 210   0.0000       2.508533        68.2606 
 211   0.0000       2.531147        68.8760 
 212   0.0000       2.561047        69.6896 
 213   0.0000       2.565381        69.8076 
 214   0.0000       2.621662        71.3391 
 215   0.0000       2.657125        72.3040 
 216   0.0000       2.684941        73.0610 
 217   0.0000       2.692560        73.2683 
 218   0.0000       2.697665        73.4072 
 219   0.0000       2.742019        74.6141 
 220   0.0000       2.767871        75.3176 
 221   0.0000       2.770583        75.3914 
 222   0.0000       2.796484        76.0962 
 223   0.0000       2.811576        76.5069 
 224   0.0000       2.836048        77.1728 
 225   0.0000       2.857301        77.7511 
 226   0.0000       2.879987        78.3684 
 227   0.0000       2.887966        78.5855 
 228   0.0000       2.907189        79.1086 
 229   0.0000       2.907240        79.1100 
 230   0.0000       2.920883        79.4813 
 231   0.0000       2.953572        80.3708 
 232   0.0000       2.976316        80.9897 
 233   0.0000       3.022693        82.2517 
 234   0.0000       3.039341        82.7047 
 235   0.0000       3.050614        83.0114 
 236   0.0000       3.053776        83.0975 
 237   0.0000       3.080419        83.8225 
 238   0.0000       3.113021        84.7096 
 239   0.0000       3.131373        85.2090 
 240   0.0000       3.171432        86.2990 
 241   0.0000       3.191871        86.8552 
 242   0.0000       3.208773        87.3151 
 243   0.0000       3.263629        88.8078 
 244   0.0000       3.264252        88.8248 
 245   0.0000       3.280108        89.2563 
 246   0.0000       3.314003        90.1786 
 247   0.0000       3.325306        90.4862 
 248   0.0000       3.358060        91.3775 
 249   0.0000       3.384668        92.1015 
 250   0.0000       3.429245        93.3145 
 251   0.0000       3.482994        94.7771 
 252   0.0000       3.494383        95.0870 
 253   0.0000       3.553966        96.7083 
 254   0.0000       3.574253        97.2604 
 255   0.0000       3.620722        98.5248 
 256   0.0000       3.621824        98.5548 
 257   0.0000       3.642326        99.1127 
 258   0.0000       3.694004       100.5189 
 259   0.0000       3.711331       100.9905 
 260   0.0000       3.735324       101.6433 
 261   0.0000       3.781562       102.9015 
 262   0.0000       3.790335       103.1403 
 263   0.0000       3.795887       103.2913 
 264   0.0000       3.875805       105.4660 
 265   0.0000       3.895619       106.0052 
 266   0.0000       3.933528       107.0367 
 267   0.0000       3.956016       107.6487 
 268   0.0000       3.972709       108.1029 
 269   0.0000       3.991840       108.6235 
 270   0.0000       4.009120       109.0937 
 271   0.0000       4.013834       109.2220 
 272   0.0000       4.017906       109.3328 
 273   0.0000       4.054461       110.3275 
 274   0.0000       4.088352       111.2497 
 275   0.0000       4.107000       111.7572 
 276   0.0000       4.139445       112.6400 
 277   0.0000       4.145642       112.8087 
 278   0.0000       4.165093       113.3379 
 279   0.0000       4.185529       113.8940 
 280   0.0000       4.213119       114.6448 
 281   0.0000       4.223320       114.9224 
 282   0.0000       4.250276       115.6559 
 283   0.0000       4.269667       116.1835 
 284   0.0000       4.288969       116.7088 
 285   0.0000       4.292159       116.7956 
 286   0.0000       4.301444       117.0482 
 287   0.0000       4.332782       117.9010 
 288   0.0000       4.344924       118.2314 
 289   0.0000       4.374179       119.0275 
 290   0.0000       4.374550       119.0375 
 291   0.0000       4.380506       119.1996 
 292   0.0000       4.385521       119.3361 
 293   0.0000       4.466229       121.5323 
 294   0.0000       4.480319       121.9157 
 295   0.0000       4.483415       121.9999 
 296   0.0000       4.496147       122.3464 
 297   0.0000       4.543731       123.6412 
 298   0.0000       4.575464       124.5047 
 299   0.0000       4.610619       125.4613 
 300   0.0000       4.616891       125.6320 
 301   0.0000       4.647474       126.4642 
 302   0.0000       4.657391       126.7340 
 303   0.0000       4.674882       127.2100 
 304   0.0000       4.720126       128.4411 
 305   0.0000       4.759243       129.5056 
 306   0.0000       4.777641       130.0062 
 307   0.0000       4.799874       130.6112 
 308   0.0000       4.805264       130.7579 
 309   0.0000       4.849951       131.9739 
 310   0.0000       4.883634       132.8904 
 311   0.0000       4.916809       133.7932 
 312   0.0000       4.920655       133.8978 
 313   0.0000       5.016766       136.5131 
 314   0.0000       5.029591       136.8621 
 315   0.0000       5.066562       137.8682 
 316   0.0000       5.071844       138.0119 
 317   0.0000       5.093038       138.5886 
 318   0.0000       5.118362       139.2777 
 319   0.0000       5.169293       140.6636 
 320   0.0000       5.218296       141.9970 
 321   0.0000       5.296976       144.1380 
 322   0.0000       5.320621       144.7815 
 323   0.0000       5.326707       144.9471 
 324   0.0000       5.416356       147.3865 
 325   0.0000       5.461467       148.6141 
 326   0.0000       5.536759       150.6629 
 327   0.0000       5.572417       151.6332 
 328   0.0000       5.630039       153.2011 
 329   0.0000       5.645303       153.6165 
 330   0.0000       5.800531       157.8405 
 331   0.0000       5.805017       157.9625 
 332   0.0000       5.864502       159.5812 
 333   0.0000       5.866226       159.6281 
 334   0.0000       5.889277       160.2554 
 335   0.0000       6.077431       165.3753 
 336   0.0000       6.101231       166.0229 
 337   0.0000       6.105113       166.1286 
 338   0.0000       6.169753       167.8875 
 339   0.0000       6.200719       168.7302 
 340   0.0000       6.237526       169.7317 
 341   0.0000       6.286320       171.0595 
 342   0.0000       6.312292       171.7662 
 343   0.0000       6.379257       173.5884 
 344   0.0000       6.391887       173.9321 
 345   0.0000       6.475080       176.1959 
 346   0.0000       6.503677       176.9740 
 347   0.0000       6.522518       177.4867 
 348   0.0000       6.563237       178.5948 
 349   0.0000       6.621606       180.1831 
 350   0.0000       6.693496       182.1393 
 351   0.0000       6.695087       182.1826 
 352   0.0000       6.730609       183.1492 
 353   0.0000       6.774143       184.3338 
 354   0.0000       6.818401       185.5381 
 355   0.0000       6.837199       186.0496 
 356   0.0000       6.855960       186.5602 
 357   0.0000       6.898250       187.7109 
 358   0.0000       6.925315       188.4474 
 359   0.0000       6.941041       188.8753 
 360   0.0000       6.946006       189.0104 
 361   0.0000       6.985305       190.0798 
 362   0.0000       7.027560       191.2296 
 363   0.0000       7.059940       192.1107 
 364   0.0000       7.082371       192.7211 
 365   0.0000       7.101571       193.2436 
 366   0.0000       7.110413       193.4842 
 367   0.0000       7.147234       194.4861 
 368   0.0000       7.159511       194.8202 
 369   0.0000       7.263508       197.6501 
 370   0.0000       7.298574       198.6043 
 371   0.0000       7.320011       199.1876 
 372   0.0000       7.338110       199.6801 
 373   0.0000       7.358938       200.2469 
 374   0.0000       7.399400       201.3479 
 375   0.0000       7.429497       202.1669 
 376   0.0000       7.530951       204.9276 
 377   0.0000       7.545211       205.3156 
 378   0.0000       7.626489       207.5273 
 379   0.0000       7.726044       210.2364 
 380   0.0000       7.727293       210.2703 
 381   0.0000       7.756654       211.0693 
 382   0.0000       7.788504       211.9360 
 383   0.0000       7.886156       214.5932 
 384   0.0000       7.907737       215.1805 
 385   0.0000       7.919143       215.4908 
 386   0.0000       7.923178       215.6006 
 387   0.0000       7.979326       217.1285 
 388   0.0000       7.992766       217.4942 
 389   0.0000       8.021169       218.2671 
 390   0.0000       8.053694       219.1522 
 391   0.0000       8.096672       220.3217 
 392   0.0000       8.143681       221.6008 
 393   0.0000       8.167946       222.2611 
 394   0.0000       8.192191       222.9209 
 395   0.0000       8.337856       226.8846 
 396   0.0000       8.376448       227.9347 
 397   0.0000       8.405034       228.7126 
 398   0.0000       8.455976       230.0988 
 399   0.0000       8.501292       231.3319 
 400   0.0000       8.529981       232.1126 
 401   0.0000       8.607080       234.2106 
 402   0.0000       8.607229       234.2146 
 403   0.0000       8.683293       236.2844 
 404   0.0000       8.689010       236.4400 
 405   0.0000       8.746771       238.0117 
 406   0.0000       8.817024       239.9234 
 407   0.0000       8.843114       240.6334 
 408   0.0000       8.863505       241.1882 
 409   0.0000       8.943465       243.3641 
 410   0.0000       8.985319       244.5029 
 411   0.0000       9.049053       246.2373 
 412   0.0000       9.060811       246.5572 
 413   0.0000       9.132773       248.5154 
 414   0.0000       9.154254       249.0999 
 415   0.0000       9.206190       250.5132 
 416   0.0000       9.250700       251.7244 
 417   0.0000       9.292034       252.8491 
 418   0.0000       9.307558       253.2715 
 419   0.0000       9.352819       254.5032 
 420   0.0000       9.397517       255.7194 
 421   0.0000       9.446584       257.0546 
 422   0.0000       9.567224       260.3374 
 423   0.0000       9.613061       261.5847 
 424   0.0000       9.652176       262.6491 
 425   0.0000       9.724983       264.6302 
 426   0.0000       9.749696       265.3027 
 427   0.0000       9.792587       266.4699 
 428   0.0000       9.847952       267.9764 
 429   0.0000       9.880172       268.8532 
 430   0.0000       9.964540       271.1489 
 431   0.0000      10.042674       273.2750 
 432   0.0000      10.065263       273.8897 
 433   0.0000      10.124500       275.5016 
 434   0.0000      10.169753       276.7330 
 435   0.0000      10.246889       278.8320 
 436   0.0000      10.254776       279.0466 
 437   0.0000      10.296658       280.1863 
 438   0.0000      10.391893       282.7778 
 439   0.0000      10.465734       284.7871 
 440   0.0000      10.506433       285.8946 
 441   0.0000      10.568378       287.5802 
 442   0.0000      10.796165       293.7786 
 443   0.0000      10.839559       294.9594 
 444   0.0000      10.841445       295.0107 
 445   0.0000      10.965359       298.3826 
 446   0.0000      11.006879       299.5124 
 447   0.0000      11.013361       299.6888 
 448   0.0000      11.071713       301.2766 
 449   0.0000      11.083095       301.5863 
 450   0.0000      11.167150       303.8736 
 451   0.0000      11.199510       304.7541 
 452   0.0000      11.212996       305.1211 
 453   0.0000      11.235298       305.7280 
 454   0.0000      11.325083       308.1712 
 455   0.0000      11.377001       309.5839 
 456   0.0000      11.378151       309.6152 
 457   0.0000      11.404843       310.3416 
 458   0.0000      11.416034       310.6461 
 459   0.0000      11.447439       311.5007 
 460   0.0000      11.475136       312.2543 
 461   0.0000      11.585592       315.2600 
 462   0.0000      11.632197       316.5282 
 463   0.0000      11.715907       318.8060 
 464   0.0000      11.793391       320.9145 
 465   0.0000      11.868530       322.9591 
 466   0.0000      11.887683       323.4803 
 467   0.0000      11.901762       323.8634 
 468   0.0000      12.088017       328.9317 
 469   0.0000      12.097567       329.1915 
 470   0.0000      12.173200       331.2496 
 471   0.0000      12.315716       335.1277 
 472   0.0000      12.385217       337.0189 
 473   0.0000      12.413422       337.7864 
 474   0.0000      12.430049       338.2388 
 475   0.0000      12.763830       347.3215 
 476   0.0000      12.795004       348.1698 
 477   0.0000      12.891135       350.7856 
 478   0.0000      12.892289       350.8170 
 479   0.0000      12.950276       352.3949 
 480   0.0000      13.033677       354.6644 
 481   0.0000      13.173912       358.4804 
 482   0.0000      13.219661       359.7253 
 483   0.0000      13.265175       360.9638 
 484   0.0000      13.296145       361.8065 
 485   0.0000      13.328243       362.6799 
 486   0.0000      13.374726       363.9448 
 487   0.0000      13.437908       365.6641 
 488   0.0000      13.534255       368.2858 
 489   0.0000      13.597865       370.0167 
 490   0.0000      13.861120       377.1803 
 491   0.0000      14.167368       385.5137 
 492   0.0000      14.182973       385.9383 
 493   0.0000      14.321277       389.7018 
 494   0.0000      14.582615       396.8131 
 495   0.0000      14.754930       401.5021 
 496   0.0000      14.908404       405.6783 
 497   0.0000      15.049916       409.5290 
 498   0.0000      15.145227       412.1226 
 499   0.0000      17.279657       470.2034 
 500   0.0000      26.514388       721.4932 
 501   0.0000      29.064753       790.8921 
 502   0.0000      43.968752      1196.4506 
 503   0.0000      45.590404      1240.5780 

                    ********************************
                    * MULLIKEN POPULATION ANALYSIS *
                    ********************************

-----------------------
MULLIKEN ATOMIC CHARGES
-----------------------
   0 C :   -0.776693
   1 C :    0.936794
   2 O :   -0.683098
   3 O :   -0.638761
   4 H :    0.326426
   5 H :    0.287469
   6 H :    0.273923
   7 H :    0.273942
Sum of atomic charges:   -0.0000000

--------------------------------
MULLIKEN REDUCED ORBITAL CHARGES
--------------------------------
  0 C s       :     3.185706  s :     3.185706
      pz      :     1.242679  p :     3.430767
      px      :     0.921813
      py      :     1.266276
      dz2     :     0.035341  d :     0.155943
      dxz     :     0.007093
      dyz     :     0.054020
      dx2y2   :     0.030866
      dxy     :     0.028623
      f0      :    -0.003123  f :     0.000828
      f+1     :     0.000387
      f-1     :     0.002847
      f+2     :    -0.000538
      f-2     :     0.000868
      f+3     :    -0.001648
      f-3     :     0.002037
      g0      :     0.000178  g :     0.003449
      g+1     :     0.001056
      g-1     :     0.000108
      g+2     :     0.000327
      g-2     :     0.000397
      g+3     :     0.000264
      g-3     :     0.000162
      g+4     :     0.000273
      g-4     :     0.000683
  1 C s       :     2.946167  s :     2.946167
      pz      :     0.499513  p :     1.939128
      px      :     0.795975
      py      :     0.643641
      dz2     :     0.002787  d :     0.145434
      dxz     :     0.014220
      dyz     :     0.059773
      dx2y2   :     0.054649
      dxy     :     0.014004
      f0      :     0.003645  f :     0.032557
      f+1     :     0.000209
      f-1     :     0.001083
      f+2     :     0.007292
      f-2     :     0.009251
      f+3     :     0.000738
      f-3     :     0.010339
      g0      :     0.000018  g :    -0.000079
      g+1     :    -0.000140
      g-1     :    -0.000272
      g+2     :    -0.000241
      g-2     :    -0.000254
      g+3     :     0.000853
      g-3     :     0.000173
      g+4     :     0.000738
      g-4     :    -0.000954
  2 O s       :     3.894311  s :     3.894311
      pz      :     1.490775  p :     4.720944
      px      :     1.768857
      py      :     1.461313
      dz2     :     0.005358  d :     0.059836
      dxz     :     0.006030
      dyz     :     0.026288
      dx2y2   :     0.009573
      dxy     :     0.012588
      f0      :     0.001921  f :     0.007094
      f+1     :    -0.000005
      f-1     :     0.000110
      f+2     :     0.001639
      f-2     :     0.001777
      f+3     :     0.001017
      f-3     :     0.000636
      g0      :     0.000008  g :     0.000912
      g+1     :     0.000063
      g-1     :     0.000298
      g+2     :     0.000074
      g-2     :     0.000042
      g+3     :     0.000187
      g-3     :     0.000015
      g+4     :     0.000140
      g-4     :     0.000087
  3 O s       :     3.861223  s :     3.861223
      pz      :     1.823834  p :     4.715706
      px      :     1.345452
      py      :     1.546420
      dz2     :     0.004862  d :     0.056210
      dxz     :     0.002709
      dyz     :     0.015143
      dx2y2   :     0.013262
      dxy     :     0.020235
      f0      :     0.001010  f :     0.004390
      f+1     :     0.001017
      f-1     :     0.000687
      f+2     :     0.001315
      f-2     :     0.000395
      f+3     :     0.001362
      f-3     :    -0.001396
      g0      :     0.000067  g :     0.001232
      g+1     :     0.000022
      g-1     :     0.000212
      g+2     :     0.000118
      g-2     :     0.000098
      g+3     :     0.000117
      g-3     :     0.000010
      g+4     :     0.000242
      g-4     :     0.000347
  4 H s       :     0.578184  s :     0.578184
      pz      :     0.036589  p :     0.080601
      px      :     0.015699
      py      :     0.028313
      dz2     :    -0.000249  d :     0.015646
      dxz     :     0.007566
      dyz     :     0.000676
      dx2y2   :     0.000544
      dxy     :     0.007109
      f0      :    -0.000037  f :    -0.000856
      f+1     :    -0.000388
      f-1     :     0.000120
      f+2     :    -0.000079
      f-2     :     0.000144
      f+3     :    -0.000425
      f-3     :    -0.000191
  5 H s       :     0.675492  s :     0.675492
      pz      :     0.017773  p :     0.032331
      px      :     0.003921
      py      :     0.010637
      dz2     :     0.000014  d :     0.004557
      dxz     :    -0.000624
      dyz     :     0.003067
      dx2y2   :     0.001918
      dxy     :     0.000182
      f0      :     0.000103  f :     0.000150
      f+1     :    -0.000040
      f-1     :     0.000047
      f+2     :    -0.000203
      f-2     :    -0.000148
      f+3     :     0.000097
      f-3     :     0.000295
  6 H s       :     0.677369  s :     0.677369
      pz      :     0.015685  p :     0.042885
      px      :     0.002837
      py      :     0.024364
      dz2     :     0.002423  d :     0.005918
      dxz     :    -0.000036
      dyz     :     0.001096
      dx2y2   :     0.000620
      dxy     :     0.001816
      f0      :    -0.000040  f :    -0.000095
      f+1     :    -0.000071
      f-1     :     0.000010
      f+2     :    -0.000029
      f-2     :     0.000130
      f+3     :    -0.000034
      f-3     :    -0.000062
  7 H s       :     0.677343  s :     0.677343
      pz      :     0.015681  p :     0.042890
      px      :     0.002840
      py      :     0.024369
      dz2     :     0.002419  d :     0.005921
      dxz     :    -0.000035
      dyz     :     0.001101
      dx2y2   :     0.000619
      dxy     :     0.001816
      f0      :    -0.000040  f :    -0.000095
      f+1     :    -0.000070
      f-1     :     0.000010
      f+2     :    -0.000029
      f-2     :     0.000130
      f+3     :    -0.000035
      f-3     :    -0.000062


                     *******************************
                     * LOEWDIN POPULATION ANALYSIS *
                     *******************************

----------------------
LOEWDIN ATOMIC CHARGES
----------------------
   0 C :    0.861866
   1 C :   -1.044193
   2 O :    0.690378
   3 O :    1.240072
   4 H :   -0.821745
   5 H :   -0.322186
   6 H :   -0.302101
   7 H :   -0.302092

-------------------------------
LOEWDIN REDUCED ORBITAL CHARGES
-------------------------------
  0 C s       :     2.394016  s :     2.394016
      pz      :     0.664962  p :     1.969808
      px      :     0.628561
      py      :     0.676285
      dz2     :     0.079965  d :     0.444738
      dxz     :     0.061943
      dyz     :     0.074963
      dx2y2   :     0.096838
      dxy     :     0.131029
      f0      :     0.021962  f :     0.255844
      f+1     :     0.036645
      f-1     :     0.022605
      f+2     :     0.026123
      f-2     :     0.026472
      f+3     :     0.053971
      f-3     :     0.068067
      g0      :     0.004249  g :     0.073727
      g+1     :     0.009274
      g-1     :     0.003547
      g+2     :     0.006625
      g-2     :     0.007157
      g+3     :     0.003347
      g-3     :     0.004727
      g+4     :     0.014460
      g-4     :     0.020342
  1 C s       :     2.414115  s :     2.414115
      pz      :     0.425293  p :     1.971415
      px      :     0.748621
      py      :     0.797501
      dz2     :     0.112100  d :     1.392939
      dxz     :     0.148015
      dyz     :     0.269526
      dx2y2   :     0.431840
      dxy     :     0.431459
      f0      :     0.071319  f :     0.928888
      f+1     :     0.045072
      f-1     :     0.068738
      f+2     :     0.074913
      f-2     :     0.135434
      f+3     :     0.179955
      f-3     :     0.353456
      g0      :     0.010584  g :     0.336836
      g+1     :     0.020959
      g-1     :     0.045294
      g+2     :     0.022584
      g-2     :     0.022933
      g+3     :     0.039024
      g-3     :     0.006186
      g+4     :     0.093391
      g-4     :     0.075881
  2 O s       :     3.095576  s :     3.095576
      pz      :     1.108535  p :     3.831583
      px      :     1.349610
      py      :     1.373438
      dz2     :     0.031281  d :     0.231066
      dxz     :     0.009641
      dyz     :     0.037491
      dx2y2   :     0.075451
      dxy     :     0.077201
      f0      :     0.009389  f :     0.118845
      f+1     :     0.006958
      f-1     :     0.014710
      f+2     :     0.008498
      f-2     :     0.008248
      f+3     :     0.024567
      f-3     :     0.046475
      g0      :     0.002253  g :     0.032552
      g+1     :     0.000577
      g-1     :     0.002449
      g+2     :     0.003108
      g-2     :     0.003645
      g+3     :     0.001877
      g-3     :     0.000367
      g+4     :     0.009763
      g-4     :     0.008513
  3 O s       :     2.861664  s :     2.861664
      pz      :     1.192406  p :     3.465620
      px      :     1.074149
      py      :     1.199065
      dz2     :     0.035170  d :     0.280437
      dxz     :     0.015854
      dyz     :     0.040559
      dx2y2   :     0.115666
      dxy     :     0.073187
      f0      :     0.011954  f :     0.127928
      f+1     :     0.009139
      f-1     :     0.012793
      f+2     :     0.011208
      f-2     :     0.008008
      f+3     :     0.021996
      f-3     :     0.052829
      g0      :     0.001227  g :     0.024279
      g+1     :     0.000831
      g-1     :     0.002497
      g+2     :     0.002176
      g-2     :     0.002040
      g+3     :     0.001424
      g-3     :     0.000437
      g+4     :     0.007770
      g-4     :     0.005877
  4 H s       :     0.565599  s :     0.565599
      pz      :     0.140832  p :     0.536747
      px      :     0.240977
      py      :     0.154939
      dz2     :     0.042034  d :     0.471354
      dxz     :     0.133217
      dyz     :     0.018657
      dx2y2   :     0.113076
      dxy     :     0.164370
      f0      :     0.029955  f :     0.248044
      f+1     :     0.022106
      f-1     :     0.009420
      f+2     :     0.039537
      f-2     :     0.014222
      f+3     :     0.056899
      f-3     :     0.075904
  5 H s       :     0.602483  s :     0.602483
      pz      :     0.080968  p :     0.305747
      px      :     0.089280
      py      :     0.135499
      dz2     :     0.019297  d :     0.282150
      dxz     :     0.015925
      dyz     :     0.093208
      dx2y2   :     0.096843
      dxy     :     0.056877
      f0      :     0.017733  f :     0.131806
      f+1     :     0.007905
      f-1     :     0.005662
      f+2     :     0.021408
      f-2     :     0.013730
      f+3     :     0.017770
      f-3     :     0.047597
  6 H s       :     0.595183  s :     0.595183
      pz      :     0.126784  p :     0.305998
      px      :     0.077743
      py      :     0.101471
      dz2     :     0.094408  d :     0.273653
      dxz     :     0.046021
      dyz     :     0.056156
      dx2y2   :     0.043265
      dxy     :     0.033803
      f0      :     0.045362  f :     0.127266
      f+1     :     0.008137
      f-1     :     0.012345
      f+2     :     0.024693
      f-2     :     0.020424
      f+3     :     0.003699
      f-3     :     0.012605
  7 H s       :     0.595180  s :     0.595180
      pz      :     0.126814  p :     0.305998
      px      :     0.077743
      py      :     0.101441
      dz2     :     0.094391  d :     0.273650
      dxz     :     0.046055
      dyz     :     0.056207
      dx2y2   :     0.043228
      dxy     :     0.033769
      f0      :     0.045378  f :     0.127265
      f+1     :     0.008153
      f-1     :     0.012345
      f+2     :     0.024699
      f-2     :     0.020415
      f+3     :     0.003690
      f-3     :     0.012586


                      *****************************
                      * MAYER POPULATION ANALYSIS *
                      *****************************

  NA   - Mulliken gross atomic population
  ZA   - Total nuclear charge
  QA   - Mulliken gross atomic charge
  VA   - Mayer's total valence
  BVA  - Mayer's bonded valence
  FA   - Mayer's free valence

  ATOM       NA         ZA         QA         VA         BVA        FA
  0 C      6.7767     6.0000    -0.7767     3.8738     3.8738    -0.0000
  1 C      5.0632     6.0000     0.9368     3.3866     3.3866    -0.0000
  2 O      8.6831     8.0000    -0.6831     1.7108     1.7108    -0.0000
  3 O      8.6388     8.0000    -0.6388     1.9326     1.9326     0.0000
  4 H      0.6736     1.0000     0.3264     0.9462     0.9462     0.0000
  5 H      0.7125     1.0000     0.2875     0.9595     0.9595    -0.0000
  6 H      0.7261     1.0000     0.2739     0.9745     0.9745    -0.0000
  7 H      0.7261     1.0000     0.2739     0.9745     0.9745    -0.0000

  Mayer bond orders larger than 0.100000
B(  0-C ,  1-C ) :   0.9712 B(  0-C ,  5-H ) :   0.9697 B(  0-C ,  6-H ) :   0.9174 
B(  0-C ,  7-H ) :   0.9173 B(  1-C ,  2-O ) :   1.5696 B(  1-C ,  3-O ) :   0.9203 
B(  3-O ,  4-H ) :   0.9119 

-------
TIMINGS
-------

Total SCF time: 0 days 0 hours 2 min 22 sec 

Total time                  ....     142.814 sec
Sum of individual times     ....     142.152 sec  ( 99.5%)

Fock matrix formation       ....     140.724 sec  ( 98.5%)
Diagonalization             ....       0.422 sec  (  0.3%)
Density matrix formation    ....       0.102 sec  (  0.1%)
Population analysis         ....       0.058 sec  (  0.0%)
Initial guess               ....       0.215 sec  (  0.2%)
Orbital Transformation      ....       0.000 sec  (  0.0%)
Orbital Orthonormalization  ....       0.000 sec  (  0.0%)
DIIS solution               ....       0.228 sec  (  0.2%)
SOSCF solution              ....       0.370 sec  (  0.3%)


           ************************************************************
           *        Program running with 32 parallel MPI-processes    *
           *              working on a common directory               *
           ************************************************************

------------------------------------------------------------------------------
                                ORCA  MP2 
------------------------------------------------------------------------------

Freezing NCore=8 chemical core electrons

-------------
RI-MP2 ENERGY
-------------
Dimension of the basis                    ...  504
Memory devoted to MP2                     ... 4500 MB   
Data format for buffers                   ... DOUBLE
Compression type for matrix containers    ... UNCOMPRESSED
Overall scaling of the MP2 energy         ...   1.000e+00
Calculating two index integrals           ... done (    0.016 sec)
Cholesky decomposition of V**-1           ... done (    0.134 sec)

-----------------
RI-TRANSFORMATION (AUX index driven)
-----------------

Dimension of the orbital-basis         ... 504
Dimension of the aux-basis             ... 992
Transformation of internal/external MOs...    4-  15 to   16- 503
Number Format for Storage              ... Double (8 Byte)
Integral mode                          ... Direct

First Phase: integral generation and transformation of MO indices
  Aux angular momentum 0               ... done (    0.014 sec)
  Aux angular momentum 1               ... done (    0.032 sec)
  Aux angular momentum 2               ... done (    0.059 sec)
  Aux angular momentum 3               ... done (    0.080 sec)
  Aux angular momentum 4               ... done (    0.053 sec)
  Aux angular momentum 5               ... done (    0.076 sec)
Closing buffer VIA ( 0.04 GB; CompressionRatio= 1.00)
  Phase 1 completed in     0.429 sec
Second Phase: sorting and transformation of aux index

IA-Transformation
Memory available                       ... 4473 MB 
Max. # MO pairs treated in a batch     ... 1    
# of internal orbitals                 ... 12
# batches for internal orbitals        ... 1
Closing buffer IAV ( 0.00 GB; CompressionRatio= 1.00)
(ia|v) transformation done in     0.051 sec

  Phase 2 completed in     0.118 sec
RI-Integral transformation completed in     0.565 sec
Opening buffers                              ... done

Starting loop over batches of integrals:

Operator 0  - window                       ... (  4- 15)x( 16-503)
Operator 0  - Memory available             ...  4500 MB
Operator 0  - Memory needed per MO         ...   3.7 MB
Operator 0  - Number of orbitals per batch ... 1
Operator 0  - Number of batches            ... 1

OPERATOR  0   PASS   0:  MOs     4 ...    4 +    5 ...    5 +    6 ...    6 +    7 ...    7
                            +    8 ...    8 +    9 ...    9 +   10 ...   10 +   11 ...   11
                            +   12 ...   12 +   13 ...   13 +   14 ...   14 +   15 ...   15
  Reading integrals       ... ok
Time spent in pair loops =     0.024 sec
Deleting buffer (Ka|jb)[aa] ...done

-----------------------------------------------
 RI-MP2 CORRELATION ENERGY:     -0.866303300 Eh
-----------------------------------------------


-------
TIMINGS
-------

Total time                :    0.916 sec
Integral trafo            :    0.583 sec ( 63.6%)
I/O of integrals          :    0.002 sec (  0.3%)
K(i,j) Operators          :    0.011 sec (  1.2%)
T(i,j) pair energies      :    0.002 sec (  0.2%)
V-calculation             :    0.016 sec (  1.8%)
V**(-1/2)                 :    0.134 sec ( 14.6%)
Gamma(ia|P)               :    0.000 sec (  0.0%)
Gamma-Trafo               :    0.000 sec (  0.0%)
D(virtual)                :    0.000 sec (  0.0%)
D(internal)               :    0.000 sec (  0.0%)
W(virtual)                :    0.000 sec (  0.0%)
W(internal)               :    0.000 sec (  0.0%)
L(virtual)                :    0.000 sec (  0.0%)
L(internal)               :    0.000 sec (  0.0%)
G(D)                      :    0.000 sec (  0.0%)
G(Z)                      :    0.000 sec (  0.0%)
Z-Vector Solution         :    0.000 sec (  0.0%)
3-Index Derivative        :    0.000 sec (  0.0%)
2-Index Derivative        :    0.000 sec (  0.0%)
Separable Gradient        :    0.000 sec (  0.0%)


---------------------------------------
MP2 TOTAL ENERGY:     -228.787539632 Eh
---------------------------------------

-------------------------   --------------------
FINAL SINGLE POINT ENERGY      -228.787539631646
-------------------------   --------------------


                            ***************************************
                            *     ORCA property calculations      *
                            ***************************************


  WARNING: The energy has been calculated at the MP2 level but the densities
           used in the property calculations are still SCF densities
           MP2 response densities have not been calculated 
           use %mp2 Density relaxed end
           or  %mp2 Density unrelaxed end

                                    ---------------------
                                    Active property flags
                                    ---------------------
   (+) Dipole Moment


------------------------------------------------------------------------------
                       ORCA ELECTRIC PROPERTIES CALCULATION
------------------------------------------------------------------------------

Dipole Moment Calculation                       ... on
Quadrupole Moment Calculation                   ... off
Polarizability Calculation                      ... off
GBWName                                         ... /tmp/pbs.2143742.pbsha.ib.sockeye/MP2augccpVQZ_04_62P2.gbw
Electron density file                           ... /tmp/pbs.2143742.pbsha.ib.sockeye/MP2augccpVQZ_04_62P2.scfp
The origin for moment calculation is the CENTER OF MASS  = (-0.109251,  0.043129 -0.000005)

-------------
DIPOLE MOMENT
-------------
                                X             Y             Z
Electronic contribution:     -3.12412       0.69016      -0.00011
Nuclear contribution   :      3.49604      -1.38014       0.00015
                        -----------------------------------------
Total Dipole Moment    :      0.37192      -0.68998       0.00004
                        -----------------------------------------
Magnitude (a.u.)       :      0.78384
Magnitude (Debye)      :      1.99236



--------------------
Rotational spectrum 
--------------------
 
Rotational constants in cm-1:     0.382065     0.317249     0.179072 
Rotational constants in MHz : 11454.008367  9510.893082  5368.456687 

 Dipole components along the rotational axes: 
x,y,z [a.u.] :    -0.411477    -0.667148     0.000018 
x,y,z [Debye]:    -1.045892    -1.695756     0.000045 

 

Timings for individual modules:

Sum of individual times         ...      150.522 sec (=   2.509 min)
GTO integral calculation        ...        3.321 sec (=   0.055 min)   2.2 %
SCF iterations                  ...      144.591 sec (=   2.410 min)  96.1 %
MP2 module                      ...        2.610 sec (=   0.044 min)   1.7 %
                             ****ORCA TERMINATED NORMALLY****
TOTAL RUN TIME: 0 days 0 hours 2 minutes 32 seconds 253 msec
