
                                 *****************
                                 * O   R   C   A *
                                 *****************

           --- An Ab Initio, DFT and Semiempirical electronic structure package ---

                  #######################################################
                  #                        -***-                        #
                  #          Department of theory and spectroscopy      #
                  #               Directorship: Frank Neese             #
                  #        Max Planck Institute fuer Kohlenforschung    #
                  #                Kaiser Wilhelm Platz 1               #
                  #                 D-45470 Muelheim/Ruhr               #
                  #                      Germany                        #
                  #                                                     #
                  #                  All rights reserved                #
                  #                        -***-                        #
                  #######################################################


                         Program Version 4.2.1 -  RELEASE  -


 With contributions from (in alphabetic order):
   Daniel Aravena         : Magnetic Suceptibility
   Michael Atanasov       : Ab Initio Ligand Field Theory (pilot matlab implementation)
   Alexander A. Auer      : GIAO ZORA, VPT2
   Ute Becker             : Parallelization
   Giovanni Bistoni       : ED, misc. LED, open-shell LED, HFLD
   Martin Brehm           : Molecular dynamics
   Dmytro Bykov           : SCF Hessian
   Vijay G. Chilkuri      : MRCI spin determinant printing, contributions to CSF-ICE
   Dipayan Datta          : RHF DLPNO-CCSD density
   Achintya Kumar Dutta   : EOM-CC, STEOM-CC
   Dmitry Ganyushin       : Spin-Orbit,Spin-Spin,Magnetic field MRCI
   Miquel Garcia          : C-PCM Hessian, Gaussian charge scheme
   Yang Guo               : DLPNO-NEVPT2, CIM, IAO-localization
   Andreas Hansen         : Spin unrestricted coupled pair/coupled cluster methods
   Benjamin Helmich-Paris : CASSCF linear response (MC-RPA)
   Lee Huntington         : MR-EOM, pCC
   Robert Izsak           : Overlap fitted RIJCOSX, COSX-SCS-MP3, EOM
   Christian Kollmar      : KDIIS, OOCD, Brueckner-CCSD(T), CCSD density
   Simone Kossmann        : Meta GGA functionals, TD-DFT gradient, OOMP2, MP2 Hessian
   Martin Krupicka        : AUTO-CI
   Lucas Lang             : DCDCAS
   Dagmar Lenk            : GEPOL surface, SMD
   Dimitrios Liakos       : Extrapolation schemes; Compound Job, initial MDCI parallelization
   Dimitrios Manganas     : Further ROCIS development; embedding schemes
   Dimitrios Pantazis     : SARC Basis sets
   Taras Petrenko         : DFT Hessian,TD-DFT gradient, ASA, ECA, R-Raman, ABS, FL, XAS/XES, NRVS
   Peter Pinski           : DLPNO-MP2, DLPNO-MP2 Gradient
   Christoph Reimann      : Effective Core Potentials
   Marius Retegan         : Local ZFS, SOC
   Christoph Riplinger    : Optimizer, TS searches, QM/MM, DLPNO-CCSD(T), (RO)-DLPNO pert. Triples
   Tobias Risthaus        : Range-separated hybrids, TD-DFT gradient, RPA, STAB
   Michael Roemelt        : Original ROCIS implementation
   Masaaki Saitow         : Open-shell DLPNO-CCSD energy and density
   Barbara Sandhoefer     : DKH picture change effects
   Avijit Sen             : IP-ROCIS
   Kantharuban Sivalingam : CASSCF convergence, NEVPT2, FIC-MRCI
   Bernardo de Souza      : ESD, SOC TD-DFT
   Georgi Stoychev        : AutoAux, RI-MP2 NMR
   Willem Van den Heuvel  : Paramagnetic NMR
   Boris Wezisla          : Elementary symmetry handling
   Frank Wennmohs         : Technical directorship


 We gratefully acknowledge several colleagues who have allowed us to
 interface, adapt or use parts of their codes:
   Stefan Grimme, W. Hujo, H. Kruse,             : VdW corrections, initial TS optimization,
                  C. Bannwarth                     DFT functionals, gCP, sTDA/sTD-DF
   Ed Valeev, F. Pavosevic, A. Kumar             : LibInt (2-el integral package), F12 methods
   Garnet Chan, S. Sharma, J. Yang, R. Olivares  : DMRG
   Ulf Ekstrom                                   : XCFun DFT Library
   Mihaly Kallay                                 : mrcc  (arbitrary order and MRCC methods)
   Andreas Klamt, Michael Diedenhofen            : otool_cosmo (COSMO solvation model)
   Jiri Pittner, Ondrej Demel                    : Mk-CCSD
   Frank Weinhold                                : gennbo (NPA and NBO analysis)
   Christopher J. Cramer and Donald G. Truhlar   : smd solvation model
   Lars Goerigk                                  : TD-DFT with DH, B97 family of functionals
   V. Asgeirsson, H. Jonsson                     : NEB implementation
   FAccTs GmbH                                   : IRC, NEB, NEB-TS, Multilevel, MM, QM/MM, CI optimization
   S Lehtola, MJT Oliveira, MAL Marques          : LibXC Library


 Your calculation uses the libint2 library for the computation of 2-el integrals
 For citations please refer to: http://libint.valeyev.net

 Your ORCA version has been built with support for libXC version: 4.2.3
 For citations please refer to: https://tddft.org/programs/libxc/

 This ORCA versions uses:
   CBLAS   interface :  Fast vector & matrix operations
   LAPACKE interface :  Fast linear algebra routines
   SCALAPACK package :  Parallel linear algebra routines




***************************************
The coordinates will be read from file: 02_9TS.xyz
***************************************


----- Orbital basis set information -----
Your calculation utilizes the basis: aug-cc-pVTZ 
    H, B-Ne : Obtained from the ccRepo (grant-hill.group.shef.ac.uk/ccrepo) Feb. 2017
              R. A. Kendall, T. H. Dunning, Jr., R. J. Harrison, J. Chem. Phys. 96, 6796 (1992)
         He : Obtained from the ccRepo (grant-hill.group.shef.ac.uk/ccrepo) Feb. 2017
              D. E. Woon, T. H. Dunning, Jr., J. Chem. Phys. 100, 2975 (1994)
  Li-Be, Na : Obtained from the ccRepo (grant-hill.group.shef.ac.uk/ccrepo) Feb. 2017
              B. P. Prascher, D. E. Woon, K. A. Peterson, T. H. Dunning, Jr., A. K. Wilson, Theor. Chem. Acc. 128, 69 (2011)
         Mg : Obtained from the Peterson Research Group Website (tyr0.chem.wsu.edu/~kipeters) Feb. 2017
              B. P. Prascher, D. E. Woon, K. A. Peterson, T. H. Dunning, Jr., A. K. Wilson, Theor. Chem. Acc. 128, 69 (2011)
      Al-Ar : Obtained from the ccRepo (grant-hill.group.shef.ac.uk/ccrepo) Feb. 2017
              D. E. Woon, T. H. Dunning, Jr., J. Chem. Phys. 98, 1358 (1993)
      Sc-Zn : Obtained from the ccRepo (grant-hill.group.shef.ac.uk/ccrepo) Feb. 2017
              N. B. Balabanov, K. A. Peterson, J. Chem. Phys. 123, 064107 (2005)
              N. B. Balabanov, K. A. Peterson, J. Chem. Phys. 125, 074110 (2006)
      Ga-Kr : Obtained from the ccRepo (grant-hill.group.shef.ac.uk/ccrepo) Feb. 2017
              A. K. Wilson, D. E. Woon, K. A. Peterson, T. H. Dunning, Jr., J. Chem. Phys. 110, 7667 (1999)
     Ag, Au : Obtained from the Peterson Research Group Website (tyr0.chem.wsu.edu/~kipeters) Feb. 2017
              K. A. Peterson, C. Puzzarini, Theor. Chem. Acc. 114, 283 (2005)

----- AuxC basis set information -----
Your calculation utilizes the auxiliary basis: aug-cc-pVTZ/C 
  H-He, B-F, Al-Ar, Ga-Kr : Obtained from the EMSL Basis Set Exchange (bse.pnl.gov) Feb. 2017
                            F. Weigend, A. Kohn, C. Hattig, J. Chem. Phys. 116, 3175 (2002)
                   Be, Mg : Obtained from the TURBOMOLE 7.0 basis set library
                            C. Haettig, Phys. Chem. Chem. Phys. 7, 59 (2005)
                       Ne : Obtained from the EMSL Basis Set Exchange (bse.pnl.gov) Feb. 2017
                            C. Haettig, Phys. Chem. Chem. Phys. 7, 59 (2005)
                            F. Weigend, A. Kohn, C. Hattig, J. Chem. Phys. 116, 3175 (2002)
                    Sc-Zn : Obtained from the EMSL Basis Set Exchange (bse.pnl.gov) Feb. 2017
                            J. G. Hill, J. A. Platts, J. Chem. Phys. 128, 044104 (2008)

================================================================================
                                        WARNINGS
                       Please study these warnings very carefully!
================================================================================


WARNING: No MP2 level density has been requested!
         To caclulate MP2 level properties use
         %mp2 Density relaxed end
         or
         %mp2 Density unrelaxed end

WARNING: Post HF methods need fully converged wavefunctions
  ===> : Setting SCFConvForced true
         You can overwrite this default with %scf ConvForced false 


INFO   : the flag for use of LIBINT has been found!

================================================================================
                                       INPUT FILE
================================================================================
NAME = /tmp/pbs.2147706.pbsha.ib.sockeye/MP2augccpVTZ_02_9TS.inp
|  1> %pal
|  2>  nprocs 32
|  3> end
|  4> !RI-MP2 aug-cc-pVTZ aug-cc-pVTZ/C TightSCF
|  5> %maxcore 4500
|  6> *xyzfile 0 1  02_9TS.xyz
|  7> 
|  8> 
|  9>                          ****END OF INPUT****
================================================================================

                       ****************************
                       * Single Point Calculation *
                       ****************************

---------------------------------
CARTESIAN COORDINATES (ANGSTROEM)
---------------------------------
  C     -3.433122    0.792289   -0.580434
  C     -1.993763    1.275339   -0.772661
  C     -1.055027    0.729281    0.295976
  C     -1.289059   -1.250312    0.046215
  C     -3.649059   -0.713539   -0.698165
  H     -1.638379    0.940106   -1.755794
  H     -3.777815    1.123461    0.408181
  H     -4.072254    1.299081   -1.310606
  H     -1.019004   -1.181819   -1.004048
  H     -3.362198   -1.016023   -1.714474
  H     -1.470815    0.722669    1.300555
  H     -3.022885   -1.219002    1.305973
  H     -2.971087   -2.556110    0.171674
  C     -2.762279   -1.485537    0.275054
  C      0.299542    1.075225    0.266178
  C     -0.347405   -1.854845    0.876937
  H     -0.683628   -2.289466    1.812753
  C      1.551665   -1.015736   -0.375388
  C      1.023018   -1.749924    0.662209
  H      1.682147   -2.122285    1.436251
  H      0.927523   -0.795462   -1.230247
  H      0.740006    1.527871   -0.613897
  C     -5.119003   -1.067043   -0.496901
  H     -5.289993   -2.139234   -0.619464
  H     -5.755253   -0.541023   -1.212501
  H     -5.449485   -0.789657    0.508559
  C      1.036003    1.127750    1.515094
  O      0.585059    0.634753    2.542647
  C      2.363165    1.852920    1.519627
  C      2.978479   -0.769679   -0.581516
  C      3.364034   -0.184910   -1.725576
  H      2.577036    0.072697   -2.431696
  C      4.744952    0.167563   -2.172328
  H      4.986190   -0.343058   -3.109722
  H      5.512360   -0.092956   -1.445676
  H      4.822291    1.240505   -2.374463
  C      3.922234   -1.192564    0.509981
  H      4.943668   -0.869575    0.323605
  H      3.928736   -2.281091    0.612218
  H      3.610212   -0.782238    1.472515
  C     -1.972115    2.808023   -0.761992
  H     -2.284749    3.188239    0.214276
  H     -0.974053    3.197241   -0.964458
  H     -2.656747    3.207894   -1.514408
  H      2.172631    2.929261    1.562166
  H      2.937778    1.654387    0.614223
  H      2.933743    1.571756    2.403480

----------------------------
CARTESIAN COORDINATES (A.U.)
----------------------------
  NO LB      ZA    FRAG     MASS         X           Y           Z
   0 C     6.0000    0    12.011   -6.487660    1.497209   -1.096861
   1 C     6.0000    0    12.011   -3.767666    2.410041   -1.460118
   2 C     6.0000    0    12.011   -1.993712    1.378141    0.559314
   3 C     6.0000    0    12.011   -2.435968   -2.362747    0.087334
   4 C     6.0000    0    12.011   -6.895722   -1.348393   -1.319341
   5 H     1.0000    0     1.008   -3.096088    1.776543   -3.317970
   6 H     1.0000    0     1.008   -7.139036    2.123034    0.771350
   7 H     1.0000    0     1.008   -7.695445    2.454907   -2.476686
   8 H     1.0000    0     1.008   -1.925638   -2.233314   -1.897376
   9 H     1.0000    0     1.008   -6.353633   -1.920005   -3.239886
  10 H     1.0000    0     1.008   -2.779438    1.365646    2.457693
  11 H     1.0000    0     1.008   -5.712425   -2.303580    2.467931
  12 H     1.0000    0     1.008   -5.614541   -4.830348    0.324417
  13 C     6.0000    0    12.011   -5.219951   -2.807258    0.519777
  14 C     6.0000    0    12.011    0.566052    2.031881    0.503004
  15 C     6.0000    0    12.011   -0.656500   -3.505149    1.657171
  16 H     1.0000    0     1.008   -1.291870   -4.326464    3.425607
  17 C     6.0000    0    12.011    2.932222   -1.919463   -0.709381
  18 C     6.0000    0    12.011    1.933224   -3.306877    1.251394
  19 H     1.0000    0     1.008    3.178797   -4.010537    2.714121
  20 H     1.0000    0     1.008    1.752764   -1.503205   -2.324830
  21 H     1.0000    0     1.008    1.398409    2.887258   -1.160097
  22 C     6.0000    0    12.011   -9.673514   -2.016419   -0.939007
  23 H     1.0000    0     1.008   -9.996638   -4.042566   -1.170617
  24 H     1.0000    0     1.008  -10.875852   -1.022385   -2.291295
  25 H     1.0000    0     1.008  -10.298034   -1.492235    0.961037
  26 C     6.0000    0    12.011    1.957762    2.131139    2.863113
  27 O     8.0000    0    15.999    1.105601    1.199509    4.804906
  28 C     6.0000    0    12.011    4.465735    3.501511    2.871679
  29 C     6.0000    0    12.011    5.628510   -1.454483   -1.098906
  30 C     6.0000    0    12.011    6.357103   -0.349429   -3.260866
  31 H     1.0000    0     1.008    4.869892    0.137377   -4.595239
  32 C     6.0000    0    12.011    8.966660    0.316648   -4.105105
  33 H     1.0000    0     1.008    9.422534   -0.648286   -5.876523
  34 H     1.0000    0     1.008   10.416851   -0.175661   -2.731932
  35 H     1.0000    0     1.008    9.112809    2.344215   -4.487085
  36 C     6.0000    0    12.011    7.411948   -2.253619    0.963724
  37 H     1.0000    0     1.008    9.342179   -1.643259    0.611525
  38 H     1.0000    0     1.008    7.424235   -4.310637    1.156924
  39 H     1.0000    0     1.008    6.822312   -1.478216    2.782650
  40 C     6.0000    0    12.011   -3.726757    5.306394   -1.439956
  41 H     1.0000    0     1.008   -4.317550    6.024899    0.404923
  42 H     1.0000    0     1.008   -1.840693    6.041910   -1.822561
  43 H     1.0000    0     1.008   -5.020524    6.062041   -2.861816
  44 H     1.0000    0     1.008    4.105678    5.535501    2.952066
  45 H     1.0000    0     1.008    5.551596    3.126338    1.160713
  46 H     1.0000    0     1.008    5.543971    2.970188    4.541919

--------------------------------
INTERNAL COORDINATES (ANGSTROEM)
--------------------------------
 C      0   0   0     0.000000000000     0.00000000     0.00000000
 C      1   0   0     1.530373435770     0.00000000     0.00000000
 C      2   1   0     1.523610729428   112.22588008     0.00000000
 C      3   2   1     2.008964902579   101.19706806    58.20659925
 C      1   2   3     1.525780895776   115.78089763   296.88294408
 H      2   1   3     1.097829425473   108.69701930   120.15477445
 H      1   2   3     1.098111003523   108.24730111    59.33354583
 H      1   2   3     1.094750653926   108.61438184   174.13539842
 H      4   3   2     1.086587945471    91.66759710    55.66565120
 H      5   1   2     1.098485223869   107.83002219   298.42797323
 H      3   2   1     1.087245302004   114.49506995   318.86887212
 H      4   3   2     2.143390569388    90.38789134   275.42333939
 H     12   4   3     1.754187862764    65.47644133   155.95942427
 C     13  12   4     1.095634406905    36.85196470   319.76804108
 C      3   2   1     1.398364168484   119.55237670   180.01216546
 C      4   3   2     1.393653990447   105.93912638   173.14858273
 H     16   4   3     1.085215603107   118.58098059   103.15333170
 C     16   4   3     2.424641970355    94.08412245   293.83646113
 C     18  16   4     1.376628927621    28.99730215   181.13872514
 H     19  18  16     1.082702531043   119.24119134   190.58538760
 H     18  16   4     1.081137262849    91.53249897   342.63692164
 H     15   3   2     1.083249252129   120.96848605   345.72237914
 C      5   1   2     1.525191017167   110.79116392   180.36842577
 H     23   5   1     1.092635716765   111.31298135   177.70384911
 H     23   5   1     1.092517488601   111.29972061    57.25340290
 H     23   5   1     1.094125750049   110.70860578   297.50729572
 C     15   3   2     1.450835916016   118.83746683   150.87125531
 O     27  15   3     1.225667859150   121.35653640    14.33723315
 C     27  15   3     1.512366044062   117.73539266   196.30910333
 C     18  16   4     1.462474269937   153.52939593   170.45233495
 C     30  18  16     1.341447250169   118.29147957   177.81212032
 H     31  30  18     1.088270496179   116.66097436     0.15509113
 C     31  30  18     1.493572592128   128.58803442   180.15053867
 H     33  31  30     1.094366067420   110.48178138   120.55456136
 H     33  31  30     1.088489006343   113.30826094   359.54794999
 H     33  31  30     1.094552152485   110.60366263   238.19174904
 C     30  18  16     1.503619275036   117.56269263   357.84836829
 H     37  30  18     1.087375429120   112.43479365   186.58878830
 H     37  30  18     1.093336960823   110.58640792    65.99722635
 H     37  30  18     1.091877674429   110.78531360   307.45445258
 C      2   1   3     1.532874002428   109.14810418   237.57897554
 H     41   2   1     1.093345065584   110.48048348    64.13290060
 H     41   2   1     1.090234327346   111.62903670   183.90466426
 H     41   2   1     1.093045117605   110.61887386   304.64801682
 H     29  27  15     1.093902518490   108.60633343    78.46042443
 H     29  27  15     1.090574094261   111.87543383   319.78222582
 H     29  27  15     1.088948380131   109.78153671   196.68316944

---------------------------
INTERNAL COORDINATES (A.U.)
---------------------------
 C      0   0   0     0.000000000000     0.00000000     0.00000000
 C      1   0   0     2.891986676233     0.00000000     0.00000000
 C      2   1   0     2.879207013323   112.22588008     0.00000000
 C      3   2   1     3.796393478534   101.19706806    58.20659925
 C      1   2   3     2.883308033385   115.78089763   296.88294408
 H      2   1   3     2.074596955904   108.69701930   120.15477445
 H      1   2   3     2.075129061304   108.24730111    59.33354583
 H      1   2   3     2.068778920852   108.61438184   174.13539842
 H      4   3   2     2.053353637360    91.66759710    55.66565120
 H      5   1   2     2.075836235271   107.83002219   298.42797323
 H      3   2   1     2.054595861179   114.49506995   318.86887212
 H      4   3   2     4.050421174172    90.38789134   275.42333939
 H     12   4   3     3.314934648073    65.47644133   155.95942427
 C     13  12   4     2.070448971951    36.85196470   319.76804108
 C      3   2   1     2.642525313924   119.55237670   180.01216546
 C      4   3   2     2.633624367391   105.93912638   173.14858273
 H     16   4   3     2.050760286130   118.58098059   103.15333170
 C     16   4   3     4.581909296782    94.08412245   293.83646113
 C     18  16   4     2.601451661237    28.99730215   181.13872514
 H     19  18  16     2.046011268174   119.24119134   190.58538760
 H     18  16   4     2.043053339962    91.53249897   342.63692164
 H     15   3   2     2.047044421298   120.96848605   345.72237914
 C      5   1   2     2.882193324363   110.79116392   180.36842577
 H     23   5   1     2.064782268826   111.31298135   177.70384911
 H     23   5   1     2.064558849976   111.29972061    57.25340290
 H     23   5   1     2.067598023664   110.70860578   297.50729572
 C     15   3   2     2.741682546527   118.83746683   150.87125531
 O     27  15   3     2.316176584944   121.35653640    14.33723315
 C     27  15   3     2.857957637520   117.73539266   196.30910333
 C     18  16   4     2.763675848088   153.52939593   170.45233495
 C     30  18  16     2.534967925921   118.29147957   177.81212032
 H     31  30  18     2.056533197404   116.66097436     0.15509113
 C     31  30  18     2.822443160253   128.58803442   180.15053867
 H     33  31  30     2.068052157681   110.48178138   120.55456136
 H     33  31  30     2.056946121772   113.30826094   359.54794999
 H     33  31  30     2.068403807491   110.60366263   238.19174904
 C     30  18  16     2.841428639503   117.56269263   357.84836829
 H     37  30  18     2.054841765791   112.43479365   186.58878830
 H     37  30  18     2.066107428050   110.58640792    65.99722635
 H     37  30  18     2.063349776413   110.78531360   307.45445258
 C      2   1   3     2.896712062398   109.14810418   237.57897554
 H     41   2   1     2.066122743827   110.48048348    64.13290060
 H     41   2   1     2.060244300484   111.62903670   183.90466426
 H     41   2   1     2.065555924294   110.61887386   304.64801682
 H     29  27  15     2.067176177152   108.60633343    78.46042443
 H     29  27  15     2.060886366903   111.87543383   319.78222582
 H     29  27  15     2.057814212424   109.78153671   196.68316944

---------------------
BASIS SET INFORMATION
---------------------
There are 3 groups of distinct atoms

 Group   1 Type C   : 19s6p3d2f contracted to 5s4p3d2f pattern {88111/3111/111/11}
 Group   2 Type H   : 6s3p2d contracted to 4s3p2d pattern {3111/111/11}
 Group   3 Type O   : 19s6p3d2f contracted to 5s4p3d2f pattern {88111/3111/111/11}

Atom   0C    basis set group =>   1
Atom   1C    basis set group =>   1
Atom   2C    basis set group =>   1
Atom   3C    basis set group =>   1
Atom   4C    basis set group =>   1
Atom   5H    basis set group =>   2
Atom   6H    basis set group =>   2
Atom   7H    basis set group =>   2
Atom   8H    basis set group =>   2
Atom   9H    basis set group =>   2
Atom  10H    basis set group =>   2
Atom  11H    basis set group =>   2
Atom  12H    basis set group =>   2
Atom  13C    basis set group =>   1
Atom  14C    basis set group =>   1
Atom  15C    basis set group =>   1
Atom  16H    basis set group =>   2
Atom  17C    basis set group =>   1
Atom  18C    basis set group =>   1
Atom  19H    basis set group =>   2
Atom  20H    basis set group =>   2
Atom  21H    basis set group =>   2
Atom  22C    basis set group =>   1
Atom  23H    basis set group =>   2
Atom  24H    basis set group =>   2
Atom  25H    basis set group =>   2
Atom  26C    basis set group =>   1
Atom  27O    basis set group =>   3
Atom  28C    basis set group =>   1
Atom  29C    basis set group =>   1
Atom  30C    basis set group =>   1
Atom  31H    basis set group =>   2
Atom  32C    basis set group =>   1
Atom  33H    basis set group =>   2
Atom  34H    basis set group =>   2
Atom  35H    basis set group =>   2
Atom  36C    basis set group =>   1
Atom  37H    basis set group =>   2
Atom  38H    basis set group =>   2
Atom  39H    basis set group =>   2
Atom  40C    basis set group =>   1
Atom  41H    basis set group =>   2
Atom  42H    basis set group =>   2
Atom  43H    basis set group =>   2
Atom  44H    basis set group =>   2
Atom  45H    basis set group =>   2
Atom  46H    basis set group =>   2
---------------------------------
AUXILIARY/C BASIS SET INFORMATION
---------------------------------
There are 3 groups of distinct atoms

 Group   1 Type C   : 9s7p6d4f2g contracted to 9s7p6d4f2g pattern {111111111/1111111/111111/1111/11}
 Group   2 Type H   : 5s4p3d2f contracted to 5s4p3d2f pattern {11111/1111/111/11}
 Group   3 Type O   : 9s7p6d4f2g contracted to 9s7p6d4f2g pattern {111111111/1111111/111111/1111/11}

Atom   0C    basis set group =>   1
Atom   1C    basis set group =>   1
Atom   2C    basis set group =>   1
Atom   3C    basis set group =>   1
Atom   4C    basis set group =>   1
Atom   5H    basis set group =>   2
Atom   6H    basis set group =>   2
Atom   7H    basis set group =>   2
Atom   8H    basis set group =>   2
Atom   9H    basis set group =>   2
Atom  10H    basis set group =>   2
Atom  11H    basis set group =>   2
Atom  12H    basis set group =>   2
Atom  13C    basis set group =>   1
Atom  14C    basis set group =>   1
Atom  15C    basis set group =>   1
Atom  16H    basis set group =>   2
Atom  17C    basis set group =>   1
Atom  18C    basis set group =>   1
Atom  19H    basis set group =>   2
Atom  20H    basis set group =>   2
Atom  21H    basis set group =>   2
Atom  22C    basis set group =>   1
Atom  23H    basis set group =>   2
Atom  24H    basis set group =>   2
Atom  25H    basis set group =>   2
Atom  26C    basis set group =>   1
Atom  27O    basis set group =>   3
Atom  28C    basis set group =>   1
Atom  29C    basis set group =>   1
Atom  30C    basis set group =>   1
Atom  31H    basis set group =>   2
Atom  32C    basis set group =>   1
Atom  33H    basis set group =>   2
Atom  34H    basis set group =>   2
Atom  35H    basis set group =>   2
Atom  36C    basis set group =>   1
Atom  37H    basis set group =>   2
Atom  38H    basis set group =>   2
Atom  39H    basis set group =>   2
Atom  40C    basis set group =>   1
Atom  41H    basis set group =>   2
Atom  42H    basis set group =>   2
Atom  43H    basis set group =>   2
Atom  44H    basis set group =>   2
Atom  45H    basis set group =>   2
Atom  46H    basis set group =>   2


           ************************************************************
           *        Program running with 32 parallel MPI-processes    *
           *              working on a common directory               *
           ************************************************************
------------------------------------------------------------------------------
                           ORCA GTO INTEGRAL CALCULATION
------------------------------------------------------------------------------

                         BASIS SET STATISTICS AND STARTUP INFO

 # of primitive gaussian shells          ...  878
 # of primitive gaussian functions       ... 1954
 # of contracted shells                  ...  518
 # of contracted basis functions         ... 1518
 Highest angular momentum                ...    3
 Maximum contraction depth               ...    8
 Integral package used                   ... LIBINT
 Integral threshhold            Thresh   ...  2.500e-11
 Primitive cut-off              TCut     ...  2.500e-12


------------------------------ INTEGRAL EVALUATION ----------------------------


 * One electron integrals 
 Pre-screening matrix                    ... done
 Shell pair data                         ... done (   0.049 sec)



           ************************************************************
           *        Program running with 32 parallel MPI-processes    *
           *              working on a common directory               *
           ************************************************************
-------------------------------------------------------------------------------
                                 ORCA SCF
-------------------------------------------------------------------------------

------------
SCF SETTINGS
------------
Hamiltonian:
 Ab initio Hamiltonian  Method          .... Hartree-Fock(GTOs)


General Settings:
 Integral files         IntName         .... /tmp/pbs.2147706.pbsha.ib.sockeye/MP2augccpVTZ_02_9TS
 Hartree-Fock type      HFTyp           .... RHF
 Total Charge           Charge          ....    0
 Multiplicity           Mult            ....    1
 Number of Electrons    NEL             ....  144
 Basis Dimension        Dim             .... 1518
 Nuclear Repulsion      ENuc            ....   1514.3250726061 Eh

Convergence Acceleration:
 DIIS                   CNVDIIS         .... on
   Start iteration      DIISMaxIt       ....    12
   Startup error        DIISStart       ....  0.200000
   # of expansion vecs  DIISMaxEq       ....     5
   Bias factor          DIISBfac        ....   1.050
   Max. coefficient     DIISMaxC        ....  10.000
 Newton-Raphson         CNVNR           .... off
 SOSCF                  CNVSOSCF        .... on
   Start iteration      SOSCFMaxIt      ....   150
   Startup grad/error   SOSCFStart      ....  0.003300
 Level Shifting         CNVShift        .... on
   Level shift para.    LevelShift      ....    0.2500
   Turn off err/grad.   ShiftErr        ....    0.0010
 Zerner damping         CNVZerner       .... off
 Static damping         CNVDamp         .... on
   Fraction old density DampFac         ....    0.7000
   Max. Damping (<1)    DampMax         ....    0.9800
   Min. Damping (>=0)   DampMin         ....    0.0000
   Turn off err/grad.   DampErr         ....    0.1000
 Fernandez-Rico         CNVRico         .... off

SCF Procedure:
 Maximum # iterations   MaxIter         ....   125
 SCF integral mode      SCFMode         .... Direct
   Integral package                     .... LIBINT
 Reset frequency        DirectResetFreq ....    20
 Integral Threshold     Thresh          ....  2.500e-11 Eh
 Primitive CutOff       TCut            ....  2.500e-12 Eh

Convergence Tolerance:
 Convergence Check Mode ConvCheckMode   .... Total+1el-Energy
 Convergence forced     ConvForced      .... 1
 Energy Change          TolE            ....  1.000e-08 Eh
 1-El. energy change                    ....  1.000e-05 Eh
 Orbital Gradient       TolG            ....  1.000e-05
 Orbital Rotation angle TolX            ....  1.000e-05
 DIIS Error             TolErr          ....  5.000e-07


Diagonalization of the overlap matrix:
Smallest eigenvalue                        ... 2.315e-07
Time for diagonalization                   ...    0.320 sec
Threshold for overlap eigenvalues          ... 1.000e-08
Number of eigenvalues below threshold      ... 0
Time for construction of square roots      ...    0.223 sec
Total time needed                          ...    0.552 sec

-------------------
DFT GRID GENERATION
-------------------

General Integration Accuracy     IntAcc      ...  4.340
Radial Grid Type                 RadialGrid  ... Gauss-Chebyshev
Angular Grid (max. acc.)         AngularGrid ... Lebedev-110
Angular grid pruning method      GridPruning ... 3 (G Style)
Weight generation scheme         WeightScheme... Becke
Basis function cutoff            BFCut       ...    1.0000e-11
Integration weight cutoff        WCut        ...    1.0000e-14
Grids for H and He will be reduced by one unit

# of grid points (after initial pruning)     ...  53756 (   0.0 sec)
# of grid points (after weights+screening)   ...  47008 (   0.1 sec)
nearest neighbour list constructed           ...    0.0 sec
Grid point re-assignment to atoms done       ...    0.0 sec
Grid point division into batches done        ...    0.0 sec
Reduced shell lists constructed in    0.1 sec

Total number of grid points                  ...    47008
Total number of batches                      ...      758
Average number of points per batch           ...       62
Average number of grid points per atom       ...     1000
Average number of shells per batch           ...   343.92 (66.39%)
Average number of basis functions per batch  ...   975.44 (64.26%)
Average number of large shells per batch     ...   262.00 (76.18%)
Average number of large basis fcns per batch ...   734.88 (75.34%)
Maximum spatial batch extension              ...   2.71,  2.29,  2.30 au
Average spatial batch extension              ...   0.05,  0.05,  0.05 au

Time for grid setup =    0.216 sec

------------------------------
INITIAL GUESS: MODEL POTENTIAL
------------------------------
Loading Hartree-Fock densities                     ... done
Calculating cut-offs                               ... done
Setting up the integral package                    ... done
Initializing the effective Hamiltonian             ... done
Starting the Coulomb interaction                   ... done (   0.4 sec)
Reading the grid                                   ... done
Mapping shells                                     ... done
Starting the XC term evaluation                    ... done (   0.3 sec)
Transforming the Hamiltonian                       ... done (   0.1 sec)
Diagonalizing the Hamiltonian                      ... done (   0.3 sec)
Back transforming the eigenvectors                 ... done (   0.1 sec)
Now organizing SCF variables                       ... done
                      ------------------
                      INITIAL GUESS DONE (   1.6 sec)
                      ------------------
--------------
SCF ITERATIONS
--------------
ITER       Energy         Delta-E        Max-DP      RMS-DP      [F,P]     Damp
               ***  Starting incremental Fock matrix formation  ***
  0   -771.9481825475   0.000000000000 1.02826248  0.00318953  0.3094789 0.7000
  1   -772.2848174827  -0.336634935185 0.78663027  0.00248962  0.1866277 0.7000
                               ***Turning on DIIS***
  2   -772.4929583986  -0.208140915909 0.51838709  0.00173746  0.1092928 0.7000
  3   -775.0283883343  -2.535429935765 1.00916887  0.00400798  0.0825218 0.0000
  4   -772.6495489713   2.378839363053 0.08258405  0.00036257  0.0083704 0.0000
  5   -772.8937918554  -0.244242884108 0.04968839  0.00017227  0.0038629 0.0000
                      *** Initiating the SOSCF procedure ***
                           *** Shutting down DIIS ***
                      *** Re-Reading the Fockian *** 
                      *** Removing any level shift *** 
ITER      Energy       Delta-E        Grad      Rot      Max-DP    RMS-DP
  6   -772.91022874  -0.0164368811  0.001057  0.001057  0.014797  0.000060
               *** Restarting incremental Fock matrix formation ***
  7   -772.92985075  -0.0196220152  0.000616  0.001569  0.018491  0.000043
  8   -772.92988830  -0.0000375502  0.000477  0.002286  0.014249  0.000044
  9   -772.92990631  -0.0000180033  0.000083  0.000184  0.003622  0.000021
 10   -772.92990813  -0.0000018250  0.000080  0.000407  0.006569  0.000042
 11   -772.92990885  -0.0000007169  0.000015  0.000101  0.005050  0.000030
 12   -772.92990887  -0.0000000269  0.000014  0.000043  0.009314  0.000043
 13   -772.92990903  -0.0000001580  0.000003  0.000014  0.004114  0.000027
                  ***Gradient check signals convergence***
              ***Rediagonalizing the Fockian in SOSCF/NRSCF***

               *****************************************************
               *                     SUCCESS                       *
               *           SCF CONVERGED AFTER  14 CYCLES          *
               *****************************************************


----------------
TOTAL SCF ENERGY
----------------

Total Energy       :         -772.92990900 Eh          -21032.49210 eV

Components:
Nuclear Repulsion  :         1514.32507261 Eh           41206.88014 eV
Electronic Energy  :        -2287.25498161 Eh          -62239.37224 eV
One Electron Energy:        -4057.98756261 Eh         -110423.45540 eV
Two Electron Energy:         1770.73258101 Eh           48184.08316 eV

Virial components:
Potential Energy   :        -1545.11880456 Eh          -42044.82019 eV
Kinetic Energy     :          772.18889556 Eh           21012.32809 eV
Virial Ratio       :            2.00095963


---------------
SCF CONVERGENCE
---------------

  Last Energy change         ...    3.2845e-08  Tolerance :   1.0000e-08
  Last MAX-Density change    ...    3.7353e-03  Tolerance :   1.0000e-07
  Last RMS-Density change    ...    2.8516e-05  Tolerance :   5.0000e-09
  Last Orbital Gradient      ...    9.2404e-07  Tolerance :   1.0000e-05
  Last Orbital Rotation      ...    4.4976e-06  Tolerance :   1.0000e-05

             **** THE GBW FILE WAS UPDATED (/tmp/pbs.2147706.pbsha.ib.sockeye/MP2augccpVTZ_02_9TS.gbw) ****
             **** DENSITY FILE WAS UPDATED (/tmp/pbs.2147706.pbsha.ib.sockeye/MP2augccpVTZ_02_9TS.scfp) ****
             **** ENERGY FILE WAS UPDATED (/tmp/pbs.2147706.pbsha.ib.sockeye/MP2augccpVTZ_02_9TS.en.tmp) ****
             **** THE GBW FILE WAS UPDATED (/tmp/pbs.2147706.pbsha.ib.sockeye/MP2augccpVTZ_02_9TS.gbw) ****
             **** DENSITY FILE WAS UPDATED (/tmp/pbs.2147706.pbsha.ib.sockeye/MP2augccpVTZ_02_9TS.scfp) ****
----------------
ORBITAL ENERGIES
----------------

  NO   OCC          E(Eh)            E(eV) 
   0   2.0000     -20.499471      -557.8190 
   1   2.0000     -11.296381      -307.3902 
   2   2.0000     -11.251267      -306.1625 
   3   2.0000     -11.241924      -305.9083 
   4   2.0000     -11.241859      -305.9065 
   5   2.0000     -11.238721      -305.8211 
   6   2.0000     -11.237468      -305.7870 
   7   2.0000     -11.234359      -305.7025 
   8   2.0000     -11.231076      -305.6131 
   9   2.0000     -11.228785      -305.5508 
  10   2.0000     -11.226522      -305.4892 
  11   2.0000     -11.222318      -305.3748 
  12   2.0000     -11.221870      -305.3626 
  13   2.0000     -11.219618      -305.3013 
  14   2.0000     -11.217488      -305.2434 
  15   2.0000     -11.213137      -305.1250 
  16   2.0000     -11.213123      -305.1246 
  17   2.0000     -11.210082      -305.0419 
  18   2.0000     -11.209637      -305.0297 
  19   2.0000      -1.343252       -36.5518 
  20   2.0000      -1.141659       -31.0661 
  21   2.0000      -1.123110       -30.5614 
  22   2.0000      -1.083287       -29.4777 
  23   2.0000      -1.071669       -29.1616 
  24   2.0000      -1.021670       -27.8010 
  25   2.0000      -1.013890       -27.5893 
  26   2.0000      -0.981666       -26.7125 
  27   2.0000      -0.969715       -26.3873 
  28   2.0000      -0.934238       -25.4219 
  29   2.0000      -0.924919       -25.1683 
  30   2.0000      -0.896374       -24.3916 
  31   2.0000      -0.860228       -23.4080 
  32   2.0000      -0.825394       -22.4601 
  33   2.0000      -0.782314       -21.2878 
  34   2.0000      -0.766618       -20.8607 
  35   2.0000      -0.738481       -20.0951 
  36   2.0000      -0.718265       -19.5450 
  37   2.0000      -0.698942       -19.0192 
  38   2.0000      -0.675028       -18.3684 
  39   2.0000      -0.650589       -17.7034 
  40   2.0000      -0.635719       -17.2988 
  41   2.0000      -0.630190       -17.1484 
  42   2.0000      -0.622106       -16.9284 
  43   2.0000      -0.616270       -16.7696 
  44   2.0000      -0.599338       -16.3088 
  45   2.0000      -0.584210       -15.8972 
  46   2.0000      -0.581357       -15.8195 
  47   2.0000      -0.574598       -15.6356 
  48   2.0000      -0.572322       -15.5737 
  49   2.0000      -0.563629       -15.3371 
  50   2.0000      -0.557944       -15.1824 
  51   2.0000      -0.551254       -15.0004 
  52   2.0000      -0.542488       -14.7618 
  53   2.0000      -0.538481       -14.6528 
  54   2.0000      -0.535593       -14.5742 
  55   2.0000      -0.529193       -14.4001 
  56   2.0000      -0.524597       -14.2750 
  57   2.0000      -0.521170       -14.1818 
  58   2.0000      -0.520174       -14.1547 
  59   2.0000      -0.503511       -13.7012 
  60   2.0000      -0.498758       -13.5719 
  61   2.0000      -0.485295       -13.2055 
  62   2.0000      -0.480737       -13.0815 
  63   2.0000      -0.471126       -12.8200 
  64   2.0000      -0.462364       -12.5816 
  65   2.0000      -0.452932       -12.3249 
  66   2.0000      -0.448011       -12.1910 
  67   2.0000      -0.433778       -11.8037 
  68   2.0000      -0.389412       -10.5964 
  69   2.0000      -0.377460       -10.2712 
  70   2.0000      -0.317014        -8.6264 
  71   2.0000      -0.263792        -7.1782 
  72   0.0000       0.021751         0.5919 
  73   0.0000       0.026510         0.7214 
  74   0.0000       0.030190         0.8215 
  75   0.0000       0.032276         0.8783 
  76   0.0000       0.037515         1.0208 
  77   0.0000       0.038395         1.0448 
  78   0.0000       0.040412         1.0997 
  79   0.0000       0.045704         1.2437 
  80   0.0000       0.047976         1.3055 
  81   0.0000       0.051665         1.4059 
  82   0.0000       0.052908         1.4397 
  83   0.0000       0.056423         1.5353 
  84   0.0000       0.056559         1.5390 
  85   0.0000       0.059989         1.6324 
  86   0.0000       0.061228         1.6661 
  87   0.0000       0.069230         1.8839 
  88   0.0000       0.069385         1.8881 
  89   0.0000       0.071970         1.9584 
  90   0.0000       0.074720         2.0332 
  91   0.0000       0.076055         2.0696 
  92   0.0000       0.079099         2.1524 
  93   0.0000       0.083228         2.2648 
  94   0.0000       0.086032         2.3410 
  95   0.0000       0.087757         2.3880 
  96   0.0000       0.092902         2.5280 
  97   0.0000       0.095610         2.6017 
  98   0.0000       0.097845         2.6625 
  99   0.0000       0.101412         2.7596 
 100   0.0000       0.104813         2.8521 
 101   0.0000       0.109513         2.9800 
 102   0.0000       0.110037         2.9943 
 103   0.0000       0.110862         3.0167 
 104   0.0000       0.112434         3.0595 
 105   0.0000       0.118125         3.2143 
 106   0.0000       0.121179         3.2974 
 107   0.0000       0.123186         3.3521 
 108   0.0000       0.125343         3.4108 
 109   0.0000       0.128171         3.4877 
 110   0.0000       0.129214         3.5161 
 111   0.0000       0.131755         3.5852 
 112   0.0000       0.133130         3.6227 
 113   0.0000       0.136911         3.7255 
 114   0.0000       0.137747         3.7483 
 115   0.0000       0.141372         3.8469 
 116   0.0000       0.142287         3.8718 
 117   0.0000       0.144118         3.9216 
 118   0.0000       0.145236         3.9521 
 119   0.0000       0.147441         4.0121 
 120   0.0000       0.149528         4.0689 
 121   0.0000       0.150368         4.0917 
 122   0.0000       0.152992         4.1631 
 123   0.0000       0.158902         4.3239 
 124   0.0000       0.160955         4.3798 
 125   0.0000       0.162120         4.4115 
 126   0.0000       0.165580         4.5057 
 127   0.0000       0.168257         4.5785 
 128   0.0000       0.172272         4.6878 
 129   0.0000       0.173147         4.7116 
 130   0.0000       0.174593         4.7509 
 131   0.0000       0.176413         4.8004 
 132   0.0000       0.178955         4.8696 
 133   0.0000       0.181483         4.9384 
 134   0.0000       0.183444         4.9918 
 135   0.0000       0.185915         5.0590 
 136   0.0000       0.189489         5.1563 
 137   0.0000       0.189829         5.1655 
 138   0.0000       0.192041         5.2257 
 139   0.0000       0.195108         5.3092 
 140   0.0000       0.197370         5.3707 
 141   0.0000       0.199552         5.4301 
 142   0.0000       0.202942         5.5223 
 143   0.0000       0.205194         5.5836 
 144   0.0000       0.209609         5.7037 
 145   0.0000       0.213648         5.8136 
 146   0.0000       0.217497         5.9184 
 147   0.0000       0.220945         6.0122 
 148   0.0000       0.221580         6.0295 
 149   0.0000       0.223076         6.0702 
 150   0.0000       0.226742         6.1700 
 151   0.0000       0.229042         6.2325 
 152   0.0000       0.231698         6.3048 
 153   0.0000       0.232643         6.3305 
 154   0.0000       0.241206         6.5636 
 155   0.0000       0.243680         6.6309 
 156   0.0000       0.248726         6.7682 
 157   0.0000       0.249735         6.7956 
 158   0.0000       0.251814         6.8522 
 159   0.0000       0.255225         6.9450 
 160   0.0000       0.256834         6.9888 
 161   0.0000       0.259708         7.0670 
 162   0.0000       0.260995         7.1020 
 163   0.0000       0.263333         7.1657 
 164   0.0000       0.265512         7.2249 
 165   0.0000       0.268390         7.3033 
 166   0.0000       0.271408         7.3854 
 167   0.0000       0.273125         7.4321 
 168   0.0000       0.278979         7.5914 
 169   0.0000       0.279900         7.6165 
 170   0.0000       0.283948         7.7266 
 171   0.0000       0.284891         7.7523 
 172   0.0000       0.287314         7.8182 
 173   0.0000       0.289132         7.8677 
 174   0.0000       0.290365         7.9012 
 175   0.0000       0.292417         7.9571 
 176   0.0000       0.294859         8.0235 
 177   0.0000       0.298628         8.1261 
 178   0.0000       0.300485         8.1766 
 179   0.0000       0.302940         8.2434 
 180   0.0000       0.305838         8.3223 
 181   0.0000       0.308024         8.3817 
 182   0.0000       0.310179         8.4404 
 183   0.0000       0.313743         8.5374 
 184   0.0000       0.317381         8.6364 
 185   0.0000       0.318906         8.6779 
 186   0.0000       0.320869         8.7313 
 187   0.0000       0.323926         8.8145 
 188   0.0000       0.326694         8.8898 
 189   0.0000       0.329758         8.9732 
 190   0.0000       0.333722         9.0810 
 191   0.0000       0.335206         9.1214 
 192   0.0000       0.337318         9.1789 
 193   0.0000       0.339343         9.2340 
 194   0.0000       0.342576         9.3220 
 195   0.0000       0.346483         9.4283 
 196   0.0000       0.350805         9.5459 
 197   0.0000       0.350991         9.5510 
 198   0.0000       0.352909         9.6031 
 199   0.0000       0.353406         9.6167 
 200   0.0000       0.356336         9.6964 
 201   0.0000       0.360055         9.7976 
 202   0.0000       0.363682         9.8963 
 203   0.0000       0.365040         9.9332 
 204   0.0000       0.367384         9.9970 
 205   0.0000       0.369043        10.0422 
 206   0.0000       0.372344        10.1320 
 207   0.0000       0.373212        10.1556 
 208   0.0000       0.375900        10.2287 
 209   0.0000       0.378330        10.2949 
 210   0.0000       0.380002        10.3404 
 211   0.0000       0.383244        10.4286 
 212   0.0000       0.385568        10.4918 
 213   0.0000       0.390363        10.6223 
 214   0.0000       0.390827        10.6349 
 215   0.0000       0.394058        10.7229 
 216   0.0000       0.396904        10.8003 
 217   0.0000       0.399705        10.8765 
 218   0.0000       0.400379        10.8949 
 219   0.0000       0.403319        10.9749 
 220   0.0000       0.405333        11.0297 
 221   0.0000       0.409765        11.1503 
 222   0.0000       0.410294        11.1647 
 223   0.0000       0.413891        11.2625 
 224   0.0000       0.415953        11.3187 
 225   0.0000       0.418182        11.3793 
 226   0.0000       0.419311        11.4100 
 227   0.0000       0.420842        11.4517 
 228   0.0000       0.424705        11.5568 
 229   0.0000       0.425534        11.5794 
 230   0.0000       0.428359        11.6562 
 231   0.0000       0.430388        11.7115 
 232   0.0000       0.436232        11.8705 
 233   0.0000       0.437857        11.9147 
 234   0.0000       0.440255        11.9799 
 235   0.0000       0.440968        11.9994 
 236   0.0000       0.445474        12.1220 
 237   0.0000       0.446510        12.1501 
 238   0.0000       0.447773        12.1845 
 239   0.0000       0.449542        12.2327 
 240   0.0000       0.450106        12.2480 
 241   0.0000       0.454942        12.3796 
 242   0.0000       0.458147        12.4668 
 243   0.0000       0.459688        12.5087 
 244   0.0000       0.463468        12.6116 
 245   0.0000       0.464965        12.6524 
 246   0.0000       0.468808        12.7569 
 247   0.0000       0.472775        12.8649 
 248   0.0000       0.474739        12.9183 
 249   0.0000       0.477076        12.9819 
 250   0.0000       0.478471        13.0198 
 251   0.0000       0.480884        13.0855 
 252   0.0000       0.483593        13.1592 
 253   0.0000       0.487559        13.2671 
 254   0.0000       0.489123        13.3097 
 255   0.0000       0.492050        13.3894 
 256   0.0000       0.493889        13.4394 
 257   0.0000       0.494850        13.4656 
 258   0.0000       0.498480        13.5643 
 259   0.0000       0.501039        13.6340 
 260   0.0000       0.503372        13.6975 
 261   0.0000       0.506118        13.7722 
 262   0.0000       0.508209        13.8291 
 263   0.0000       0.509451        13.8629 
 264   0.0000       0.511579        13.9208 
 265   0.0000       0.512842        13.9551 
 266   0.0000       0.514697        14.0056 
 267   0.0000       0.515987        14.0407 
 268   0.0000       0.519394        14.1334 
 269   0.0000       0.520566        14.1653 
 270   0.0000       0.523457        14.2440 
 271   0.0000       0.526082        14.3154 
 272   0.0000       0.526818        14.3355 
 273   0.0000       0.528553        14.3826 
 274   0.0000       0.531174        14.4540 
 275   0.0000       0.534982        14.5576 
 276   0.0000       0.537531        14.6270 
 277   0.0000       0.539845        14.6899 
 278   0.0000       0.543224        14.7819 
 279   0.0000       0.544399        14.8138 
 280   0.0000       0.545042        14.8313 
 281   0.0000       0.546730        14.8773 
 282   0.0000       0.550172        14.9709 
 283   0.0000       0.552148        15.0247 
 284   0.0000       0.553980        15.0746 
 285   0.0000       0.555486        15.1156 
 286   0.0000       0.557667        15.1749 
 287   0.0000       0.562144        15.2967 
 288   0.0000       0.563463        15.3326 
 289   0.0000       0.565760        15.3951 
 290   0.0000       0.567699        15.4479 
 291   0.0000       0.569295        15.4913 
 292   0.0000       0.570438        15.5224 
 293   0.0000       0.572632        15.5821 
 294   0.0000       0.575669        15.6647 
 295   0.0000       0.576362        15.6836 
 296   0.0000       0.579169        15.7600 
 297   0.0000       0.579858        15.7788 
 298   0.0000       0.584462        15.9040 
 299   0.0000       0.585796        15.9403 
 300   0.0000       0.590001        16.0548 
 301   0.0000       0.592242        16.1157 
 302   0.0000       0.594206        16.1692 
 303   0.0000       0.597794        16.2668 
 304   0.0000       0.598851        16.2956 
 305   0.0000       0.602597        16.3975 
 306   0.0000       0.603215        16.4143 
 307   0.0000       0.606589        16.5061 
 308   0.0000       0.608561        16.5598 
 309   0.0000       0.610000        16.5989 
 310   0.0000       0.611639        16.6435 
 311   0.0000       0.615917        16.7600 
 312   0.0000       0.618739        16.8367 
 313   0.0000       0.623071        16.9546 
 314   0.0000       0.626093        17.0369 
 315   0.0000       0.628012        17.0891 
 316   0.0000       0.629282        17.1236 
 317   0.0000       0.632274        17.2050 
 318   0.0000       0.635272        17.2866 
 319   0.0000       0.637632        17.3508 
 320   0.0000       0.639485        17.4013 
 321   0.0000       0.642779        17.4909 
 322   0.0000       0.647180        17.6107 
 323   0.0000       0.648545        17.6478 
 324   0.0000       0.652220        17.7478 
 325   0.0000       0.652550        17.7568 
 326   0.0000       0.655043        17.8246 
 327   0.0000       0.659647        17.9499 
 328   0.0000       0.663819        18.0634 
 329   0.0000       0.665546        18.1104 
 330   0.0000       0.667144        18.1539 
 331   0.0000       0.670929        18.2569 
 332   0.0000       0.671705        18.2780 
 333   0.0000       0.673155        18.3175 
 334   0.0000       0.676667        18.4131 
 335   0.0000       0.681412        18.5422 
 336   0.0000       0.685011        18.6401 
 337   0.0000       0.686542        18.6817 
 338   0.0000       0.690305        18.7842 
 339   0.0000       0.691410        18.8142 
 340   0.0000       0.693652        18.8752 
 341   0.0000       0.696001        18.9392 
 342   0.0000       0.698522        19.0078 
 343   0.0000       0.700080        19.0501 
 344   0.0000       0.706181        19.2162 
 345   0.0000       0.708240        19.2722 
 346   0.0000       0.711837        19.3701 
 347   0.0000       0.715663        19.4742 
 348   0.0000       0.717275        19.5181 
 349   0.0000       0.719156        19.5692 
 350   0.0000       0.720819        19.6145 
 351   0.0000       0.726068        19.7573 
 352   0.0000       0.730323        19.8731 
 353   0.0000       0.731767        19.9124 
 354   0.0000       0.736147        20.0316 
 355   0.0000       0.739433        20.1210 
 356   0.0000       0.741128        20.1671 
 357   0.0000       0.743594        20.2342 
 358   0.0000       0.744795        20.2669 
 359   0.0000       0.750071        20.4105 
 360   0.0000       0.757931        20.6243 
 361   0.0000       0.760135        20.6843 
 362   0.0000       0.760780        20.7019 
 363   0.0000       0.767937        20.8966 
 364   0.0000       0.770485        20.9660 
 365   0.0000       0.772595        21.0234 
 366   0.0000       0.774661        21.0796 
 367   0.0000       0.776085        21.1183 
 368   0.0000       0.780584        21.2408 
 369   0.0000       0.788002        21.4426 
 370   0.0000       0.791805        21.5461 
 371   0.0000       0.792926        21.5766 
 372   0.0000       0.795437        21.6449 
 373   0.0000       0.799312        21.7504 
 374   0.0000       0.802003        21.8236 
 375   0.0000       0.807183        21.9646 
 376   0.0000       0.813681        22.1414 
 377   0.0000       0.815980        22.2039 
 378   0.0000       0.821394        22.3513 
 379   0.0000       0.824340        22.4314 
 380   0.0000       0.825771        22.4704 
 381   0.0000       0.833399        22.6780 
 382   0.0000       0.833619        22.6839 
 383   0.0000       0.835078        22.7236 
 384   0.0000       0.840268        22.8648 
 385   0.0000       0.843078        22.9413 
 386   0.0000       0.845088        22.9960 
 387   0.0000       0.847466        23.0607 
 388   0.0000       0.851307        23.1652 
 389   0.0000       0.855841        23.2886 
 390   0.0000       0.859704        23.3937 
 391   0.0000       0.863161        23.4878 
 392   0.0000       0.864463        23.5232 
 393   0.0000       0.865607        23.5544 
 394   0.0000       0.870267        23.6812 
 395   0.0000       0.873392        23.7662 
 396   0.0000       0.875358        23.8197 
 397   0.0000       0.878712        23.9110 
 398   0.0000       0.882807        24.0224 
 399   0.0000       0.887308        24.1449 
 400   0.0000       0.892415        24.2838 
 401   0.0000       0.893715        24.3192 
 402   0.0000       0.895749        24.3746 
 403   0.0000       0.901091        24.5199 
 404   0.0000       0.904258        24.6061 
 405   0.0000       0.904912        24.6239 
 406   0.0000       0.909329        24.7441 
 407   0.0000       0.912425        24.8283 
 408   0.0000       0.919199        25.0127 
 409   0.0000       0.920209        25.0402 
 410   0.0000       0.923506        25.1299 
 411   0.0000       0.925649        25.1882 
 412   0.0000       0.929624        25.2964 
 413   0.0000       0.931019        25.3343 
 414   0.0000       0.935255        25.4496 
 415   0.0000       0.938862        25.5477 
 416   0.0000       0.940076        25.5808 
 417   0.0000       0.940582        25.5945 
 418   0.0000       0.945782        25.7360 
 419   0.0000       0.946252        25.7488 
 420   0.0000       0.952066        25.9070 
 421   0.0000       0.955529        26.0013 
 422   0.0000       0.958689        26.0873 
 423   0.0000       0.960074        26.1249 
 424   0.0000       0.961841        26.1730 
 425   0.0000       0.965871        26.2827 
 426   0.0000       0.968227        26.3468 
 427   0.0000       0.970011        26.3953 
 428   0.0000       0.973415        26.4880 
 429   0.0000       0.975983        26.5579 
 430   0.0000       0.978123        26.6161 
 431   0.0000       0.982798        26.7433 
 432   0.0000       0.985474        26.8161 
 433   0.0000       0.987108        26.8606 
 434   0.0000       0.988029        26.8856 
 435   0.0000       0.992244        27.0003 
 436   0.0000       0.994046        27.0494 
 437   0.0000       0.998482        27.1701 
 438   0.0000       1.002166        27.2703 
 439   0.0000       1.003876        27.3169 
 440   0.0000       1.004270        27.3276 
 441   0.0000       1.008713        27.4485 
 442   0.0000       1.013675        27.5835 
 443   0.0000       1.016922        27.6718 
 444   0.0000       1.017357        27.6837 
 445   0.0000       1.021279        27.7904 
 446   0.0000       1.025412        27.9029 
 447   0.0000       1.025780        27.9129 
 448   0.0000       1.029597        28.0167 
 449   0.0000       1.031732        28.0749 
 450   0.0000       1.034366        28.1465 
 451   0.0000       1.036250        28.1978 
 452   0.0000       1.037390        28.2288 
 453   0.0000       1.040210        28.3056 
 454   0.0000       1.042643        28.3718 
 455   0.0000       1.046896        28.4875 
 456   0.0000       1.048148        28.5216 
 457   0.0000       1.050285        28.5797 
 458   0.0000       1.054342        28.6901 
 459   0.0000       1.056417        28.7466 
 460   0.0000       1.058462        28.8022 
 461   0.0000       1.062247        28.9052 
 462   0.0000       1.063286        28.9335 
 463   0.0000       1.070172        29.1209 
 464   0.0000       1.071997        29.1705 
 465   0.0000       1.073626        29.2148 
 466   0.0000       1.077985        29.3335 
 467   0.0000       1.080135        29.3920 
 468   0.0000       1.083070        29.4718 
 469   0.0000       1.083798        29.4916 
 470   0.0000       1.086259        29.5586 
 471   0.0000       1.089163        29.6376 
 472   0.0000       1.091282        29.6953 
 473   0.0000       1.097742        29.8711 
 474   0.0000       1.100001        29.9326 
 475   0.0000       1.102343        29.9963 
 476   0.0000       1.105123        30.0719 
 477   0.0000       1.108930        30.1755 
 478   0.0000       1.110386        30.2151 
 479   0.0000       1.111142        30.2357 
 480   0.0000       1.115197        30.3460 
 481   0.0000       1.117992        30.4221 
 482   0.0000       1.122420        30.5426 
 483   0.0000       1.126193        30.6453 
 484   0.0000       1.127570        30.6827 
 485   0.0000       1.130008        30.7491 
 486   0.0000       1.134557        30.8729 
 487   0.0000       1.138080        30.9687 
 488   0.0000       1.140069        31.0229 
 489   0.0000       1.142197        31.0808 
 490   0.0000       1.145080        31.1592 
 491   0.0000       1.148952        31.2646 
 492   0.0000       1.150123        31.2964 
 493   0.0000       1.153486        31.3880 
 494   0.0000       1.154169        31.4065 
 495   0.0000       1.158916        31.5357 
 496   0.0000       1.162099        31.6223 
 497   0.0000       1.163591        31.6629 
 498   0.0000       1.167549        31.7706 
 499   0.0000       1.170632        31.8545 
 500   0.0000       1.172658        31.9097 
 501   0.0000       1.176108        32.0035 
 502   0.0000       1.177035        32.0287 
 503   0.0000       1.181312        32.1451 
 504   0.0000       1.182450        32.1761 
 505   0.0000       1.186753        32.2932 
 506   0.0000       1.189268        32.3616 
 507   0.0000       1.190543        32.3963 
 508   0.0000       1.194157        32.4947 
 509   0.0000       1.197649        32.5897 
 510   0.0000       1.200597        32.6699 
 511   0.0000       1.203157        32.7396 
 512   0.0000       1.204692        32.7813 
 513   0.0000       1.205986        32.8166 
 514   0.0000       1.211438        32.9649 
 515   0.0000       1.217042        33.1174 
 516   0.0000       1.219022        33.1713 
 517   0.0000       1.219519        33.1848 
 518   0.0000       1.222037        33.2533 
 519   0.0000       1.225193        33.3392 
 520   0.0000       1.226727        33.3809 
 521   0.0000       1.232055        33.5259 
 522   0.0000       1.234573        33.5944 
 523   0.0000       1.237970        33.6869 
 524   0.0000       1.240700        33.7612 
 525   0.0000       1.244120        33.8542 
 526   0.0000       1.246921        33.9304 
 527   0.0000       1.248686        33.9785 
 528   0.0000       1.251747        34.0618 
 529   0.0000       1.257950        34.2306 
 530   0.0000       1.260342        34.2957 
 531   0.0000       1.262395        34.3515 
 532   0.0000       1.264484        34.4084 
 533   0.0000       1.268677        34.5225 
 534   0.0000       1.272231        34.6192 
 535   0.0000       1.276152        34.7259 
 536   0.0000       1.277270        34.7563 
 537   0.0000       1.280823        34.8530 
 538   0.0000       1.285067        34.9685 
 539   0.0000       1.290675        35.1211 
 540   0.0000       1.291444        35.1420 
 541   0.0000       1.293533        35.1988 
 542   0.0000       1.295461        35.2513 
 543   0.0000       1.299219        35.3535 
 544   0.0000       1.300786        35.3962 
 545   0.0000       1.305527        35.5252 
 546   0.0000       1.307414        35.5765 
 547   0.0000       1.309805        35.6416 
 548   0.0000       1.320544        35.9338 
 549   0.0000       1.321144        35.9501 
 550   0.0000       1.326337        36.0915 
 551   0.0000       1.330045        36.1924 
 552   0.0000       1.336438        36.3663 
 553   0.0000       1.338105        36.4117 
 554   0.0000       1.339390        36.4466 
 555   0.0000       1.344827        36.5946 
 556   0.0000       1.348728        36.7007 
 557   0.0000       1.350879        36.7593 
 558   0.0000       1.353748        36.8374 
 559   0.0000       1.358842        36.9760 
 560   0.0000       1.359417        36.9916 
 561   0.0000       1.363031        37.0900 
 562   0.0000       1.365910        37.1683 
 563   0.0000       1.369491        37.2658 
 564   0.0000       1.376555        37.4580 
 565   0.0000       1.384818        37.6828 
 566   0.0000       1.387061        37.7438 
 567   0.0000       1.388069        37.7713 
 568   0.0000       1.392048        37.8795 
 569   0.0000       1.397140        38.0181 
 570   0.0000       1.401262        38.1303 
 571   0.0000       1.403227        38.1837 
 572   0.0000       1.405615        38.2487 
 573   0.0000       1.410704        38.3872 
 574   0.0000       1.415275        38.5116 
 575   0.0000       1.418190        38.5909 
 576   0.0000       1.420425        38.6517 
 577   0.0000       1.422287        38.7024 
 578   0.0000       1.424279        38.7566 
 579   0.0000       1.425609        38.7928 
 580   0.0000       1.430775        38.9334 
 581   0.0000       1.438892        39.1542 
 582   0.0000       1.443083        39.2683 
 583   0.0000       1.443548        39.2809 
 584   0.0000       1.447538        39.3895 
 585   0.0000       1.449029        39.4301 
 586   0.0000       1.454891        39.5896 
 587   0.0000       1.458866        39.6978 
 588   0.0000       1.462031        39.7839 
 589   0.0000       1.466924        39.9170 
 590   0.0000       1.471710        40.0473 
 591   0.0000       1.473733        40.1023 
 592   0.0000       1.475440        40.1488 
 593   0.0000       1.476492        40.1774 
 594   0.0000       1.478838        40.2412 
 595   0.0000       1.481930        40.3254 
 596   0.0000       1.489098        40.5204 
 597   0.0000       1.489278        40.5253 
 598   0.0000       1.497887        40.7596 
 599   0.0000       1.499570        40.8054 
 600   0.0000       1.503470        40.9115 
 601   0.0000       1.507170        41.0122 
 602   0.0000       1.508627        41.0518 
 603   0.0000       1.514097        41.2007 
 604   0.0000       1.518355        41.3165 
 605   0.0000       1.520856        41.3846 
 606   0.0000       1.522570        41.4312 
 607   0.0000       1.527453        41.5641 
 608   0.0000       1.528838        41.6018 
 609   0.0000       1.530969        41.6598 
 610   0.0000       1.532391        41.6985 
 611   0.0000       1.541843        41.9557 
 612   0.0000       1.546083        42.0710 
 613   0.0000       1.547960        42.1221 
 614   0.0000       1.551290        42.2127 
 615   0.0000       1.555703        42.3328 
 616   0.0000       1.557693        42.3870 
 617   0.0000       1.562144        42.5081 
 618   0.0000       1.563333        42.5405 
 619   0.0000       1.569353        42.7043 
 620   0.0000       1.571147        42.7531 
 621   0.0000       1.574281        42.8384 
 622   0.0000       1.578165        42.9441 
 623   0.0000       1.582640        43.0658 
 624   0.0000       1.592228        43.3267 
 625   0.0000       1.598197        43.4892 
 626   0.0000       1.601285        43.5732 
 627   0.0000       1.602873        43.6164 
 628   0.0000       1.605994        43.7013 
 629   0.0000       1.607101        43.7314 
 630   0.0000       1.612211        43.8705 
 631   0.0000       1.614632        43.9364 
 632   0.0000       1.619583        44.0711 
 633   0.0000       1.623244        44.1707 
 634   0.0000       1.627463        44.2855 
 635   0.0000       1.633298        44.4443 
 636   0.0000       1.634900        44.4879 
 637   0.0000       1.637906        44.5697 
 638   0.0000       1.640142        44.6305 
 639   0.0000       1.644879        44.7594 
 640   0.0000       1.647897        44.8416 
 641   0.0000       1.652777        44.9744 
 642   0.0000       1.659590        45.1597 
 643   0.0000       1.661860        45.2215 
 644   0.0000       1.664703        45.2989 
 645   0.0000       1.669026        45.4165 
 646   0.0000       1.670209        45.4487 
 647   0.0000       1.671176        45.4750 
 648   0.0000       1.678108        45.6636 
 649   0.0000       1.680527        45.7295 
 650   0.0000       1.683201        45.8022 
 651   0.0000       1.685863        45.8747 
 652   0.0000       1.691356        46.0241 
 653   0.0000       1.700349        46.2689 
 654   0.0000       1.701503        46.3002 
 655   0.0000       1.706346        46.4320 
 656   0.0000       1.708713        46.4964 
 657   0.0000       1.709701        46.5233 
 658   0.0000       1.716544        46.7095 
 659   0.0000       1.717458        46.7344 
 660   0.0000       1.721477        46.8438 
 661   0.0000       1.723029        46.8860 
 662   0.0000       1.728904        47.0459 
 663   0.0000       1.731559        47.1181 
 664   0.0000       1.736288        47.2468 
 665   0.0000       1.738786        47.3148 
 666   0.0000       1.741806        47.3969 
 667   0.0000       1.744797        47.4783 
 668   0.0000       1.747275        47.5458 
 669   0.0000       1.750879        47.6438 
 670   0.0000       1.752686        47.6930 
 671   0.0000       1.758505        47.8513 
 672   0.0000       1.761860        47.9426 
 673   0.0000       1.762789        47.9679 
 674   0.0000       1.767011        48.0828 
 675   0.0000       1.768909        48.1345 
 676   0.0000       1.774752        48.2934 
 677   0.0000       1.775619        48.3171 
 678   0.0000       1.778062        48.3835 
 679   0.0000       1.783046        48.5191 
 680   0.0000       1.784261        48.5522 
 681   0.0000       1.788243        48.6606 
 682   0.0000       1.790283        48.7161 
 683   0.0000       1.793332        48.7990 
 684   0.0000       1.796387        48.8822 
 685   0.0000       1.802924        49.0600 
 686   0.0000       1.804368        49.0994 
 687   0.0000       1.806316        49.1524 
 688   0.0000       1.809912        49.2502 
 689   0.0000       1.815158        49.3930 
 690   0.0000       1.818295        49.4783 
 691   0.0000       1.820113        49.5278 
 692   0.0000       1.822111        49.5822 
 693   0.0000       1.826386        49.6985 
 694   0.0000       1.830957        49.8229 
 695   0.0000       1.834150        49.9098 
 696   0.0000       1.836800        49.9819 
 697   0.0000       1.840391        50.0796 
 698   0.0000       1.844361        50.1876 
 699   0.0000       1.848210        50.2923 
 700   0.0000       1.850748        50.3614 
 701   0.0000       1.854510        50.4638 
 702   0.0000       1.857592        50.5477 
 703   0.0000       1.860828        50.6357 
 704   0.0000       1.864165        50.7265 
 705   0.0000       1.866210        50.7822 
 706   0.0000       1.871819        50.9348 
 707   0.0000       1.876241        51.0551 
 708   0.0000       1.881069        51.1865 
 709   0.0000       1.881416        51.1959 
 710   0.0000       1.886884        51.3447 
 711   0.0000       1.888414        51.3864 
 712   0.0000       1.892310        51.4924 
 713   0.0000       1.894191        51.5436 
 714   0.0000       1.899327        51.6833 
 715   0.0000       1.899856        51.6977 
 716   0.0000       1.905314        51.8462 
 717   0.0000       1.907897        51.9165 
 718   0.0000       1.911463        52.0135 
 719   0.0000       1.914425        52.0942 
 720   0.0000       1.916452        52.1493 
 721   0.0000       1.919792        52.2402 
 722   0.0000       1.924394        52.3654 
 723   0.0000       1.929333        52.4998 
 724   0.0000       1.933462        52.6122 
 725   0.0000       1.940949        52.8159 
 726   0.0000       1.941546        52.8322 
 727   0.0000       1.944204        52.9045 
 728   0.0000       1.945762        52.9469 
 729   0.0000       1.947760        53.0012 
 730   0.0000       1.952348        53.1261 
 731   0.0000       1.958212        53.2857 
 732   0.0000       1.961663        53.3796 
 733   0.0000       1.967789        53.5463 
 734   0.0000       1.971212        53.6394 
 735   0.0000       1.975190        53.7476 
 736   0.0000       1.977261        53.8040 
 737   0.0000       1.978732        53.8440 
 738   0.0000       1.986556        54.0569 
 739   0.0000       1.987613        54.0857 
 740   0.0000       1.990927        54.1759 
 741   0.0000       1.993300        54.2405 
 742   0.0000       1.998217        54.3742 
 743   0.0000       1.998348        54.3778 
 744   0.0000       2.000516        54.4368 
 745   0.0000       2.004583        54.5475 
 746   0.0000       2.007161        54.6176 
 747   0.0000       2.016203        54.8637 
 748   0.0000       2.016385        54.8686 
 749   0.0000       2.023309        55.0570 
 750   0.0000       2.027977        55.1841 
 751   0.0000       2.030228        55.2453 
 752   0.0000       2.032819        55.3158 
 753   0.0000       2.034258        55.3550 
 754   0.0000       2.037068        55.4314 
 755   0.0000       2.038446        55.4689 
 756   0.0000       2.046854        55.6977 
 757   0.0000       2.048116        55.7321 
 758   0.0000       2.052029        55.8385 
 759   0.0000       2.054979        55.9188 
 760   0.0000       2.058721        56.0207 
 761   0.0000       2.064305        56.1726 
 762   0.0000       2.067169        56.2505 
 763   0.0000       2.073048        56.4105 
 764   0.0000       2.078144        56.5492 
 765   0.0000       2.082470        56.6669 
 766   0.0000       2.084725        56.7283 
 767   0.0000       2.086734        56.7829 
 768   0.0000       2.088839        56.8402 
 769   0.0000       2.096036        57.0360 
 770   0.0000       2.097319        57.0709 
 771   0.0000       2.103589        57.2416 
 772   0.0000       2.109063        57.3905 
 773   0.0000       2.109706        57.4080 
 774   0.0000       2.116139        57.5831 
 775   0.0000       2.122861        57.7660 
 776   0.0000       2.124034        57.7979 
 777   0.0000       2.128503        57.9195 
 778   0.0000       2.135884        58.1204 
 779   0.0000       2.136912        58.1483 
 780   0.0000       2.138948        58.2037 
 781   0.0000       2.144530        58.3556 
 782   0.0000       2.149039        58.4783 
 783   0.0000       2.153226        58.5923 
 784   0.0000       2.153941        58.6117 
 785   0.0000       2.159175        58.7541 
 786   0.0000       2.163464        58.8708 
 787   0.0000       2.170342        59.0580 
 788   0.0000       2.173749        59.1507 
 789   0.0000       2.178064        59.2681 
 790   0.0000       2.182114        59.3784 
 791   0.0000       2.184273        59.4371 
 792   0.0000       2.192033        59.6482 
 793   0.0000       2.196066        59.7580 
 794   0.0000       2.198444        59.8227 
 795   0.0000       2.200941        59.8906 
 796   0.0000       2.210747        60.1575 
 797   0.0000       2.216170        60.3051 
 798   0.0000       2.218226        60.3610 
 799   0.0000       2.220612        60.4259 
 800   0.0000       2.225702        60.5644 
 801   0.0000       2.226399        60.5834 
 802   0.0000       2.228403        60.6379 
 803   0.0000       2.235302        60.8257 
 804   0.0000       2.239450        60.9385 
 805   0.0000       2.242257        61.0149 
 806   0.0000       2.252060        61.2817 
 807   0.0000       2.256255        61.3958 
 808   0.0000       2.257683        61.4347 
 809   0.0000       2.263283        61.5871 
 810   0.0000       2.265762        61.6545 
 811   0.0000       2.274295        61.8867 
 812   0.0000       2.277483        61.9735 
 813   0.0000       2.281600        62.0855 
 814   0.0000       2.285148        62.1820 
 815   0.0000       2.287011        62.2327 
 816   0.0000       2.288599        62.2759 
 817   0.0000       2.290953        62.3400 
 818   0.0000       2.296652        62.4951 
 819   0.0000       2.298910        62.5565 
 820   0.0000       2.304930        62.7203 
 821   0.0000       2.308495        62.8173 
 822   0.0000       2.314036        62.9681 
 823   0.0000       2.318976        63.1025 
 824   0.0000       2.321758        63.1782 
 825   0.0000       2.323489        63.2254 
 826   0.0000       2.328378        63.3584 
 827   0.0000       2.336295        63.5738 
 828   0.0000       2.340052        63.6760 
 829   0.0000       2.345225        63.8168 
 830   0.0000       2.348075        63.8944 
 831   0.0000       2.349271        63.9269 
 832   0.0000       2.357998        64.1644 
 833   0.0000       2.360646        64.2364 
 834   0.0000       2.362877        64.2972 
 835   0.0000       2.368048        64.4379 
 836   0.0000       2.370780        64.5122 
 837   0.0000       2.374449        64.6121 
 838   0.0000       2.382879        64.8414 
 839   0.0000       2.389105        65.0109 
 840   0.0000       2.390255        65.0422 
 841   0.0000       2.392948        65.1154 
 842   0.0000       2.398463        65.2655 
 843   0.0000       2.406623        65.4875 
 844   0.0000       2.408334        65.5341 
 845   0.0000       2.410638        65.5968 
 846   0.0000       2.415402        65.7264 
 847   0.0000       2.422464        65.9186 
 848   0.0000       2.424237        65.9668 
 849   0.0000       2.434345        66.2419 
 850   0.0000       2.439374        66.3788 
 851   0.0000       2.440940        66.4214 
 852   0.0000       2.441640        66.4404 
 853   0.0000       2.450038        66.6689 
 854   0.0000       2.457076        66.8604 
 855   0.0000       2.459982        66.9395 
 856   0.0000       2.467272        67.1379 
 857   0.0000       2.471939        67.2649 
 858   0.0000       2.477080        67.4048 
 859   0.0000       2.483442        67.5779 
 860   0.0000       2.485113        67.6234 
 861   0.0000       2.489671        67.7474 
 862   0.0000       2.493095        67.8406 
 863   0.0000       2.497937        67.9723 
 864   0.0000       2.505631        68.1817 
 865   0.0000       2.508126        68.2496 
 866   0.0000       2.514947        68.4352 
 867   0.0000       2.522712        68.6465 
 868   0.0000       2.526609        68.7525 
 869   0.0000       2.537062        69.0370 
 870   0.0000       2.538411        69.0737 
 871   0.0000       2.543275        69.2060 
 872   0.0000       2.549968        69.3882 
 873   0.0000       2.555599        69.5414 
 874   0.0000       2.560919        69.6862 
 875   0.0000       2.568415        69.8901 
 876   0.0000       2.573940        70.0405 
 877   0.0000       2.580281        70.2130 
 878   0.0000       2.584676        70.3326 
 879   0.0000       2.591943        70.5304 
 880   0.0000       2.598234        70.7015 
 881   0.0000       2.600714        70.7690 
 882   0.0000       2.604585        70.8744 
 883   0.0000       2.609861        71.0179 
 884   0.0000       2.615632        71.1750 
 885   0.0000       2.621517        71.3351 
 886   0.0000       2.621970        71.3474 
 887   0.0000       2.631236        71.5996 
 888   0.0000       2.637318        71.7651 
 889   0.0000       2.643517        71.9337 
 890   0.0000       2.649239        72.0895 
 891   0.0000       2.655939        72.2718 
 892   0.0000       2.663033        72.4648 
 893   0.0000       2.670729        72.6742 
 894   0.0000       2.680014        72.9269 
 895   0.0000       2.688500        73.1578 
 896   0.0000       2.694329        73.3164 
 897   0.0000       2.699556        73.4587 
 898   0.0000       2.701408        73.5091 
 899   0.0000       2.702927        73.5504 
 900   0.0000       2.713833        73.8471 
 901   0.0000       2.718074        73.9625 
 902   0.0000       2.727844        74.2284 
 903   0.0000       2.731083        74.3165 
 904   0.0000       2.735295        74.4312 
 905   0.0000       2.747429        74.7613 
 906   0.0000       2.764805        75.2342 
 907   0.0000       2.770680        75.3940 
 908   0.0000       2.773149        75.4612 
 909   0.0000       2.779856        75.6437 
 910   0.0000       2.785791        75.8052 
 911   0.0000       2.794890        76.0528 
 912   0.0000       2.810826        76.4865 
 913   0.0000       2.815123        76.6034 
 914   0.0000       2.821579        76.7791 
 915   0.0000       2.824770        76.8659 
 916   0.0000       2.837159        77.2030 
 917   0.0000       2.841580        77.3233 
 918   0.0000       2.854644        77.6788 
 919   0.0000       2.866202        77.9933 
 920   0.0000       2.870490        78.1100 
 921   0.0000       2.883538        78.4651 
 922   0.0000       2.891186        78.6732 
 923   0.0000       2.893225        78.7286 
 924   0.0000       2.903113        78.9977 
 925   0.0000       2.913470        79.2796 
 926   0.0000       2.918023        79.4034 
 927   0.0000       2.926682        79.6391 
 928   0.0000       2.936191        79.8978 
 929   0.0000       2.957498        80.4776 
 930   0.0000       2.963381        80.6377 
 931   0.0000       2.990977        81.3886 
 932   0.0000       3.004399        81.7539 
 933   0.0000       3.008397        81.8627 
 934   0.0000       3.021486        82.2188 
 935   0.0000       3.025458        82.3269 
 936   0.0000       3.038199        82.6736 
 937   0.0000       3.047796        82.9348 
 938   0.0000       3.066432        83.4418 
 939   0.0000       3.086827        83.9968 
 940   0.0000       3.100064        84.3570 
 941   0.0000       3.117426        84.8295 
 942   0.0000       3.128045        85.1184 
 943   0.0000       3.133327        85.2622 
 944   0.0000       3.173819        86.3640 
 945   0.0000       3.177659        86.4685 
 946   0.0000       3.203646        87.1757 
 947   0.0000       3.211309        87.3842 
 948   0.0000       3.220233        87.6270 
 949   0.0000       3.239281        88.1453 
 950   0.0000       3.253154        88.5228 
 951   0.0000       3.261135        88.7400 
 952   0.0000       3.286537        89.4312 
 953   0.0000       3.315573        90.2213 
 954   0.0000       3.331867        90.6647 
 955   0.0000       3.342924        90.9656 
 956   0.0000       3.362859        91.5080 
 957   0.0000       3.368492        91.6613 
 958   0.0000       3.385065        92.1123 
 959   0.0000       3.393384        92.3387 
 960   0.0000       3.402679        92.5916 
 961   0.0000       3.407709        92.7285 
 962   0.0000       3.430195        93.3403 
 963   0.0000       3.441191        93.6396 
 964   0.0000       3.457889        94.0940 
 965   0.0000       3.466183        94.3196 
[...]
      dz2     :     0.066221  d :     0.225241
      dxz     :     0.065234
      dyz     :     0.044863
      dx2y2   :     0.037877
      dxy     :     0.011046
 34 H s       :     0.622539  s :     0.622539
      pz      :     0.132872  p :     0.328577
      px      :     0.103615
      py      :     0.092089
      dz2     :     0.075475  d :     0.247301
      dxz     :     0.043289
      dyz     :     0.047151
      dx2y2   :     0.048908
      dxy     :     0.032478
 35 H s       :     0.636872  s :     0.636872
      pz      :     0.084824  p :     0.306411
      px      :     0.077172
      py      :     0.144415
      dz2     :     0.015303  d :     0.225270
      dxz     :     0.011234
      dyz     :     0.080668
      dx2y2   :     0.047261
      dxy     :     0.070805
 36 C s       :     2.423412  s :     2.423412
      pz      :     0.745217  p :     2.250630
      px      :     0.750120
      py      :     0.755294
      dz2     :     0.152194  d :     0.557480
      dxz     :     0.106017
      dyz     :     0.085602
      dx2y2   :     0.151699
      dxy     :     0.061969
      f0      :     0.031403  f :     0.191985
      f+1     :     0.034590
      f-1     :     0.031358
      f+2     :     0.029388
      f-2     :     0.028246
      f+3     :     0.015161
      f-3     :     0.021839
 37 H s       :     0.617459  s :     0.617459
      pz      :     0.099389  p :     0.323675
      px      :     0.130789
      py      :     0.093497
      dz2     :     0.031426  d :     0.248380
      dxz     :     0.081825
      dyz     :     0.013224
      dx2y2   :     0.061580
      dxy     :     0.060325
 38 H s       :     0.619820  s :     0.619820
      pz      :     0.078757  p :     0.305051
      px      :     0.084068
      py      :     0.142227
      dz2     :     0.017821  d :     0.227866
      dxz     :     0.006855
      dyz     :     0.079831
      dx2y2   :     0.046117
      dxy     :     0.077241
 39 H s       :     0.610825  s :     0.610825
      pz      :     0.123555  p :     0.320664
      px      :     0.095107
      py      :     0.102002
      dz2     :     0.068074  d :     0.240211
      dxz     :     0.065529
      dyz     :     0.051776
      dx2y2   :     0.040413
      dxy     :     0.014420
 40 C s       :     2.428223  s :     2.428223
      pz      :     0.753584  p :     2.223725
      px      :     0.755674
      py      :     0.714467
      dz2     :     0.084117  d :     0.550186
      dxz     :     0.076300
      dyz     :     0.135520
      dx2y2   :     0.114825
      dxy     :     0.139425
      f0      :     0.024901  f :     0.195084
      f+1     :     0.012930
      f-1     :     0.022065
      f+2     :     0.037054
      f-2     :     0.017018
      f+3     :     0.050224
      f-3     :     0.030891
 41 H s       :     0.623302  s :     0.623302
      pz      :     0.134990  p :     0.300627
      px      :     0.087050
      py      :     0.078587
      dz2     :     0.069513  d :     0.225366
      dxz     :     0.067715
      dyz     :     0.049308
      dx2y2   :     0.027613
      dxy     :     0.011216
 42 H s       :     0.626745  s :     0.626745
      pz      :     0.087367  p :     0.312730
      px      :     0.142338
      py      :     0.083025
      dz2     :     0.023147  d :     0.232094
      dxz     :     0.077411
      dyz     :     0.008795
      dx2y2   :     0.066670
      dxy     :     0.056071
 43 H s       :     0.630913  s :     0.630913
      pz      :     0.112141  p :     0.303291
      px      :     0.110794
      py      :     0.080355
      dz2     :     0.076305  d :     0.225787
      dxz     :     0.035973
      dyz     :     0.030445
      dx2y2   :     0.052727
      dxy     :     0.030337
 44 H s       :     0.630083  s :     0.630083
      pz      :     0.084547  p :     0.306708
      px      :     0.082813
      py      :     0.139347
      dz2     :     0.016336  d :     0.225767
      dxz     :     0.013963
      dyz     :     0.073142
      dx2y2   :     0.040691
      dxy     :     0.081636
 45 H s       :     0.617654  s :     0.617654
      pz      :     0.139887  p :     0.333851
      px      :     0.094304
      py      :     0.099660
      dz2     :     0.077808  d :     0.246545
      dxz     :     0.052587
      dyz     :     0.054348
      dx2y2   :     0.032513
      dxy     :     0.029289
 46 H s       :     0.633027  s :     0.633027
      pz      :     0.123363  p :     0.308473
      px      :     0.094956
      py      :     0.090154
      dz2     :     0.076873  d :     0.233787
      dxz     :     0.051064
      dyz     :     0.042460
      dx2y2   :     0.032595
      dxy     :     0.030795


                      *****************************
                      * MAYER POPULATION ANALYSIS *
                      *****************************

  NA   - Mulliken gross atomic population
  ZA   - Total nuclear charge
  QA   - Mulliken gross atomic charge
  VA   - Mayer's total valence
  BVA  - Mayer's bonded valence
  FA   - Mayer's free valence

  ATOM       NA         ZA         QA         VA         BVA        FA
  0 C      6.5594     6.0000    -0.5594     3.8902     3.8902    -0.0000
  1 C      5.6247     6.0000     0.3753     3.2056     3.2056    -0.0000
  2 C      5.6487     6.0000     0.3513     3.9502     3.9502    -0.0000
  3 C      4.6388     6.0000     1.3612     1.5663     1.5663    -0.0000
  4 C      5.8096     6.0000     0.1904     3.1246     3.1246     0.0000
  5 H      1.0106     1.0000    -0.0106     1.1816     1.1816    -0.0000
  6 H      0.9043     1.0000     0.0957     1.1239     1.1239    -0.0000
  7 H      0.5450     1.0000     0.4550     0.6179     0.6179    -0.0000
  8 H      0.6326     1.0000     0.3674     0.7294     0.7294    -0.0000
  9 H      0.7657     1.0000     0.2343     1.1039     1.1039     0.0000
 10 H      0.9554     1.0000     0.0446     1.1815     1.1815    -0.0000
 11 H      0.9393     1.0000     0.0607     1.0852     1.0852     0.0000
 12 H      0.5477     1.0000     0.4523     0.6199     0.6199    -0.0000
 13 C      6.6054     6.0000    -0.6054     3.2135     3.2135    -0.0000
 14 C      6.6594     6.0000    -0.6594     3.4889     3.4889    -0.0000
 15 C      7.3372     6.0000    -1.3372     3.4866     3.4866     0.0000
 16 H      1.0695     1.0000    -0.0695     1.1854     1.1854     0.0000
 17 C      6.5356     6.0000    -0.5356     4.0195     4.0195     0.0000
 18 C      6.2978     6.0000    -0.2978     2.6930     2.6930    -0.0000
 19 H      0.9841     1.0000     0.0159     1.0990     1.0990    -0.0000
 20 H      1.0876     1.0000    -0.0876     1.1924     1.1924     0.0000
 21 H      0.8331     1.0000     0.1669     1.2769     1.2769     0.0000
 22 C      7.2995     6.0000    -1.2995     3.7195     3.7195    -0.0000
 23 H      0.7719     1.0000     0.2281     1.0938     1.0938    -0.0000
 24 H      0.7570     1.0000     0.2430     1.0853     1.0853    -0.0000
 25 H      0.7642     1.0000     0.2358     1.0895     1.0895    -0.0000
 26 C      4.5859     6.0000     1.4141     2.1913     2.1913     0.0000
 27 O      9.4172     8.0000    -1.4172     0.5439     0.5439     0.0000
 28 C      6.9374     6.0000    -0.9374     3.5243     3.5243     0.0000
 29 C      4.1216     6.0000     1.8784     1.1295     1.1295    -0.0000
 30 C      6.4801     6.0000    -0.4801     2.2769     2.2769     0.0000
 31 H      0.8450     1.0000     0.1550     0.8437     0.8437     0.0000
 32 C      7.1529     6.0000    -1.1529     3.6424     3.6424     0.0000
 33 H      0.7931     1.0000     0.2069     1.1412     1.1412    -0.0000
 34 H      0.5907     1.0000     0.4093     0.8923     0.8923     0.0000
 35 H      0.8006     1.0000     0.1994     1.1641     1.1641    -0.0000
 36 C      6.9057     6.0000    -0.9057     3.4133     3.4133     0.0000
 37 H      0.7087     1.0000     0.2913     1.0039     1.0039     0.0000
 38 H      0.8146     1.0000     0.1854     1.1251     1.1251     0.0000
 39 H      0.6971     1.0000     0.3029     1.0111     1.0111     0.0000
 40 C      7.2566     6.0000    -1.2566     3.7145     3.7145    -0.0000
 41 H      0.7568     1.0000     0.2432     1.1007     1.1007    -0.0000
 42 H      0.6738     1.0000     0.3262     0.9647     0.9647    -0.0000
 43 H      0.8068     1.0000     0.1932     1.1302     1.1302     0.0000
 44 H      0.6782     1.0000     0.3218     0.7855     0.7855     0.0000
 45 H      0.6567     1.0000     0.3433     1.1258     1.1258     0.0000
 46 H      0.7364     1.0000     0.2636     1.0698     1.0698    -0.0000

  Mayer bond orders larger than 0.100000
B(  0-C ,  1-C ) :   0.8121 B(  0-C ,  2-C ) :  -0.1070 B(  0-C ,  4-C ) :   0.9082 
B(  0-C ,  6-H ) :   1.2685 B(  0-C ,  7-H ) :   0.7541 B(  0-C , 13-C ) :   0.1122 
B(  1-C ,  2-C ) :   0.8979 B(  1-C ,  3-C ) :   0.2006 B(  1-C ,  5-H ) :   1.1584 
B(  1-C , 14-C ) :   0.1149 B(  1-C , 40-C ) :   0.4630 B(  2-C ,  3-C ) :   0.2513 
B(  2-C ,  8-H ) :   0.1388 B(  2-C , 10-H ) :   0.9703 B(  2-C , 13-C ) :   0.1151 
B(  2-C , 14-C ) :   1.0083 B(  2-C , 15-C ) :   0.1230 B(  2-C , 17-C ) :  -0.1749 
B(  2-C , 18-C ) :   0.1242 B(  2-C , 20-H ) :  -0.1469 B(  2-C , 21-H ) :   0.2192 
B(  2-C , 26-C ) :   0.4778 B(  2-C , 27-O ) :  -0.1531 B(  2-C , 29-C ) :   0.1233 
B(  3-C ,  8-H ) :   1.0205 B(  3-C , 11-H ) :  -0.3303 B(  3-C , 13-C ) :   0.2386 
B(  3-C , 15-C ) :   0.6331 B(  3-C , 17-C ) :  -0.2431 B(  3-C , 20-H ) :  -0.1118 
B(  3-C , 29-C ) :   0.2563 B(  4-C ,  9-H ) :   0.9209 B(  4-C , 13-C ) :   0.9539 
B(  4-C , 15-C ) :   0.1097 B(  4-C , 22-C ) :   0.5907 B(  4-C , 25-H ) :  -0.1376 
B(  8-H , 15-C ) :  -0.1456 B(  8-H , 17-C ) :  -0.2866 B(  8-H , 20-H ) :  -0.1913 
B(  8-H , 30-C ) :   0.1629 B(  8-H , 31-H ) :   0.1394 B( 10-H , 14-C ) :  -0.1071 
B( 10-H , 15-C ) :   0.1199 B( 10-H , 18-C ) :  -0.1245 B( 10-H , 26-C ) :   0.1611 
B( 10-H , 27-O ) :   0.1551 B( 11-H , 13-C ) :   1.5096 B( 12-H , 13-C ) :   0.8157 
B( 13-C , 15-C ) :  -0.4378 B( 14-C , 15-C ) :   0.1960 B( 14-C , 17-C ) :   0.3921 
B( 14-C , 21-H ) :   0.8883 B( 14-C , 26-C ) :   0.7696 B( 14-C , 27-O ) :   0.1172 
B( 14-C , 28-C ) :   0.1251 B( 14-C , 40-C ) :  -0.1255 B( 14-C , 45-H ) :   0.1309 
B( 15-C , 16-H ) :   1.5529 B( 15-C , 18-C ) :   1.0409 B( 15-C , 20-H ) :   0.2226 
B( 15-C , 26-C ) :   0.1349 B( 16-H , 18-C ) :  -0.2171 B( 17-C , 18-C ) :   0.6129 
B( 17-C , 19-H ) :  -0.2111 B( 17-C , 20-H ) :   2.0606 B( 17-C , 21-H ) :   0.1132 
B( 17-C , 27-O ) :   0.1532 B( 17-C , 29-C ) :   0.4376 B( 17-C , 30-C ) :   0.6945 
B( 17-C , 36-C ) :   0.3103 B( 17-C , 37-H ) :   0.1031 B( 18-C , 19-H ) :   1.5570 
B( 18-C , 20-H ) :  -0.1768 B( 18-C , 26-C ) :  -0.1379 B( 18-C , 29-C ) :   0.3771 
B( 18-C , 30-C ) :  -0.1185 B( 18-C , 36-C ) :  -0.2147 B( 19-H , 20-H ) :   0.1131 
B( 20-H , 26-C ) :   0.1608 B( 20-H , 29-C ) :  -0.4202 B( 20-H , 31-H ) :  -0.1311 
B( 20-H , 32-C ) :  -0.1065 B( 22-C , 23-H ) :   1.0666 B( 22-C , 24-H ) :   1.0686 
B( 22-C , 25-H ) :   1.1099 B( 26-C , 27-O ) :   0.2393 B( 26-C , 28-C ) :   0.4892 
B( 28-C , 44-H ) :   0.9524 B( 28-C , 45-H ) :   0.9337 B( 28-C , 46-H ) :   1.0193 
B( 29-C , 30-C ) :   0.1291 B( 29-C , 31-H ) :  -0.4152 B( 29-C , 32-C ) :   0.3607 
B( 29-C , 36-C ) :   0.4350 B( 30-C , 31-H ) :   1.5329 B( 30-C , 32-C ) :   0.3469 
B( 30-C , 33-H ) :  -0.1264 B( 30-C , 36-C ) :  -0.2662 B( 31-H , 32-C ) :  -0.2818 
B( 32-C , 33-H ) :   1.1717 B( 32-C , 34-H ) :   0.8055 B( 32-C , 35-H ) :   1.1710 
B( 36-C , 37-H ) :   0.9004 B( 36-C , 38-H ) :   1.1744 B( 36-C , 39-H ) :   1.0031 
B( 40-C , 41-H ) :   1.0919 B( 40-C , 42-H ) :   0.9396 B( 40-C , 43-H ) :   1.1120 


-------
TIMINGS
-------

Total SCF time: 0 days 1 hours 22 min 5 sec 

Total time                  ....    4925.774 sec
Sum of individual times     ....    4921.379 sec  ( 99.9%)

Fock matrix formation       ....    4909.229 sec  ( 99.7%)
Diagonalization             ....       2.549 sec  (  0.1%)
Density matrix formation    ....       0.517 sec  (  0.0%)
Population analysis         ....       0.836 sec  (  0.0%)
Initial guess               ....       1.396 sec  (  0.0%)
Orbital Transformation      ....       0.000 sec  (  0.0%)
Orbital Orthonormalization  ....       0.000 sec  (  0.0%)
DIIS solution               ....       3.484 sec  (  0.1%)
SOSCF solution              ....       3.152 sec  (  0.1%)


           ************************************************************
           *        Program running with 32 parallel MPI-processes    *
           *              working on a common directory               *
           ************************************************************

------------------------------------------------------------------------------
                                ORCA  MP2 
------------------------------------------------------------------------------

Freezing NCore=38 chemical core electrons

-------------
RI-MP2 ENERGY
-------------
Dimension of the basis                    ... 1518
Memory devoted to MP2                     ... 4500 MB   
Data format for buffers                   ... DOUBLE
Compression type for matrix containers    ... UNCOMPRESSED
Overall scaling of the MP2 energy         ...   1.000e+00
Calculating two index integrals           ... done (    0.174 sec)
Cholesky decomposition of V**-1           ... done (    0.930 sec)

-----------------
RI-TRANSFORMATION (AUX index driven)
-----------------

Dimension of the orbital-basis         ... 1518
Dimension of the aux-basis             ... 3302
Transformation of internal/external MOs...   19-  71 to   72-1517
Number Format for Storage              ... Double (8 Byte)
Integral mode                          ... Direct

First Phase: integral generation and transformation of MO indices
  Aux angular momentum 0               ... done (    0.753 sec)
  Aux angular momentum 1               ... done (    1.483 sec)
  Aux angular momentum 2               ... done (    2.324 sec)
  Aux angular momentum 3               ... done (    2.284 sec)
  Aux angular momentum 4               ... done (    1.103 sec)
Closing buffer VIA ( 1.89 GB; CompressionRatio= 1.00)
  Phase 1 completed in     8.175 sec
Second Phase: sorting and transformation of aux index

IA-Transformation
Memory available                       ... 4232 MB 
Max. # MO pairs treated in a batch     ... 2    
# of internal orbitals                 ... 53
# batches for internal orbitals        ... 1
Closing buffer IAV ( 0.07 GB; CompressionRatio= 1.00)
(ia|v) transformation done in     2.576 sec

  Phase 2 completed in     5.288 sec
RI-Integral transformation completed in    13.477 sec
Opening buffers                              ... done

Starting loop over batches of integrals:

Operator 0  - window                       ... ( 19- 71)x( 72-1517)
Operator 0  - Memory available             ...  4500 MB
Operator 0  - Memory needed per MO         ...  36.4 MB
Operator 0  - Number of orbitals per batch ... 2
Operator 0  - Number of batches            ... 1

OPERATOR  0   PASS   0:  MOs    19 ...   20 +   21 ...   22 +   23 ...   24 +   25 ...   26
                            +   27 ...   28 +   29 ...   30 +   31 ...   32 +   33 ...   34
                            +   35 ...   36 +   37 ...   38 +   39 ...   40 +   41 ...   42
                            +   43 ...   44 +   45 ...   46 +   47 ...   48 +   49 ...   50
                            +   51 ...   52 +   53 ...   54 +   55 ...   56 +   57 ...   58
                            +   59 ...   60 +   61 ...   62 +   63 ...   64 +   65 ...   66
                            +   67 ...   68 +   69 ...   70 +   71 ...   71
  Reading integrals       ... ok
Time spent in pair loops =     1.079 sec
Deleting buffer (Ka|jb)[aa] ...done

-----------------------------------------------
 RI-MP2 CORRELATION ENERGY:     -3.372962747 Eh
-----------------------------------------------


-------
TIMINGS
-------

Total time                :   44.614 sec
Integral trafo            :   13.496 sec ( 30.2%)
I/O of integrals          :    0.096 sec (  0.2%)
K(i,j) Operators          :    0.791 sec (  1.8%)
T(i,j) pair energies      :    0.119 sec (  0.3%)
V-calculation             :    0.174 sec (  0.4%)
V**(-1/2)                 :    0.930 sec (  2.1%)
Gamma(ia|P)               :    0.000 sec (  0.0%)
Gamma-Trafo               :    0.000 sec (  0.0%)
D(virtual)                :    0.000 sec (  0.0%)
D(internal)               :    0.000 sec (  0.0%)
W(virtual)                :    0.000 sec (  0.0%)
W(internal)               :    0.000 sec (  0.0%)
L(virtual)                :    0.000 sec (  0.0%)
L(internal)               :    0.000 sec (  0.0%)
G(D)                      :    0.000 sec (  0.0%)
G(Z)                      :    0.000 sec (  0.0%)
Z-Vector Solution         :    0.000 sec (  0.0%)
3-Index Derivative        :    0.000 sec (  0.0%)
2-Index Derivative        :    0.000 sec (  0.0%)
Separable Gradient        :    0.000 sec (  0.0%)


---------------------------------------
MP2 TOTAL ENERGY:     -776.302871746 Eh
---------------------------------------

-------------------------   --------------------
FINAL SINGLE POINT ENERGY      -776.302871745776
-------------------------   --------------------


                            ***************************************
                            *     ORCA property calculations      *
                            ***************************************


  WARNING: The energy has been calculated at the MP2 level but the densities
           used in the property calculations are still SCF densities
           MP2 response densities have not been calculated 
           use %mp2 Density relaxed end
           or  %mp2 Density unrelaxed end

                                    ---------------------
                                    Active property flags
                                    ---------------------
   (+) Dipole Moment


------------------------------------------------------------------------------
                       ORCA ELECTRIC PROPERTIES CALCULATION
------------------------------------------------------------------------------

Dipole Moment Calculation                       ... on
Quadrupole Moment Calculation                   ... off
Polarizability Calculation                      ... off
GBWName                                         ... /tmp/pbs.2147706.pbsha.ib.sockeye/MP2augccpVTZ_02_9TS.gbw
Electron density file                           ... /tmp/pbs.2147706.pbsha.ib.sockeye/MP2augccpVTZ_02_9TS.scfp
The origin for moment calculation is the CENTER OF MASS  = ( 0.019074, -0.026439  0.051311)

-------------
DIPOLE MOMENT
-------------
                                X             Y             Z
Electronic contribution:      2.93465      -3.78708       5.93201
Nuclear contribution   :     -2.74658       3.80726      -7.38874
                        -----------------------------------------
Total Dipole Moment    :      0.18807       0.02018      -1.45673
                        -----------------------------------------
Magnitude (a.u.)       :      1.46896
Magnitude (Debye)      :      3.73380



--------------------
Rotational spectrum 
--------------------
 
Rotational constants in cm-1:     0.020163     0.007132     0.006817 
Rotational constants in MHz :   604.463680   213.812513   204.367505 

 Dipole components along the rotational axes: 
x,y,z [a.u.] :     0.187227    -0.103617    -1.453290 
x,y,z [Debye]:     0.475894    -0.263375    -3.693969 

 

Timings for individual modules:

Sum of individual times         ...     4978.919 sec (=  82.982 min)
GTO integral calculation        ...        4.462 sec (=   0.074 min)   0.1 %
SCF iterations                  ...     4927.388 sec (=  82.123 min)  99.0 %
MP2 module                      ...       47.068 sec (=   0.784 min)   0.9 %
                             ****ORCA TERMINATED NORMALLY****
TOTAL RUN TIME: 0 days 1 hours 23 minutes 0 seconds 938 msec
