
                                 *****************
                                 * O   R   C   A *
                                 *****************

           --- An Ab Initio, DFT and Semiempirical electronic structure package ---

                  #######################################################
                  #                        -***-                        #
                  #          Department of theory and spectroscopy      #
                  #               Directorship: Frank Neese             #
                  #        Max Planck Institute fuer Kohlenforschung    #
                  #                Kaiser Wilhelm Platz 1               #
                  #                 D-45470 Muelheim/Ruhr               #
                  #                      Germany                        #
                  #                                                     #
                  #                  All rights reserved                #
                  #                        -***-                        #
                  #######################################################


                         Program Version 4.2.1 -  RELEASE  -


 With contributions from (in alphabetic order):
   Daniel Aravena         : Magnetic Suceptibility
   Michael Atanasov       : Ab Initio Ligand Field Theory (pilot matlab implementation)
   Alexander A. Auer      : GIAO ZORA, VPT2
   Ute Becker             : Parallelization
   Giovanni Bistoni       : ED, misc. LED, open-shell LED, HFLD
   Martin Brehm           : Molecular dynamics
   Dmytro Bykov           : SCF Hessian
   Vijay G. Chilkuri      : MRCI spin determinant printing, contributions to CSF-ICE
   Dipayan Datta          : RHF DLPNO-CCSD density
   Achintya Kumar Dutta   : EOM-CC, STEOM-CC
   Dmitry Ganyushin       : Spin-Orbit,Spin-Spin,Magnetic field MRCI
   Miquel Garcia          : C-PCM Hessian, Gaussian charge scheme
   Yang Guo               : DLPNO-NEVPT2, CIM, IAO-localization
   Andreas Hansen         : Spin unrestricted coupled pair/coupled cluster methods
   Benjamin Helmich-Paris : CASSCF linear response (MC-RPA)
   Lee Huntington         : MR-EOM, pCC
   Robert Izsak           : Overlap fitted RIJCOSX, COSX-SCS-MP3, EOM
   Christian Kollmar      : KDIIS, OOCD, Brueckner-CCSD(T), CCSD density
   Simone Kossmann        : Meta GGA functionals, TD-DFT gradient, OOMP2, MP2 Hessian
   Martin Krupicka        : AUTO-CI
   Lucas Lang             : DCDCAS
   Dagmar Lenk            : GEPOL surface, SMD
   Dimitrios Liakos       : Extrapolation schemes; Compound Job, initial MDCI parallelization
   Dimitrios Manganas     : Further ROCIS development; embedding schemes
   Dimitrios Pantazis     : SARC Basis sets
   Taras Petrenko         : DFT Hessian,TD-DFT gradient, ASA, ECA, R-Raman, ABS, FL, XAS/XES, NRVS
   Peter Pinski           : DLPNO-MP2, DLPNO-MP2 Gradient
   Christoph Reimann      : Effective Core Potentials
   Marius Retegan         : Local ZFS, SOC
   Christoph Riplinger    : Optimizer, TS searches, QM/MM, DLPNO-CCSD(T), (RO)-DLPNO pert. Triples
   Tobias Risthaus        : Range-separated hybrids, TD-DFT gradient, RPA, STAB
   Michael Roemelt        : Original ROCIS implementation
   Masaaki Saitow         : Open-shell DLPNO-CCSD energy and density
   Barbara Sandhoefer     : DKH picture change effects
   Avijit Sen             : IP-ROCIS
   Kantharuban Sivalingam : CASSCF convergence, NEVPT2, FIC-MRCI
   Bernardo de Souza      : ESD, SOC TD-DFT
   Georgi Stoychev        : AutoAux, RI-MP2 NMR
   Willem Van den Heuvel  : Paramagnetic NMR
   Boris Wezisla          : Elementary symmetry handling
   Frank Wennmohs         : Technical directorship


 We gratefully acknowledge several colleagues who have allowed us to
 interface, adapt or use parts of their codes:
   Stefan Grimme, W. Hujo, H. Kruse,             : VdW corrections, initial TS optimization,
                  C. Bannwarth                     DFT functionals, gCP, sTDA/sTD-DF
   Ed Valeev, F. Pavosevic, A. Kumar             : LibInt (2-el integral package), F12 methods
   Garnet Chan, S. Sharma, J. Yang, R. Olivares  : DMRG
   Ulf Ekstrom                                   : XCFun DFT Library
   Mihaly Kallay                                 : mrcc  (arbitrary order and MRCC methods)
   Andreas Klamt, Michael Diedenhofen            : otool_cosmo (COSMO solvation model)
   Jiri Pittner, Ondrej Demel                    : Mk-CCSD
   Frank Weinhold                                : gennbo (NPA and NBO analysis)
   Christopher J. Cramer and Donald G. Truhlar   : smd solvation model
   Lars Goerigk                                  : TD-DFT with DH, B97 family of functionals
   V. Asgeirsson, H. Jonsson                     : NEB implementation
   FAccTs GmbH                                   : IRC, NEB, NEB-TS, Multilevel, MM, QM/MM, CI optimization
   S Lehtola, MJT Oliveira, MAL Marques          : LibXC Library


 Your calculation uses the libint2 library for the computation of 2-el integrals
 For citations please refer to: http://libint.valeyev.net

 Your ORCA version has been built with support for libXC version: 4.2.3
 For citations please refer to: https://tddft.org/programs/libxc/

 This ORCA versions uses:
   CBLAS   interface :  Fast vector & matrix operations
   LAPACKE interface :  Fast linear algebra routines
   SCALAPACK package :  Parallel linear algebra routines




***************************************
The coordinates will be read from file: 06_31P.xyz
***************************************


----- Orbital basis set information -----
Your calculation utilizes the basis: aug-cc-pVTZ 
    H, B-Ne : Obtained from the ccRepo (grant-hill.group.shef.ac.uk/ccrepo) Feb. 2017
              R. A. Kendall, T. H. Dunning, Jr., R. J. Harrison, J. Chem. Phys. 96, 6796 (1992)
         He : Obtained from the ccRepo (grant-hill.group.shef.ac.uk/ccrepo) Feb. 2017
              D. E. Woon, T. H. Dunning, Jr., J. Chem. Phys. 100, 2975 (1994)
  Li-Be, Na : Obtained from the ccRepo (grant-hill.group.shef.ac.uk/ccrepo) Feb. 2017
              B. P. Prascher, D. E. Woon, K. A. Peterson, T. H. Dunning, Jr., A. K. Wilson, Theor. Chem. Acc. 128, 69 (2011)
         Mg : Obtained from the Peterson Research Group Website (tyr0.chem.wsu.edu/~kipeters) Feb. 2017
              B. P. Prascher, D. E. Woon, K. A. Peterson, T. H. Dunning, Jr., A. K. Wilson, Theor. Chem. Acc. 128, 69 (2011)
      Al-Ar : Obtained from the ccRepo (grant-hill.group.shef.ac.uk/ccrepo) Feb. 2017
              D. E. Woon, T. H. Dunning, Jr., J. Chem. Phys. 98, 1358 (1993)
      Sc-Zn : Obtained from the ccRepo (grant-hill.group.shef.ac.uk/ccrepo) Feb. 2017
              N. B. Balabanov, K. A. Peterson, J. Chem. Phys. 123, 064107 (2005)
              N. B. Balabanov, K. A. Peterson, J. Chem. Phys. 125, 074110 (2006)
      Ga-Kr : Obtained from the ccRepo (grant-hill.group.shef.ac.uk/ccrepo) Feb. 2017
              A. K. Wilson, D. E. Woon, K. A. Peterson, T. H. Dunning, Jr., J. Chem. Phys. 110, 7667 (1999)
     Ag, Au : Obtained from the Peterson Research Group Website (tyr0.chem.wsu.edu/~kipeters) Feb. 2017
              K. A. Peterson, C. Puzzarini, Theor. Chem. Acc. 114, 283 (2005)

----- AuxC basis set information -----
Your calculation utilizes the auxiliary basis: aug-cc-pVTZ/C 
  H-He, B-F, Al-Ar, Ga-Kr : Obtained from the EMSL Basis Set Exchange (bse.pnl.gov) Feb. 2017
                            F. Weigend, A. Kohn, C. Hattig, J. Chem. Phys. 116, 3175 (2002)
                   Be, Mg : Obtained from the TURBOMOLE 7.0 basis set library
                            C. Haettig, Phys. Chem. Chem. Phys. 7, 59 (2005)
                       Ne : Obtained from the EMSL Basis Set Exchange (bse.pnl.gov) Feb. 2017
                            C. Haettig, Phys. Chem. Chem. Phys. 7, 59 (2005)
                            F. Weigend, A. Kohn, C. Hattig, J. Chem. Phys. 116, 3175 (2002)
                    Sc-Zn : Obtained from the EMSL Basis Set Exchange (bse.pnl.gov) Feb. 2017
                            J. G. Hill, J. A. Platts, J. Chem. Phys. 128, 044104 (2008)

================================================================================
                                        WARNINGS
                       Please study these warnings very carefully!
================================================================================


WARNING: your system is open-shell and RHF/RKS was chosen
  ===> : WILL SWITCH to UHF/UKS


WARNING: No MP2 level density has been requested!
         To caclulate MP2 level properties use
         %mp2 Density relaxed end
         or
         %mp2 Density unrelaxed end

WARNING: Post HF methods need fully converged wavefunctions
  ===> : Setting SCFConvForced true
         You can overwrite this default with %scf ConvForced false 


INFO   : the flag for use of LIBINT has been found!

================================================================================
                                       INPUT FILE
================================================================================
NAME = /tmp/pbs.2148704.pbsha.ib.sockeye/MP2augccpVTZ_06_31P.inp
|  1> %pal
|  2>  nprocs 32
|  3> end
|  4> !RI-MP2 aug-cc-pVTZ aug-cc-pVTZ/C TightSCF
|  5> %maxcore 4500
|  6> *xyzfile 0 2  06_31P.xyz
|  7> 
|  8> 
|  9>                          ****END OF INPUT****
================================================================================

                       ****************************
                       * Single Point Calculation *
                       ****************************

---------------------------------
CARTESIAN COORDINATES (ANGSTROEM)
---------------------------------
  Si     1.009991   -0.256438    1.884303
  Si    -1.200987    2.056673   -0.200994
  Si    -1.692643   -1.712535   -0.442613
  C     -0.216905    0.178798    3.250789
  H      0.237274    0.016045    4.232524
  H     -0.516298    1.228061    3.197695
  H     -1.122594   -0.428213    3.198740
  C      1.574619   -2.036687    2.151247
  H      2.089746   -2.139097    3.110697
  H      0.722493   -2.720702    2.158999
  H      2.259273   -2.371292    1.369010
  C      2.485723    0.901675    2.062191
  H      2.919441    0.805869    3.062063
  H      3.271250    0.688465    1.336423
  H      2.185943    1.942595    1.926083
  C     -1.595712    2.533109   -1.982613
  H     -2.227738    1.783995   -2.465007
  H     -2.125127    3.489559   -2.018874
  H     -0.687298    2.633870   -2.581059
  C     -2.816323    1.957195    0.767858
  H     -2.647119    1.646584    1.801263
  H     -3.305969    2.934988    0.791263
  H     -3.515683    1.249057    0.318252
  C     -0.147728    3.419490    0.567220
  H      0.031574    3.233303    1.628591
  H      0.824692    3.501554    0.077329
  H     -0.650613    4.387155    0.481735
  C     -2.691215   -1.939895    1.140872
  H     -3.148189   -1.006372    1.474738
  H     -3.493689   -2.665817    0.980852
  H     -2.066230   -2.315368    1.954461
  C     -2.874739   -1.261860   -1.842999
  H     -3.596087   -2.066690   -2.011628
  H     -3.438290   -0.353284   -1.620318
  H     -2.338226   -1.097425   -2.780849
  C     -0.902252   -3.371030   -0.869946
  H     -1.669281   -4.149583   -0.919398
  H     -0.399803   -3.340003   -1.838965
  H     -0.166735   -3.676183   -0.122221
  C      1.090971   -0.040486   -1.720807
  C      2.047386    1.097905   -1.718875
  C      2.004337   -1.284985   -1.840918
  C      3.467204    0.643088   -1.633837
  H      1.756204    2.128814   -1.870720
  C      3.352274   -0.842969   -1.258583
  H      1.610282   -2.170830   -1.342186
  H      2.127338   -1.539805   -2.898239
  H      3.971485    0.754973   -2.605921
  H      4.065429    1.217483   -0.918619
  H      4.185066   -1.442438   -1.629611
  H      3.340134   -0.948504   -0.171804
  Si    -0.084011   -0.012719   -0.180978
  H      0.398614    0.019421   -2.570919

----------------------------
CARTESIAN COORDINATES (A.U.)
----------------------------
  NO LB      ZA    FRAG     MASS         X           Y           Z
   0 Si   14.0000    0    28.086    1.908606   -0.484598    3.560817
   1 Si   14.0000    0    28.086   -2.269537    3.886549   -0.379824
   2 Si   14.0000    0    28.086   -3.198632   -3.236222   -0.836417
   3 C     6.0000    0    12.011   -0.409891    0.337879    6.143101
   4 H     1.0000    0     1.008    0.448383    0.030321    7.998311
   5 H     1.0000    0     1.008   -0.975662    2.320699    6.042768
   6 H     1.0000    0     1.008   -2.121395   -0.809205    6.044743
   7 C     6.0000    0    12.011    2.975599   -3.848781    4.065268
   8 H     1.0000    0     1.008    3.949048   -4.042308    5.878365
   9 H     1.0000    0     1.008    1.365314   -5.141382    4.079917
  10 H     1.0000    0     1.008    4.269407   -4.481092    2.587054
  11 C     6.0000    0    12.011    4.697336    1.703919    3.896976
  12 H     1.0000    0     1.008    5.516944    1.522872    5.786460
  13 H     1.0000    0     1.008    6.181767    1.301010    2.525473
  14 H     1.0000    0     1.008    4.130834    3.670973    3.639769
  15 C     6.0000    0    12.011   -3.015459    4.786882   -3.746596
  16 H     1.0000    0     1.008   -4.209815    3.371262   -4.658188
  17 H     1.0000    0     1.008   -4.015908    6.594311   -3.815119
  18 H     1.0000    0     1.008   -1.298805    4.977293   -4.877495
  19 C     6.0000    0    12.011   -5.322079    3.698563    1.451041
  20 H     1.0000    0     1.008   -5.002330    3.111593    3.403894
  21 H     1.0000    0     1.008   -6.247376    5.546324    1.495270
  22 H     1.0000    0     1.008   -6.643678    2.360376    0.601409
  23 C     6.0000    0    12.011   -0.279165    6.461900    1.071890
  24 H     1.0000    0     1.008    0.059666    6.110057    3.077591
  25 H     1.0000    0     1.008    1.558442    6.616978    0.146131
  26 H     1.0000    0     1.008   -1.229480    8.290521    0.910347
  27 C     6.0000    0    12.011   -5.085659   -3.665870    2.155936
  28 H     1.0000    0     1.008   -5.949215   -1.901767    2.786851
  29 H     1.0000    0     1.008   -6.602115   -5.037664    1.853542
  30 H     1.0000    0     1.008   -3.904609   -4.375411    3.693396
  31 C     6.0000    0    12.011   -5.432469   -2.384570   -3.482763
  32 H     1.0000    0     1.008   -6.795620   -3.905478   -3.801426
  33 H     1.0000    0     1.008   -6.497426   -0.667610   -3.061957
  34 H     1.0000    0     1.008   -4.418607   -2.073833   -5.255043
  35 C     6.0000    0    12.011   -1.705009   -6.370323   -1.643960
  36 H     1.0000    0     1.008   -3.154484   -7.841575   -1.737410
  37 H     1.0000    0     1.008   -0.755518   -6.311691   -3.475140
  38 H     1.0000    0     1.008   -0.315083   -6.946979   -0.230964
  39 C     6.0000    0    12.011    2.061636   -0.076507   -3.251854
  40 C     6.0000    0    12.011    3.868999    2.074740   -3.248203
  41 C     6.0000    0    12.011    3.787648   -2.428270   -3.478831
  42 C     6.0000    0    12.011    6.552066    1.215260   -3.087504
  43 H     1.0000    0     1.008    3.318745    4.022875   -3.535148
  44 C     6.0000    0    12.011    6.334880   -1.592981   -2.378377
  45 H     1.0000    0     1.008    3.042992   -4.102274   -2.536364
  46 H     1.0000    0     1.008    4.020086   -2.909810   -5.476878
  47 H     1.0000    0     1.008    7.505019    1.426692   -4.924477
  48 H     1.0000    0     1.008    7.682547    2.300709   -1.735938
  49 H     1.0000    0     1.008    7.908629   -2.725813   -3.079518
  50 H     1.0000    0     1.008    6.311939   -1.792413   -0.324663
  51 Si   14.0000    0    28.086   -0.158758   -0.024035   -0.341999
  52 H     1.0000    0     1.008    0.753271    0.036700   -4.858333

--------------------------------
INTERNAL COORDINATES (ANGSTROEM)
--------------------------------
 Si     0   0   0     0.000000000000     0.00000000     0.00000000
 Si     1   0   0     3.819341539194     0.00000000     0.00000000
 Si     2   1   0     3.808810091191    60.66119552     0.00000000
 C      1   2   3     1.887323013877    83.06898193   261.28621390
 H      4   1   2     1.093878747062   110.21750043   202.24865072
 H      4   1   2     1.092432141807   111.37481225   321.44545090
 H      4   1   2     1.091532875017   112.12457781    82.24311825
 C      1   2   3     1.886624069475   145.28407091    13.14857573
 H      8   1   2     1.093795198714   110.69602593   193.62711647
 H      8   1   2     1.092728389677   110.99560570   313.05084010
 H      8   1   2     1.092065167428   112.04900064    73.35873099
 C      1   2   3     1.884318125248    97.62478987   154.56935717
 H     12   1   2     1.094090539921   110.05468997   142.23010039
 H     12   1   2     1.090527561162   112.40418600   262.38323465
 H     12   1   2     1.091745337734   111.04962399    22.89928796
 C      2   1   3     1.885991874023   142.17795097   294.77260241
 H     16   2   1     1.092397647795   111.40822566    77.08366309
 H     16   2   1     1.093796921209   110.70247538   196.97438095
 H     16   2   1     1.092477180280   111.51479390   316.83616953
 C      2   1   3     1.886234466678   100.56607592    75.12448562
 H     20   2   1     1.092261452658   111.61081053    22.23189235
 H     20   2   1     1.093791639294   110.31689298   141.87310323
 H     20   2   1     1.092112353140   111.78602813   261.51269769
 C      2   1   3     1.885942058062    83.79668482   182.22317933
 H     24   2   1     1.092393338415   111.36287588   318.12260626
 H     24   2   1     1.091937886684   111.64838565    78.43823892
 H     24   2   1     1.093881419842   110.52771467   198.59046135
 C      3   2   1     1.885805757232    97.72367934    79.38749588
 H     28   3   2     1.091676203900   112.04650023    20.18702952
 H     28   3   2     1.093861815386   110.22070467   140.18707493
 H     28   3   2     1.092480336150   111.33608494   259.37860167
 C      3   2   1     1.887204243805    83.77719882   187.46208935
 H     32   3   2     1.093860139892   110.59441409   202.27204082
 H     32   3   2     1.092102058023   111.75234540   322.18863495
 H     32   3   2     1.092907905953   111.42016354    82.65968272
 C      3   2   1     1.886249477348   146.13936803   300.22573407
 H     36   3   2     1.094040109390   110.00892322   191.25962639
 H     36   3   2     1.091977790384   111.64563319   310.67251039
 H     36   3   2     1.092335244475   111.88210526    71.57968479
 C     19  16   2     3.324823928361   103.22724927    44.72347437
 C     40  19  16     1.486831346767    74.24777583   224.61761781
 C     40  19  16     1.548367483280   160.37877421   138.10766267
 C     41  40  19     1.493309451539   112.23959182   192.11988165
 H     41  40  19     1.081950658501   123.79540228     5.84335999
 C     42  40  19     1.533436125977   104.91524051   106.85787814
 H     42  40  19     1.090290931300   113.85046148   229.92889359
 H     42  40  19     1.094527375373   109.16863119   349.48270871
 H     43  41  40     1.100801927343   110.75145057   105.90834540
 H     43  41  40     1.095143622624   113.37922309   224.72741282
 H     45  42  40     1.091131235924   112.54505560   203.32899359
 H     45  42  40     1.091958612158   109.89669617    84.08232248
 Si    40  19  16     1.937118234867    82.51446456   340.29886120
 H     40  19  16     1.098015244267    54.44709116    92.74089407

---------------------------
INTERNAL COORDINATES (A.U.)
---------------------------
 Si     0   0   0     0.000000000000     0.00000000     0.00000000
 Si     1   0   0     7.217509520986     0.00000000     0.00000000
 Si     2   1   0     7.197607968467    60.66119552     0.00000000
 C      1   2   3     3.566523622474    83.06898193   261.28621390
 H      4   1   2     2.067131255665   110.21750043   202.24865072
 H      4   1   2     2.064397567909   111.37481225   321.44545090
 H      4   1   2     2.062698199954   112.12457781    82.24311825
 C      1   2   3     3.565202808971   145.28407091    13.14857573
 H      8   1   2     2.066973372167   110.69602593   193.62711647
 H      8   1   2     2.064957395249   110.99560570   313.05084010
 H      8   1   2     2.063704086834   112.04900064    73.35873099
 C      1   2   3     3.560845205902    97.62478987   154.56935717
 H     12   1   2     2.067531486164   110.05468997   142.23010039
 H     12   1   2     2.060798432088   112.40418600   262.38323465
 H     12   1   2     2.063099696303   111.04962399    22.89928796
 C      2   1   3     3.564008132705   142.17795097   294.77260241
 H     16   2   1     2.064332383672   111.40822566    77.08366309
 H     16   2   1     2.066976627211   110.70247538   196.97438095
 H     16   2   1     2.064482678288   111.51479390   316.83616953
 C      2   1   3     3.564466566384   100.56607592    75.12448562
 H     20   2   1     2.064075012162   111.61081053    22.23189235
 H     20   2   1     2.066966645839   110.31689298   141.87310323
 H     20   2   1     2.063793254906   111.78602813   261.51269769
 C      2   1   3     3.563913994180    83.79668482   182.22317933
 H     24   2   1     2.064324240125   111.36287588   318.12260626
 H     24   2   1     2.063463561086   111.64838565    78.43823892
 H     24   2   1     2.067136306486   110.52771467   198.59046135
 C      3   2   1     3.563656422940    97.72367934    79.38749588
 H     28   3   2     2.062969052289   112.04650023    20.18702952
 H     28   3   2     2.067099259434   110.22070467   140.18707493
 H     28   3   2     2.064488642018   111.33608494   259.37860167
 C      3   2   1     3.566299179566    83.77719882   187.46208935
 H     32   3   2     2.067096093209   110.59441409   202.27204082
 H     32   3   2     2.063773799955   111.75234540   322.18863495
 H     32   3   2     2.065296631848   111.42016354    82.65968272
 C      3   2   1     3.564494932440   146.13936803   300.22573407
 H     36   3   2     2.067436186272   110.00892322   191.25962639
 H     36   3   2     2.063538968149   111.64563319   310.67251039
 H     36   3   2     2.064214458488   111.88210526    71.57968479
 C     19  16   2     6.283006668110   103.22724927    44.72347437
 C     40  19  16     2.809704052720    74.24777583   224.61761781
 C     40  19  16     2.925990498068   160.37877421   138.10766267
 C     41  40  19     2.821945896606   112.23959182   192.11988165
 H     41  40  19     2.044590434982   123.79540228     5.84335999
 C     42  40  19     2.897774321957   104.91524051   106.85787814
 H     42  40  19     2.060351266454   113.85046148   229.92889359
 H     42  40  19     2.068356985536   109.16863119   349.48270871
 H     43  41  40     2.080214170371   110.75145057   105.90834540
 H     43  41  40     2.069521524070   113.37922309   224.72741282
 H     45  42  40     2.061939212063   112.54505560   203.32899359
 H     45  42  40     2.063502726555   109.89669617    84.08232248
 Si    40  19  16     3.660622952923    82.51446456   340.29886120
 H     40  19  16     2.074948102535    54.44709116    92.74089407

---------------------
BASIS SET INFORMATION
---------------------
There are 3 groups of distinct atoms

 Group   1 Type Si  : 42s17p3d2f contracted to 6s5p3d2f pattern {131313111/77111/111/11}
 Group   2 Type C   : 19s6p3d2f contracted to 5s4p3d2f pattern {88111/3111/111/11}
 Group   3 Type H   : 6s3p2d contracted to 4s3p2d pattern {3111/111/11}

Atom   0Si   basis set group =>   1
Atom   1Si   basis set group =>   1
Atom   2Si   basis set group =>   1
Atom   3C    basis set group =>   2
Atom   4H    basis set group =>   3
Atom   5H    basis set group =>   3
Atom   6H    basis set group =>   3
Atom   7C    basis set group =>   2
Atom   8H    basis set group =>   3
Atom   9H    basis set group =>   3
Atom  10H    basis set group =>   3
Atom  11C    basis set group =>   2
Atom  12H    basis set group =>   3
Atom  13H    basis set group =>   3
Atom  14H    basis set group =>   3
Atom  15C    basis set group =>   2
Atom  16H    basis set group =>   3
Atom  17H    basis set group =>   3
Atom  18H    basis set group =>   3
Atom  19C    basis set group =>   2
Atom  20H    basis set group =>   3
Atom  21H    basis set group =>   3
Atom  22H    basis set group =>   3
Atom  23C    basis set group =>   2
Atom  24H    basis set group =>   3
Atom  25H    basis set group =>   3
Atom  26H    basis set group =>   3
Atom  27C    basis set group =>   2
Atom  28H    basis set group =>   3
Atom  29H    basis set group =>   3
Atom  30H    basis set group =>   3
Atom  31C    basis set group =>   2
Atom  32H    basis set group =>   3
Atom  33H    basis set group =>   3
Atom  34H    basis set group =>   3
Atom  35C    basis set group =>   2
Atom  36H    basis set group =>   3
Atom  37H    basis set group =>   3
Atom  38H    basis set group =>   3
Atom  39C    basis set group =>   2
Atom  40C    basis set group =>   2
Atom  41C    basis set group =>   2
Atom  42C    basis set group =>   2
Atom  43H    basis set group =>   3
Atom  44C    basis set group =>   2
Atom  45H    basis set group =>   3
Atom  46H    basis set group =>   3
Atom  47H    basis set group =>   3
Atom  48H    basis set group =>   3
Atom  49H    basis set group =>   3
Atom  50H    basis set group =>   3
Atom  51Si   basis set group =>   1
Atom  52H    basis set group =>   3
---------------------------------
AUXILIARY/C BASIS SET INFORMATION
---------------------------------
There are 3 groups of distinct atoms

 Group   1 Type Si  : 11s9p8d6f3g contracted to 11s9p8d6f3g pattern {11111111111/111111111/11111111/111111/111}
 Group   2 Type C   : 9s7p6d4f2g contracted to 9s7p6d4f2g pattern {111111111/1111111/111111/1111/11}
 Group   3 Type H   : 5s4p3d2f contracted to 5s4p3d2f pattern {11111/1111/111/11}

Atom   0Si   basis set group =>   1
Atom   1Si   basis set group =>   1
Atom   2Si   basis set group =>   1
Atom   3C    basis set group =>   2
Atom   4H    basis set group =>   3
Atom   5H    basis set group =>   3
Atom   6H    basis set group =>   3
Atom   7C    basis set group =>   2
Atom   8H    basis set group =>   3
Atom   9H    basis set group =>   3
Atom  10H    basis set group =>   3
Atom  11C    basis set group =>   2
Atom  12H    basis set group =>   3
Atom  13H    basis set group =>   3
Atom  14H    basis set group =>   3
Atom  15C    basis set group =>   2
Atom  16H    basis set group =>   3
Atom  17H    basis set group =>   3
Atom  18H    basis set group =>   3
Atom  19C    basis set group =>   2
Atom  20H    basis set group =>   3
Atom  21H    basis set group =>   3
Atom  22H    basis set group =>   3
Atom  23C    basis set group =>   2
Atom  24H    basis set group =>   3
Atom  25H    basis set group =>   3
Atom  26H    basis set group =>   3
Atom  27C    basis set group =>   2
Atom  28H    basis set group =>   3
Atom  29H    basis set group =>   3
Atom  30H    basis set group =>   3
Atom  31C    basis set group =>   2
Atom  32H    basis set group =>   3
Atom  33H    basis set group =>   3
Atom  34H    basis set group =>   3
Atom  35C    basis set group =>   2
Atom  36H    basis set group =>   3
Atom  37H    basis set group =>   3
Atom  38H    basis set group =>   3
Atom  39C    basis set group =>   2
Atom  40C    basis set group =>   2
Atom  41C    basis set group =>   2
Atom  42C    basis set group =>   2
Atom  43H    basis set group =>   3
Atom  44C    basis set group =>   2
Atom  45H    basis set group =>   3
Atom  46H    basis set group =>   3
Atom  47H    basis set group =>   3
Atom  48H    basis set group =>   3
Atom  49H    basis set group =>   3
Atom  50H    basis set group =>   3
Atom  51Si   basis set group =>   1
Atom  52H    basis set group =>   3


           ************************************************************
           *        Program running with 32 parallel MPI-processes    *
           *              working on a common directory               *
           ************************************************************
------------------------------------------------------------------------------
                           ORCA GTO INTEGRAL CALCULATION
------------------------------------------------------------------------------

                         BASIS SET STATISTICS AND STARTUP INFO

 # of primitive gaussian shells          ... 1061
 # of primitive gaussian functions       ... 2287
 # of contracted shells                  ...  575
 # of contracted basis functions         ... 1649
 Highest angular momentum                ...    3
 Maximum contraction depth               ...   13
 Integral package used                   ... LIBINT
 Integral threshhold            Thresh   ...  2.500e-11
 Primitive cut-off              TCut     ...  2.500e-12


------------------------------ INTEGRAL EVALUATION ----------------------------


 * One electron integrals 
 Pre-screening matrix                    ... done
 Shell pair data                         ... done (   0.065 sec)



           ************************************************************
           *        Program running with 32 parallel MPI-processes    *
           *              working on a common directory               *
           ************************************************************
-------------------------------------------------------------------------------
                                 ORCA SCF
-------------------------------------------------------------------------------

------------
SCF SETTINGS
------------
Hamiltonian:
 Ab initio Hamiltonian  Method          .... Hartree-Fock(GTOs)


General Settings:
 Integral files         IntName         .... /tmp/pbs.2148704.pbsha.ib.sockeye/MP2augccpVTZ_06_31P
 Hartree-Fock type      HFTyp           .... UHF
 Total Charge           Charge          ....    0
 Multiplicity           Mult            ....    2
 Number of Electrons    NEL             ....  175
 Basis Dimension        Dim             .... 1649
 Nuclear Repulsion      ENuc            ....   2123.6324314416 Eh

Convergence Acceleration:
 DIIS                   CNVDIIS         .... on
   Start iteration      DIISMaxIt       ....    12
   Startup error        DIISStart       ....  0.200000
   # of expansion vecs  DIISMaxEq       ....     5
   Bias factor          DIISBfac        ....   1.050
   Max. coefficient     DIISMaxC        ....  10.000
 Newton-Raphson         CNVNR           .... off
 SOSCF                  CNVSOSCF        .... off
 Level Shifting         CNVShift        .... on
   Level shift para.    LevelShift      ....    0.2500
   Turn off err/grad.   ShiftErr        ....    0.0010
 Zerner damping         CNVZerner       .... off
 Static damping         CNVDamp         .... on
   Fraction old density DampFac         ....    0.7000
   Max. Damping (<1)    DampMax         ....    0.9800
   Min. Damping (>=0)   DampMin         ....    0.0000
   Turn off err/grad.   DampErr         ....    0.1000
 Fernandez-Rico         CNVRico         .... off

SCF Procedure:
 Maximum # iterations   MaxIter         ....   125
 SCF integral mode      SCFMode         .... Direct
   Integral package                     .... LIBINT
 Reset frequency        DirectResetFreq ....    20
 Integral Threshold     Thresh          ....  2.500e-11 Eh
 Primitive CutOff       TCut            ....  2.500e-12 Eh

Convergence Tolerance:
 Convergence Check Mode ConvCheckMode   .... Total+1el-Energy
 Convergence forced     ConvForced      .... 1
 Energy Change          TolE            ....  1.000e-08 Eh
 1-El. energy change                    ....  1.000e-05 Eh
 DIIS Error             TolErr          ....  5.000e-07


Diagonalization of the overlap matrix:
Smallest eigenvalue                        ... 2.597e-07
Time for diagonalization                   ...    0.449 sec
Threshold for overlap eigenvalues          ... 1.000e-08
Number of eigenvalues below threshold      ... 0
Time for construction of square roots      ...    0.300 sec
Total time needed                          ...    0.759 sec

-------------------
DFT GRID GENERATION
-------------------

General Integration Accuracy     IntAcc      ...  4.340
Radial Grid Type                 RadialGrid  ... Gauss-Chebyshev
Angular Grid (max. acc.)         AngularGrid ... Lebedev-110
Angular grid pruning method      GridPruning ... 3 (G Style)
Weight generation scheme         WeightScheme... Becke
Basis function cutoff            BFCut       ...    1.0000e-11
Integration weight cutoff        WCut        ...    1.0000e-14
Grids for H and He will be reduced by one unit

# of grid points (after initial pruning)     ...  58438 (   0.0 sec)
# of grid points (after weights+screening)   ...  51081 (   0.1 sec)
nearest neighbour list constructed           ...    0.0 sec
Grid point re-assignment to atoms done       ...    0.0 sec
Grid point division into batches done        ...    0.0 sec
Reduced shell lists constructed in    0.2 sec

Total number of grid points                  ...    51081
Total number of batches                      ...      821
Average number of points per batch           ...       62
Average number of grid points per atom       ...      964
Average number of shells per batch           ...   411.85 (71.63%)
Average number of basis functions per batch  ...  1160.44 (70.37%)
Average number of large shells per batch     ...   314.44 (76.35%)
Average number of large basis fcns per batch ...   873.93 (75.31%)
Maximum spatial batch extension              ...   2.91,  3.01,  3.27 au
Average spatial batch extension              ...   0.06,  0.06,  0.06 au

Time for grid setup =    0.282 sec

------------------------------
INITIAL GUESS: MODEL POTENTIAL
------------------------------
Loading Hartree-Fock densities                     ... done
Calculating cut-offs                               ... done
Setting up the integral package                    ... done
Initializing the effective Hamiltonian             ... done
Starting the Coulomb interaction                   ... done (   0.6 sec)
Reading the grid                                   ... done
Mapping shells                                     ... done
Starting the XC term evaluation                    ... done (   0.5 sec)
Transforming the Hamiltonian                       ... done (   0.2 sec)
Diagonalizing the Hamiltonian                      ... done (   0.4 sec)
Back transforming the eigenvectors                 ... done (   0.1 sec)
Now organizing SCF variables                       ... done
                      ------------------
                      INITIAL GUESS DONE (   2.3 sec)
                      ------------------
--------------
SCF ITERATIONS
--------------
ITER       Energy         Delta-E        Max-DP      RMS-DP      [F,P]     Damp
               ***  Starting incremental Fock matrix formation  ***
  0  -1705.2469224916   0.000000000000 0.63322378  0.00169664  0.2816390 0.7000
  1  -1705.7161730226  -0.469250530990 0.48607537  0.00136238  0.1805593 0.7000
                               ***Turning on DIIS***
  2  -1705.9974898065  -0.281316783894 0.35419311  0.00098872  0.1059028 0.7000
  3  -1708.6636464001  -2.666156593576 0.86269716  0.00240931  0.0695598 0.0000
  4  -1706.1627513029   2.500895097194 0.05061898  0.00017616  0.0118944 0.0000
  5  -1706.5221816305  -0.359430327598 0.04556521  0.00013641  0.0055520 0.0000
  6  -1706.5525041032  -0.030322472743 0.02330763  0.00006192  0.0032242 0.0000
  7  -1706.5707579649  -0.018253861650 0.01979875  0.00002769  0.0017615 0.0000
  8  -1706.5707227107   0.000035254127 0.01533669  0.00002123  0.0009114 0.0000
  9  -1706.5704956205   0.000227090201 0.00597842  0.00001069  0.0002674 0.0000
 10  -1706.5711970781  -0.000701457604 0.00511789  0.00001851  0.0000834 0.0000
 11  -1706.5708027993   0.000394278816 0.00628151  0.00002184  0.0000486 0.0000
 12  -1706.5708631962  -0.000060396874 0.00487442  0.00002164  0.0000230 0.0000
 13  -1706.5708659806  -0.000002784377 0.00619486  0.00001933  0.0000096 0.0000
 14  -1706.5708753277  -0.000009347095 0.00283744  0.00001713  0.0000032 0.0000
                            ***DIIS convergence achieved***

               *****************************************************
               *                     SUCCESS                       *
               *           SCF CONVERGED AFTER  15 CYCLES          *
               *****************************************************


----------------
TOTAL SCF ENERGY
----------------

Total Energy       :        -1706.57087310 Eh          -46438.15433 eV

Components:
Nuclear Repulsion  :         2123.63243144 Eh           57786.97629 eV
Electronic Energy  :        -3830.20330454 Eh         -104225.13062 eV
One Electron Energy:        -6580.75504540 Eh         -179071.44860 eV
Two Electron Energy:         2750.55174086 Eh           74846.31798 eV

Virial components:
Potential Energy   :        -3412.87291723 Eh          -92868.99345 eV
Kinetic Energy     :         1706.30204413 Eh           46430.83912 eV
Virial Ratio       :            2.00015755


---------------
SCF CONVERGENCE
---------------

  Last Energy change         ...    2.2304e-06  Tolerance :   1.0000e-08
  Last MAX-Density change    ...    9.7737e-03  Tolerance :   1.0000e-07
  Last RMS-Density change    ...    2.1856e-05  Tolerance :   5.0000e-09
  Last DIIS Error            ...    8.4557e-07  Tolerance :   5.0000e-07

             **** THE GBW FILE WAS UPDATED (/tmp/pbs.2148704.pbsha.ib.sockeye/MP2augccpVTZ_06_31P.gbw) ****
             **** DENSITY FILE WAS UPDATED (/tmp/pbs.2148704.pbsha.ib.sockeye/MP2augccpVTZ_06_31P.scfp) ****
             **** ENERGY FILE WAS UPDATED (/tmp/pbs.2148704.pbsha.ib.sockeye/MP2augccpVTZ_06_31P.en.tmp) ****
----------------------
UHF SPIN CONTAMINATION
----------------------

Expectation value of <S**2>     :     0.766627
Ideal value S*(S+1) for S=0.5   :     0.750000
Deviation                       :     0.016627

             **** THE GBW FILE WAS UPDATED (/tmp/pbs.2148704.pbsha.ib.sockeye/MP2augccpVTZ_06_31P.gbw) ****
             **** DENSITY FILE WAS UPDATED (/tmp/pbs.2148704.pbsha.ib.sockeye/MP2augccpVTZ_06_31P.scfp) ****
----------------
ORBITAL ENERGIES
----------------
                 SPIN UP ORBITALS
  NO   OCC          E(Eh)            E(eV) 
   0   1.0000     -68.746076     -1870.6758 
   1   1.0000     -68.745398     -1870.6574 
   2   1.0000     -68.744622     -1870.6363 
   3   1.0000     -68.725644     -1870.1198 
   4   1.0000     -11.219385      -305.2950 
   5   1.0000     -11.218033      -305.2582 
   6   1.0000     -11.216716      -305.2224 
   7   1.0000     -11.215974      -305.2022 
   8   1.0000     -11.210985      -305.0664 
   9   1.0000     -11.196012      -304.6590 
  10   1.0000     -11.195735      -304.6514 
  11   1.0000     -11.195174      -304.6362 
  12   1.0000     -11.194937      -304.6297 
  13   1.0000     -11.194664      -304.6223 
  14   1.0000     -11.194631      -304.6214 
  15   1.0000     -11.194441      -304.6162 
  16   1.0000     -11.194176      -304.6090 
  17   1.0000     -11.193108      -304.5800 
  18   1.0000      -6.093830      -165.8215 
  19   1.0000      -6.093292      -165.8069 
  20   1.0000      -6.092527      -165.7861 
  21   1.0000      -6.077362      -165.3734 
  22   1.0000      -4.200001      -114.2878 
  23   1.0000      -4.199844      -114.2836 
  24   1.0000      -4.199790      -114.2821 
  25   1.0000      -4.199561      -114.2759 
  26   1.0000      -4.199245      -114.2673 
  27   1.0000      -4.199216      -114.2665 
  28   1.0000      -4.198665      -114.2515 
  29   1.0000      -4.198540      -114.2481 
  30   1.0000      -4.198494      -114.2468 
  31   1.0000      -4.183275      -113.8327 
  32   1.0000      -4.182726      -113.8178 
  33   1.0000      -4.182603      -113.8144 
  34   1.0000      -1.125708       -30.6321 
  35   1.0000      -0.969660       -26.3858 
  36   1.0000      -0.965155       -26.2632 
  37   1.0000      -0.962516       -26.1914 
  38   1.0000      -0.959355       -26.1054 
  39   1.0000      -0.958386       -26.0790 
  40   1.0000      -0.923086       -25.1184 
  41   1.0000      -0.921253       -25.0686 
  42   1.0000      -0.920834       -25.0572 
  43   1.0000      -0.918243       -24.9867 
  44   1.0000      -0.917686       -24.9715 
  45   1.0000      -0.917111       -24.9559 
  46   1.0000      -0.782530       -21.2937 
  47   1.0000      -0.761787       -20.7293 
  48   1.0000      -0.698033       -18.9944 
  49   1.0000      -0.660522       -17.9737 
  50   1.0000      -0.642874       -17.4935 
  51   1.0000      -0.622130       -16.9290 
  52   1.0000      -0.621032       -16.8991 
  53   1.0000      -0.587537       -15.9877 
  54   1.0000      -0.573841       -15.6150 
  55   1.0000      -0.572644       -15.5824 
  56   1.0000      -0.568063       -15.4578 
  57   1.0000      -0.563542       -15.3348 
  58   1.0000      -0.562784       -15.3141 
  59   1.0000      -0.560716       -15.2579 
  60   1.0000      -0.554093       -15.0776 
  61   1.0000      -0.552915       -15.0456 
  62   1.0000      -0.550490       -14.9796 
  63   1.0000      -0.544145       -14.8069 
  64   1.0000      -0.541429       -14.7330 
  65   1.0000      -0.537797       -14.6342 
  66   1.0000      -0.536246       -14.5920 
  67   1.0000      -0.533616       -14.5204 
  68   1.0000      -0.532961       -14.5026 
  69   1.0000      -0.530759       -14.4427 
  70   1.0000      -0.526920       -14.3382 
  71   1.0000      -0.525856       -14.3093 
  72   1.0000      -0.524401       -14.2697 
  73   1.0000      -0.510431       -13.8895 
  74   1.0000      -0.495178       -13.4745 
  75   1.0000      -0.478823       -13.0294 
  76   1.0000      -0.472899       -12.8682 
  77   1.0000      -0.469548       -12.7770 
  78   1.0000      -0.436146       -11.8681 
  79   1.0000      -0.430046       -11.7021 
  80   1.0000      -0.429420       -11.6851 
  81   1.0000      -0.424014       -11.5380 
  82   1.0000      -0.423893       -11.5347 
  83   1.0000      -0.421500       -11.4696 
  84   1.0000      -0.405865       -11.0442 
  85   1.0000      -0.335853        -9.1390 
  86   1.0000      -0.333635        -9.0787 
  87   1.0000      -0.291607        -7.9350 
  88   0.0000       0.022728         0.6185 
  89   0.0000       0.028314         0.7705 
  90   0.0000       0.028363         0.7718 
  91   0.0000       0.028478         0.7749 
  92   0.0000       0.038482         1.0472 
  93   0.0000       0.039097         1.0639 
  94   0.0000       0.039422         1.0727 
  95   0.0000       0.040193         1.0937 
  96   0.0000       0.040823         1.1108 
  97   0.0000       0.053144         1.4461 
  98   0.0000       0.054278         1.4770 
  99   0.0000       0.054936         1.4949 
 100   0.0000       0.057447         1.5632 
 101   0.0000       0.058558         1.5934 
 102   0.0000       0.059246         1.6122 
 103   0.0000       0.059641         1.6229 
 104   0.0000       0.073134         1.9901 
 105   0.0000       0.075536         2.0554 
 106   0.0000       0.076047         2.0693 
 107   0.0000       0.076229         2.0743 
 108   0.0000       0.077537         2.1099 
 109   0.0000       0.078755         2.1430 
 110   0.0000       0.079412         2.1609 
 111   0.0000       0.081223         2.2102 
 112   0.0000       0.083612         2.2752 
 113   0.0000       0.091719         2.4958 
 114   0.0000       0.094162         2.5623 
 115   0.0000       0.096579         2.6281 
 116   0.0000       0.099197         2.6993 
 117   0.0000       0.099639         2.7113 
 118   0.0000       0.100717         2.7407 
 119   0.0000       0.102254         2.7825 
 120   0.0000       0.103686         2.8215 
 121   0.0000       0.104012         2.8303 
 122   0.0000       0.106993         2.9114 
 123   0.0000       0.109014         2.9664 
 124   0.0000       0.112427         3.0593 
 125   0.0000       0.113041         3.0760 
 126   0.0000       0.113635         3.0922 
 127   0.0000       0.114413         3.1133 
 128   0.0000       0.116873         3.1803 
 129   0.0000       0.117653         3.2015 
 130   0.0000       0.118049         3.2123 
 131   0.0000       0.120114         3.2685 
 132   0.0000       0.124939         3.3998 
 133   0.0000       0.130495         3.5509 
 134   0.0000       0.134666         3.6645 
 135   0.0000       0.135548         3.6884 
 136   0.0000       0.136938         3.7263 
 137   0.0000       0.140531         3.8240 
 138   0.0000       0.140595         3.8258 
 139   0.0000       0.143551         3.9062 
 140   0.0000       0.145003         3.9457 
 141   0.0000       0.147661         4.0181 
 142   0.0000       0.149160         4.0588 
 143   0.0000       0.149945         4.0802 
 144   0.0000       0.152578         4.1519 
 145   0.0000       0.154838         4.2134 
 146   0.0000       0.156635         4.2623 
 147   0.0000       0.158759         4.3201 
 148   0.0000       0.161412         4.3922 
 149   0.0000       0.165240         4.4964 
 150   0.0000       0.166002         4.5172 
 151   0.0000       0.167403         4.5553 
 152   0.0000       0.169419         4.6101 
 153   0.0000       0.171035         4.6541 
 154   0.0000       0.172645         4.6979 
 155   0.0000       0.175333         4.7711 
 156   0.0000       0.176078         4.7913 
 157   0.0000       0.177594         4.8326 
 158   0.0000       0.179112         4.8739 
 159   0.0000       0.180242         4.9046 
 160   0.0000       0.180941         4.9237 
 161   0.0000       0.182906         4.9771 
 162   0.0000       0.185485         5.0473 
 163   0.0000       0.186842         5.0842 
 164   0.0000       0.189190         5.1481 
 165   0.0000       0.191320         5.2061 
 166   0.0000       0.194344         5.2884 
 167   0.0000       0.196130         5.3370 
 168   0.0000       0.200033         5.4432 
 169   0.0000       0.200125         5.4457 
 170   0.0000       0.200914         5.4672 
 171   0.0000       0.205970         5.6047 
 172   0.0000       0.206757         5.6261 
 173   0.0000       0.209116         5.6903 
 174   0.0000       0.210796         5.7360 
 175   0.0000       0.211897         5.7660 
 176   0.0000       0.213311         5.8045 
 177   0.0000       0.214453         5.8355 
 178   0.0000       0.218368         5.9421 
 179   0.0000       0.219559         5.9745 
 180   0.0000       0.221012         6.0140 
 181   0.0000       0.221829         6.0363 
 182   0.0000       0.224948         6.1212 
 183   0.0000       0.229522         6.2456 
 184   0.0000       0.230031         6.2595 
 185   0.0000       0.232911         6.3378 
 186   0.0000       0.235133         6.3983 
 187   0.0000       0.237139         6.4529 
 188   0.0000       0.239025         6.5042 
 189   0.0000       0.239518         6.5176 
 190   0.0000       0.240062         6.5324 
 191   0.0000       0.246615         6.7107 
 192   0.0000       0.250146         6.8068 
 193   0.0000       0.251371         6.8402 
 194   0.0000       0.252153         6.8614 
 195   0.0000       0.258422         7.0320 
 196   0.0000       0.264115         7.1869 
 197   0.0000       0.264743         7.2040 
 198   0.0000       0.267259         7.2725 
 199   0.0000       0.269485         7.3331 
 200   0.0000       0.272597         7.4177 
 201   0.0000       0.274034         7.4568 
 202   0.0000       0.277333         7.5466 
 203   0.0000       0.278915         7.5897 
 204   0.0000       0.279949         7.6178 
 205   0.0000       0.281232         7.6527 
 206   0.0000       0.283792         7.7224 
 207   0.0000       0.286056         7.7840 
 208   0.0000       0.289939         7.8896 
 209   0.0000       0.291929         7.9438 
 210   0.0000       0.295461         8.0399 
 211   0.0000       0.297507         8.0956 
 212   0.0000       0.297685         8.1004 
 213   0.0000       0.300734         8.1834 
 214   0.0000       0.303373         8.2552 
 215   0.0000       0.305334         8.3086 
 216   0.0000       0.305517         8.3135 
 217   0.0000       0.306200         8.3321 
 218   0.0000       0.308193         8.3863 
 219   0.0000       0.308621         8.3980 
 220   0.0000       0.314255         8.5513 
 221   0.0000       0.316529         8.6132 
 222   0.0000       0.318190         8.6584 
 223   0.0000       0.319509         8.6943 
 224   0.0000       0.320827         8.7301 
 225   0.0000       0.323693         8.8081 
 226   0.0000       0.325302         8.8519 
 227   0.0000       0.326731         8.8908 
 228   0.0000       0.331004         9.0071 
 229   0.0000       0.334093         9.0911 
 230   0.0000       0.339701         9.2437 
 231   0.0000       0.341827         9.3016 
 232   0.0000       0.342141         9.3101 
 233   0.0000       0.346599         9.4314 
 234   0.0000       0.349341         9.5061 
 235   0.0000       0.351973         9.5777 
 236   0.0000       0.353482         9.6187 
 237   0.0000       0.357093         9.7170 
 238   0.0000       0.358485         9.7549 
 239   0.0000       0.360231         9.8024 
 240   0.0000       0.364295         9.9130 
 241   0.0000       0.367078         9.9887 
 242   0.0000       0.368019        10.0143 
 243   0.0000       0.372530        10.1371 
 244   0.0000       0.376740        10.2516 
 245   0.0000       0.379088        10.3155 
 246   0.0000       0.381932        10.3929 
 247   0.0000       0.384207        10.4548 
 248   0.0000       0.385200        10.4818 
 249   0.0000       0.386865        10.5271 
 250   0.0000       0.392206        10.6725 
 251   0.0000       0.394103        10.7241 
 252   0.0000       0.396436        10.7876 
 253   0.0000       0.397134        10.8066 
 254   0.0000       0.398725        10.8499 
 255   0.0000       0.402752        10.9594 
 256   0.0000       0.403374        10.9764 
 257   0.0000       0.406853        11.0710 
 258   0.0000       0.408839        11.1251 
 259   0.0000       0.411609        11.2005 
 260   0.0000       0.412591        11.2272 
 261   0.0000       0.413667        11.2565 
 262   0.0000       0.415837        11.3155 
 263   0.0000       0.417254        11.3540 
 264   0.0000       0.420883        11.4528 
 265   0.0000       0.421697        11.4750 
 266   0.0000       0.424729        11.5575 
 267   0.0000       0.425146        11.5688 
 268   0.0000       0.426685        11.6107 
 269   0.0000       0.428549        11.6614 
 270   0.0000       0.429541        11.6884 
 271   0.0000       0.433991        11.8095 
 272   0.0000       0.434858        11.8331 
 273   0.0000       0.436150        11.8682 
 274   0.0000       0.438159        11.9229 
 275   0.0000       0.442777        12.0486 
 276   0.0000       0.444842        12.1048 
 277   0.0000       0.447332        12.1725 
 278   0.0000       0.448442        12.2027 
 279   0.0000       0.451799        12.2941 
 280   0.0000       0.453856        12.3501 
 281   0.0000       0.454708        12.3732 
 282   0.0000       0.455509        12.3950 
 283   0.0000       0.460885        12.5413 
 284   0.0000       0.462050        12.5730 
 285   0.0000       0.464274        12.6335 
 286   0.0000       0.465706        12.6725 
 287   0.0000       0.468295        12.7430 
 288   0.0000       0.470167        12.7939 
 289   0.0000       0.471076        12.8186 
 290   0.0000       0.472692        12.8626 
 291   0.0000       0.473685        12.8896 
 292   0.0000       0.477345        12.9892 
 293   0.0000       0.479649        13.0519 
 294   0.0000       0.482178        13.1207 
 295   0.0000       0.485301        13.2057 
 296   0.0000       0.489110        13.3094 
 297   0.0000       0.492720        13.4076 
 298   0.0000       0.493037        13.4162 
 299   0.0000       0.494977        13.4690 
 300   0.0000       0.497369        13.5341 
 301   0.0000       0.498336        13.5604 
 302   0.0000       0.500097        13.6083 
 303   0.0000       0.502728        13.6799 
 304   0.0000       0.503284        13.6950 
 305   0.0000       0.504099        13.7172 
 306   0.0000       0.504456        13.7270 
 307   0.0000       0.509670        13.8688 
 308   0.0000       0.510725        13.8975 
 309   0.0000       0.513892        13.9837 
 310   0.0000       0.514986        14.0135 
 311   0.0000       0.517666        14.0864 
 312   0.0000       0.519525        14.1370 
 313   0.0000       0.521836        14.1999 
 314   0.0000       0.523720        14.2512 
 315   0.0000       0.524599        14.2751 
 316   0.0000       0.526443        14.3252 
 317   0.0000       0.527802        14.3622 
 318   0.0000       0.530800        14.4438 
 319   0.0000       0.534019        14.5314 
 320   0.0000       0.536220        14.5913 
 321   0.0000       0.536796        14.6070 
 322   0.0000       0.537389        14.6231 
 323   0.0000       0.540665        14.7123 
 324   0.0000       0.542438        14.7605 
 325   0.0000       0.543532        14.7903 
 326   0.0000       0.545097        14.8328 
 327   0.0000       0.546949        14.8832 
 328   0.0000       0.547905        14.9092 
 329   0.0000       0.549356        14.9487 
 330   0.0000       0.551563        15.0088 
 331   0.0000       0.553392        15.0586 
 332   0.0000       0.559495        15.2246 
 333   0.0000       0.560135        15.2420 
 334   0.0000       0.561251        15.2724 
 335   0.0000       0.563341        15.3293 
 336   0.0000       0.564609        15.3638 
 337   0.0000       0.565393        15.3851 
 338   0.0000       0.568637        15.4734 
 339   0.0000       0.571240        15.5442 
 340   0.0000       0.573591        15.6082 
 341   0.0000       0.574959        15.6454 
 342   0.0000       0.581160        15.8142 
 343   0.0000       0.583360        15.8740 
 344   0.0000       0.586851        15.9690 
 345   0.0000       0.589413        16.0387 
 346   0.0000       0.589668        16.0457 
 347   0.0000       0.591750        16.1023 
 348   0.0000       0.594887        16.1877 
 349   0.0000       0.596148        16.2220 
 350   0.0000       0.597952        16.2711 
 351   0.0000       0.600350        16.3364 
 352   0.0000       0.602963        16.4075 
 353   0.0000       0.606729        16.5099 
 354   0.0000       0.607964        16.5435 
 355   0.0000       0.611384        16.6366 
 356   0.0000       0.612304        16.6616 
 357   0.0000       0.614330        16.7168 
 358   0.0000       0.616188        16.7673 
 359   0.0000       0.617880        16.8134 
 360   0.0000       0.620263        16.8782 
 361   0.0000       0.622000        16.9255 
 362   0.0000       0.625800        17.0289 
 363   0.0000       0.628941        17.1143 
 364   0.0000       0.630877        17.1670 
 365   0.0000       0.631485        17.1836 
 366   0.0000       0.632427        17.2092 
 367   0.0000       0.636377        17.3167 
 368   0.0000       0.636940        17.3320 
 369   0.0000       0.639157        17.3924 
 370   0.0000       0.641472        17.4553 
 371   0.0000       0.644492        17.5375 
 372   0.0000       0.646657        17.5964 
 373   0.0000       0.648986        17.6598 
 374   0.0000       0.649791        17.6817 
 375   0.0000       0.651136        17.7183 
 376   0.0000       0.652784        17.7632 
 377   0.0000       0.656166        17.8552 
 378   0.0000       0.658129        17.9086 
 379   0.0000       0.660054        17.9610 
 380   0.0000       0.660826        17.9820 
 381   0.0000       0.665105        18.0984 
 382   0.0000       0.666778        18.1439 
 383   0.0000       0.669400        18.2153 
 384   0.0000       0.671263        18.2660 
 385   0.0000       0.673662        18.3313 
 386   0.0000       0.677614        18.4388 
 387   0.0000       0.680303        18.5120 
 388   0.0000       0.681611        18.5476 
 389   0.0000       0.684762        18.6333 
 390   0.0000       0.687959        18.7203 
 391   0.0000       0.689724        18.7683 
 392   0.0000       0.693361        18.8673 
 393   0.0000       0.694943        18.9104 
 394   0.0000       0.697370        18.9764 
 395   0.0000       0.699033        19.0216 
 396   0.0000       0.701042        19.0763 
 397   0.0000       0.704826        19.1793 
 398   0.0000       0.707461        19.2510 
 399   0.0000       0.709782        19.3141 
 400   0.0000       0.711077        19.3494 
 401   0.0000       0.714550        19.4439 
 402   0.0000       0.716556        19.4985 
 403   0.0000       0.719037        19.5660 
 404   0.0000       0.724618        19.7178 
 405   0.0000       0.726067        19.7573 
 406   0.0000       0.726832        19.7781 
 407   0.0000       0.730260        19.8714 
 408   0.0000       0.732271        19.9261 
 409   0.0000       0.733232        19.9523 
 410   0.0000       0.734412        19.9844 
 411   0.0000       0.737608        20.0713 
 412   0.0000       0.740239        20.1429 
 413   0.0000       0.744043        20.2464 
 414   0.0000       0.745655        20.2903 
 415   0.0000       0.746584        20.3156 
 416   0.0000       0.748880        20.3781 
 417   0.0000       0.751520        20.4499 
 418   0.0000       0.753094        20.4927 
 419   0.0000       0.756836        20.5945 
 420   0.0000       0.761189        20.7130 
 421   0.0000       0.762060        20.7367 
 422   0.0000       0.765292        20.8246 
 423   0.0000       0.769147        20.9296 
 424   0.0000       0.774770        21.0826 
 425   0.0000       0.776180        21.1209 
 426   0.0000       0.777745        21.1635 
 427   0.0000       0.778815        21.1926 
 428   0.0000       0.780819        21.2472 
 429   0.0000       0.784678        21.3522 
 430   0.0000       0.787042        21.4165 
 431   0.0000       0.790610        21.5136 
 432   0.0000       0.793148        21.5826 
 433   0.0000       0.796140        21.6641 
 434   0.0000       0.800625        21.7861 
 435   0.0000       0.802180        21.8284 
 436   0.0000       0.803988        21.8776 
 437   0.0000       0.805198        21.9105 
 438   0.0000       0.809474        22.0269 
 439   0.0000       0.809921        22.0391 
 440   0.0000       0.814137        22.1538 
 441   0.0000       0.816711        22.2238 
 442   0.0000       0.821295        22.3486 
 443   0.0000       0.823046        22.3962 
 444   0.0000       0.826982        22.5033 
 445   0.0000       0.830375        22.5957 
 446   0.0000       0.834085        22.6966 
 447   0.0000       0.834157        22.6986 
 448   0.0000       0.836533        22.7632 
 449   0.0000       0.838946        22.8289 
 450   0.0000       0.841038        22.8858 
 451   0.0000       0.844748        22.9868 
 452   0.0000       0.849553        23.1175 
 453   0.0000       0.853432        23.2231 
 454   0.0000       0.855284        23.2735 
 455   0.0000       0.856009        23.2932 
 456   0.0000       0.859309        23.3830 
 457   0.0000       0.860861        23.4252 
 458   0.0000       0.863583        23.4993 
 459   0.0000       0.865260        23.5449 
 460   0.0000       0.867695        23.6112 
 461   0.0000       0.871024        23.7018 
 462   0.0000       0.875537        23.8246 
 463   0.0000       0.876777        23.8583 
 464   0.0000       0.883147        24.0317 
 465   0.0000       0.885250        24.0889 
 466   0.0000       0.886274        24.1167 
 467   0.0000       0.889857        24.2142 
 468   0.0000       0.891639        24.2627 
 469   0.0000       0.894553        24.3420 
 470   0.0000       0.895846        24.3772 
 471   0.0000       0.897220        24.4146 
 472   0.0000       0.898707        24.4551 
 473   0.0000       0.900777        24.5114 
 474   0.0000       0.904872        24.6228 
 475   0.0000       0.908627        24.7250 
 476   0.0000       0.909711        24.7545 
 477   0.0000       0.913286        24.8518 
 478   0.0000       0.917457        24.9653 
 479   0.0000       0.918569        24.9955 
 480   0.0000       0.921213        25.0675 
 481   0.0000       0.923959        25.1422 
 482   0.0000       0.926829        25.2203 
 483   0.0000       0.929151        25.2835 
 484   0.0000       0.930248        25.3133 
 485   0.0000       0.933702        25.4073 
 486   0.0000       0.934420        25.4269 
 487   0.0000       0.940589        25.5947 
 488   0.0000       0.943076        25.6624 
 489   0.0000       0.943414        25.6716 
 490   0.0000       0.946101        25.7447 
 491   0.0000       0.948735        25.8164 
 492   0.0000       0.950168        25.8554 
 493   0.0000       0.953998        25.9596 
 494   0.0000       0.955956        26.0129 
 495   0.0000       0.956145        26.0180 
 496   0.0000       0.961423        26.1617 
 497   0.0000       0.961982        26.1769 
 498   0.0000       0.963446        26.2167 
 499   0.0000       0.966264        26.2934 
 500   0.0000       0.968017        26.3411 
 501   0.0000       0.972309        26.4579 
 502   0.0000       0.974379        26.5142 
 503   0.0000       0.978233        26.6191 
 504   0.0000       0.979542        26.6547 
 505   0.0000       0.982131        26.7251 
 506   0.0000       0.984214        26.7818 
 507   0.0000       0.987725        26.8774 
 508   0.0000       0.989516        26.9261 
 509   0.0000       0.992708        27.0130 
 510   0.0000       0.994651        27.0658 
 511   0.0000       0.995706        27.0945 
 512   0.0000       0.999749        27.2045 
 513   0.0000       1.001826        27.2611 
 514   0.0000       1.005402        27.3584 
 515   0.0000       1.006876        27.3985 
 516   0.0000       1.010970        27.5099 
 517   0.0000       1.012468        27.5507 
 518   0.0000       1.013397        27.5759 
 519   0.0000       1.016669        27.6650 
 520   0.0000       1.019463        27.7410 
 521   0.0000       1.020398        27.7664 
 522   0.0000       1.022871        27.8337 
 523   0.0000       1.027347        27.9555 
 524   0.0000       1.029556        28.0156 
 525   0.0000       1.030133        28.0313 
 526   0.0000       1.032660        28.1001 
 527   0.0000       1.035311        28.1722 
 528   0.0000       1.037403        28.2292 
 529   0.0000       1.039057        28.2742 
 530   0.0000       1.044131        28.4123 
 531   0.0000       1.045536        28.4505 
 532   0.0000       1.048482        28.5306 
 533   0.0000       1.049067        28.5466 
 534   0.0000       1.052727        28.6462 
 535   0.0000       1.053782        28.6749 
 536   0.0000       1.055671        28.7263 
 537   0.0000       1.057096        28.7651 
 538   0.0000       1.058997        28.8168 
 539   0.0000       1.061314        28.8798 
 540   0.0000       1.062158        28.9028 
 541   0.0000       1.064853        28.9761 
 542   0.0000       1.068797        29.0834 
 543   0.0000       1.072280        29.1782 
 544   0.0000       1.073403        29.2088 
 545   0.0000       1.075342        29.2615 
 546   0.0000       1.079865        29.3846 
 547   0.0000       1.082865        29.4663 
 548   0.0000       1.085235        29.5307 
 549   0.0000       1.086171        29.5562 
 550   0.0000       1.092466        29.7275 
 551   0.0000       1.095010        29.7967 
 552   0.0000       1.097032        29.8518 
 553   0.0000       1.101517        29.9738 
 554   0.0000       1.102884        30.0110 
 555   0.0000       1.107683        30.1416 
 556   0.0000       1.109094        30.1800 
 557   0.0000       1.111544        30.2467 
 558   0.0000       1.114723        30.3332 
 559   0.0000       1.118488        30.4356 
 560   0.0000       1.122542        30.5459 
 561   0.0000       1.123647        30.5760 
 562   0.0000       1.124526        30.5999 
 563   0.0000       1.127642        30.6847 
 564   0.0000       1.128630        30.7116 
 565   0.0000       1.132661        30.8213 
 566   0.0000       1.134640        30.8751 
 567   0.0000       1.139962        31.0200 
 568   0.0000       1.141676        31.0666 
 569   0.0000       1.143032        31.1035 
 570   0.0000       1.143580        31.1184 
 571   0.0000       1.147417        31.2228 
 572   0.0000       1.150989        31.3200 
 573   0.0000       1.151367        31.3303 
 574   0.0000       1.156652        31.4741 
 575   0.0000       1.158753        31.5313 
 576   0.0000       1.161131        31.5960 
 577   0.0000       1.164706        31.6933 
 578   0.0000       1.166544        31.7433 
 579   0.0000       1.169435        31.8219 
 580   0.0000       1.172119        31.8950 
 581   0.0000       1.177667        32.0459 
 582   0.0000       1.179654        32.1000 
 583   0.0000       1.181740        32.1568 
 584   0.0000       1.185006        32.2456 
 585   0.0000       1.186315        32.2813 
 586   0.0000       1.188926        32.3523 
 587   0.0000       1.190750        32.4019 
 588   0.0000       1.191622        32.4257 
 589   0.0000       1.193134        32.4668 
 590   0.0000       1.199841        32.6493 
 591   0.0000       1.203194        32.7406 
 592   0.0000       1.203547        32.7502 
 593   0.0000       1.206846        32.8400 
 594   0.0000       1.209744        32.9188 
 595   0.0000       1.211798        32.9747 
 596   0.0000       1.213474        33.0203 
 597   0.0000       1.218463        33.1561 
 598   0.0000       1.219369        33.1807 
 599   0.0000       1.225067        33.3358 
 600   0.0000       1.227365        33.3983 
 601   0.0000       1.229929        33.4681 
 602   0.0000       1.231403        33.5082 
 603   0.0000       1.235144        33.6100 
 604   0.0000       1.235999        33.6332 
 605   0.0000       1.239409        33.7260 
 606   0.0000       1.240643        33.7596 
 607   0.0000       1.246203        33.9109 
 608   0.0000       1.248665        33.9779 
 609   0.0000       1.251230        34.0477 
 610   0.0000       1.254285        34.1308 
 611   0.0000       1.256373        34.1877 
 612   0.0000       1.257978        34.2313 
 613   0.0000       1.262149        34.3448 
 614   0.0000       1.264676        34.4136 
 615   0.0000       1.266164        34.4541 
 616   0.0000       1.270612        34.5751 
 617   0.0000       1.274972        34.6938 
 618   0.0000       1.278319        34.7848 
 619   0.0000       1.278993        34.8032 
 620   0.0000       1.279764        34.8242 
 621   0.0000       1.282112        34.8880 
 622   0.0000       1.284282        34.9471 
 623   0.0000       1.286525        35.0081 
 624   0.0000       1.291528        35.1443 
 625   0.0000       1.294247        35.2183 
 626   0.0000       1.297417        35.3045 
 627   0.0000       1.300554        35.3899 
 628   0.0000       1.302222        35.4353 
 629   0.0000       1.304685        35.5023 
 630   0.0000       1.307023        35.5659 
 631   0.0000       1.310232        35.6532 
 632   0.0000       1.311382        35.6845 
 633   0.0000       1.316088        35.8126 
 634   0.0000       1.317809        35.8594 
 635   0.0000       1.318220        35.8706 
 636   0.0000       1.322582        35.9893 
 637   0.0000       1.325548        36.0700 
 638   0.0000       1.330471        36.2040 
 639   0.0000       1.331497        36.2319 
 640   0.0000       1.332758        36.2662 
 641   0.0000       1.334627        36.3171 
 642   0.0000       1.338388        36.4194 
 643   0.0000       1.341274        36.4979 
 644   0.0000       1.342812        36.5398 
 645   0.0000       1.345833        36.6220 
 646   0.0000       1.347853        36.6769 
 647   0.0000       1.350297        36.7435 
 648   0.0000       1.352895        36.8141 
 649   0.0000       1.354440        36.8562 
 650   0.0000       1.358898        36.9775 
 651   0.0000       1.361350        37.0442 
 652   0.0000       1.363110        37.0921 
 653   0.0000       1.366834        37.1934 
 654   0.0000       1.367547        37.2129 
 655   0.0000       1.369853        37.2756 
 656   0.0000       1.371555        37.3219 
 657   0.0000       1.374278        37.3960 
 658   0.0000       1.376937        37.4683 
 659   0.0000       1.378556        37.5124 
 660   0.0000       1.382600        37.6225 
 661   0.0000       1.385551        37.7028 
 662   0.0000       1.388471        37.7822 
 663   0.0000       1.391021        37.8516 
 664   0.0000       1.392283        37.8859 
 665   0.0000       1.395729        37.9797 
 666   0.0000       1.401052        38.1246 
 667   0.0000       1.404315        38.2134 
 668   0.0000       1.407147        38.2904 
 669   0.0000       1.410060        38.3697 
 670   0.0000       1.411950        38.4211 
 671   0.0000       1.413319        38.4584 
 672   0.0000       1.415463        38.5167 
 673   0.0000       1.419411        38.6241 
 674   0.0000       1.423673        38.7401 
 675   0.0000       1.424883        38.7730 
 676   0.0000       1.426708        38.8227 
 677   0.0000       1.430908        38.9370 
 678   0.0000       1.431263        38.9466 
 679   0.0000       1.434275        39.0286 
 680   0.0000       1.437666        39.1209 
 681   0.0000       1.440014        39.1848 
 682   0.0000       1.442812        39.2609 
 683   0.0000       1.447283        39.3826 
 684   0.0000       1.449021        39.4299 
 685   0.0000       1.451849        39.5068 
 686   0.0000       1.456761        39.6405 
 687   0.0000       1.458018        39.6747 
 688   0.0000       1.460549        39.7436 
 689   0.0000       1.466321        39.9006 
 690   0.0000       1.466920        39.9169 
 691   0.0000       1.469723        39.9932 
 692   0.0000       1.471847        40.0510 
 693   0.0000       1.475896        40.1612 
 694   0.0000       1.478725        40.2382 
 695   0.0000       1.480550        40.2878 
 696   0.0000       1.484236        40.3881 
 697   0.0000       1.487932        40.4887 
 698   0.0000       1.488869        40.5142 
 699   0.0000       1.492762        40.6201 
 700   0.0000       1.495494        40.6944 
 701   0.0000       1.496135        40.7119 
 702   0.0000       1.499528        40.8042 
 703   0.0000       1.506334        40.9894 
 704   0.0000       1.508800        41.0565 
 705   0.0000       1.511757        41.1370 
 706   0.0000       1.516408        41.2636 
 707   0.0000       1.518343        41.3162 
 708   0.0000       1.518885        41.3310 
 709   0.0000       1.524879        41.4941 
 710   0.0000       1.525296        41.5054 
 711   0.0000       1.528360        41.5888 
 712   0.0000       1.531296        41.6687 
 713   0.0000       1.536274        41.8041 
 714   0.0000       1.537602        41.8403 
 715   0.0000       1.542085        41.9623 
 716   0.0000       1.546155        42.0730 
 717   0.0000       1.549127        42.1539 
 718   0.0000       1.550628        42.1947 
 719   0.0000       1.552157        42.2363 
 720   0.0000       1.555053        42.3152 
 721   0.0000       1.559999        42.4497 
 722   0.0000       1.561646        42.4946 
 723   0.0000       1.563761        42.5521 
 724   0.0000       1.568824        42.6899 
 725   0.0000       1.569252        42.7015 
 726   0.0000       1.576154        42.8893 
 727   0.0000       1.578782        42.9608 
 728   0.0000       1.580030        42.9948 
 729   0.0000       1.582844        43.0714 
 730   0.0000       1.584261        43.1099 
 731   0.0000       1.587274        43.1919 
 732   0.0000       1.596538        43.4440 
 733   0.0000       1.599346        43.5204 
 734   0.0000       1.601282        43.5731 
 735   0.0000       1.609671        43.8014 
 736   0.0000       1.610254        43.8172 
 737   0.0000       1.615465        43.9590 
 738   0.0000       1.616611        43.9902 
 739   0.0000       1.621909        44.1344 
 740   0.0000       1.624621        44.2082 
 741   0.0000       1.628434        44.3119 
 742   0.0000       1.629725        44.3471 
 743   0.0000       1.631664        44.3998 
 744   0.0000       1.633296        44.4443 
 745   0.0000       1.638192        44.5775 
 746   0.0000       1.639860        44.6229 
 747   0.0000       1.641156        44.6581 
 748   0.0000       1.643683        44.7269 
 749   0.0000       1.646981        44.8166 
 750   0.0000       1.651153        44.9302 
 751   0.0000       1.654326        45.0165 
 752   0.0000       1.658430        45.1282 
 753   0.0000       1.662313        45.2338 
 754   0.0000       1.664574        45.2954 
 755   0.0000       1.667121        45.3647 
 756   0.0000       1.670805        45.4649 
 757   0.0000       1.672783        45.5187 
 758   0.0000       1.676167        45.6108 
 759   0.0000       1.677910        45.6583 
 760   0.0000       1.682204        45.7751 
 761   0.0000       1.688805        45.9547 
 762   0.0000       1.690547        46.0021 
 763   0.0000       1.694402        46.1070 
 764   0.0000       1.694904        46.1207 
 765   0.0000       1.698484        46.2181 
 766   0.0000       1.701348        46.2960 
 767   0.0000       1.702198        46.3192 
 768   0.0000       1.704764        46.3890 
 769   0.0000       1.709944        46.5299 
 770   0.0000       1.713012        46.6134 
 771   0.0000       1.715021        46.6681 
 772   0.0000       1.720456        46.8160 
 773   0.0000       1.722782        46.8793 
 774   0.0000       1.724681        46.9310 
 775   0.0000       1.728693        47.0401 
 776   0.0000       1.729731        47.0684 
 777   0.0000       1.732172        47.1348 
 778   0.0000       1.734198        47.1899 
 779   0.0000       1.736764        47.2598 
 780   0.0000       1.741792        47.3966 
 781   0.0000       1.745056        47.4854 
 782   0.0000       1.750578        47.6356 
 783   0.0000       1.752533        47.6888 
 784   0.0000       1.753434        47.7134 
 785   0.0000       1.756277        47.7907 
 786   0.0000       1.757085        47.8127 
 787   0.0000       1.763608        47.9902 
 788   0.0000       1.764318        48.0095 
 789   0.0000       1.766662        48.0733 
 790   0.0000       1.770355        48.1738 
 791   0.0000       1.772982        48.2453 
 792   0.0000       1.776612        48.3441 
 793   0.0000       1.779202        48.4145 
 794   0.0000       1.781839        48.4863 
 795   0.0000       1.782775        48.5118 
 796   0.0000       1.785881        48.5963 
 797   0.0000       1.788814        48.6761 
 798   0.0000       1.791026        48.7363 
 799   0.0000       1.794428        48.8289 
 800   0.0000       1.797921        48.9239 
 801   0.0000       1.801904        49.0323 
 802   0.0000       1.803637        49.0795 
 803   0.0000       1.806826        49.1662 
 804   0.0000       1.809112        49.2284 
 805   0.0000       1.811576        49.2955 
 806   0.0000       1.815854        49.4119 
 807   0.0000       1.819334        49.5066 
 808   0.0000       1.822193        49.5844 
 809   0.0000       1.825673        49.6791 
 810   0.0000       1.826363        49.6979 
 811   0.0000       1.829436        49.7815 
 812   0.0000       1.834248        49.9124 
 813   0.0000       1.837501        50.0009 
 814   0.0000       1.838598        50.0308 
 815   0.0000       1.845708        50.2243 
 816   0.0000       1.848022        50.2872 
 817   0.0000       1.850783        50.3624 
 818   0.0000       1.853466        50.4354 
 819   0.0000       1.855499        50.4907 
 820   0.0000       1.858302        50.5670 
 821   0.0000       1.859923        50.6111 
 822   0.0000       1.863031        50.6956 
 823   0.0000       1.866841        50.7993 
 824   0.0000       1.869023        50.8587 
 825   0.0000       1.870236        50.8917 
 826   0.0000       1.872864        50.9632 
 827   0.0000       1.875067        51.0232 
 828   0.0000       1.877448        51.0880 
 829   0.0000       1.881668        51.2028 
 830   0.0000       1.884724        51.2860 
 831   0.0000       1.887956        51.3739 
 832   0.0000       1.892511        51.4978 
 833   0.0000       1.894019        51.5389 
 834   0.0000       1.895931        51.5909 
 835   0.0000       1.899529        51.6888 
 836   0.0000       1.900995        51.7287 
 837   0.0000       1.903106        51.7862 
 838   0.0000       1.904176        51.8153 
 839   0.0000       1.907140        51.8959 
 840   0.0000       1.911908        52.0257 
 841   0.0000       1.913424        52.0669 
 842   0.0000       1.916046        52.1383 
 843   0.0000       1.921119        52.2763 
 844   0.0000       1.922630        52.3174 
 845   0.0000       1.928952        52.4895 
 846   0.0000       1.929484        52.5039 
 847   0.0000       1.932636        52.5897 
 848   0.0000       1.937751        52.7289 
 849   0.0000       1.943236        52.8781 
 850   0.0000       1.944355        52.9086 
 851   0.0000       1.946261        52.9604 
 852   0.0000       1.948623        53.0247 
 853   0.0000       1.952645        53.1342 
 854   0.0000       1.954375        53.1813 
 855   0.0000       1.955097        53.2009 
 856   0.0000       1.955630        53.2154 
 857   0.0000       1.960367        53.3443 
 858   0.0000       1.962023        53.3894 
 859   0.0000       1.966003        53.4977 
 860   0.0000       1.969864        53.6027 
 861   0.0000       1.971656        53.6515 
 862   0.0000       1.975793        53.7640 
 863   0.0000       1.977728        53.8167 
 864   0.0000       1.982254        53.9399 
 865   0.0000       1.984970        54.0138 
 866   0.0000       1.992334        54.2142 
 867   0.0000       1.994004        54.2596 
 868   0.0000       1.997298        54.3492 
 869   0.0000       2.001622        54.4669 
 870   0.0000       2.005163        54.5633 
 871   0.0000       2.007338        54.6224 
 872   0.0000       2.010511        54.7088 
 873   0.0000       2.012102        54.7521 
 874   0.0000       2.017725        54.9051 
 875   0.0000       2.020284        54.9747 
 876   0.0000       2.021061        54.9959 
 877   0.0000       2.024545        55.0907 
 878   0.0000       2.026616        55.1470 
 879   0.0000       2.030352        55.2487 
 880   0.0000       2.034575        55.3636 
 881   0.0000       2.036464        55.4150 
 882   0.0000       2.042573        55.5812 
 883   0.0000       2.047152        55.7058 
 884   0.0000       2.050164        55.7878 
 885   0.0000       2.051157        55.8148 
 886   0.0000       2.056514        55.9606 
 887   0.0000       2.060424        56.0670 
 888   0.0000       2.062593        56.1260 
 889   0.0000       2.066875        56.2425 
 890   0.0000       2.071494        56.3682 
 891   0.0000       2.071759        56.3754 
 892   0.0000       2.075796        56.4853 
 893   0.0000       2.080399        56.6105 
 894   0.0000       2.084421        56.7200 
 895   0.0000       2.086104        56.7658 
 896   0.0000       2.089196        56.8499 
 897   0.0000       2.089914        56.8695 
 898   0.0000       2.091532        56.9135 
 899   0.0000       2.093861        56.9769 
 900   0.0000       2.094189        56.9858 
 901   0.0000       2.103105        57.2284 
 902   0.0000       2.106181        57.3121 
 903   0.0000       2.106858        57.3305 
 904   0.0000       2.111089        57.4456 
 905   0.0000       2.113326        57.5065 
 906   0.0000       2.115833        57.5747 
 907   0.0000       2.116956        57.6053 
 908   0.0000       2.118771        57.6547 
 909   0.0000       2.124714        57.8164 
 910   0.0000       2.126096        57.8540 
 911   0.0000       2.130023        57.9609 
 912   0.0000       2.136881        58.1475 
 913   0.0000       2.138598        58.1942 
 914   0.0000       2.142600        58.3031 
 915   0.0000       2.146100        58.3983 
 916   0.0000       2.150212        58.5102 
 917   0.0000       2.154609        58.6299 
 918   0.0000       2.155152        58.6447 
 919   0.0000       2.160425        58.7882 
 920   0.0000       2.160519        58.7907 
 921   0.0000       2.163560        58.8735 
 922   0.0000       2.167131        58.9706 
 923   0.0000       2.171912        59.1007 
 924   0.0000       2.175669        59.2030 
 925   0.0000       2.182070        59.3771 
 926   0.0000       2.183022        59.4030 
 927   0.0000       2.186382        59.4945 
 928   0.0000       2.190941        59.6185 
[...]
      dz2     :    -0.000003  d :     0.000595
      dxz     :     0.000189
      dyz     :     0.000113
      dx2y2   :     0.000092
      dxy     :     0.000203
 47 H s       :     0.023885  s :     0.023885
      pz      :    -0.000639  p :     0.004181
      px      :     0.004578
      py      :     0.000243
      dz2     :     0.000085  d :     0.000713
      dxz     :    -0.001534
      dyz     :    -0.000329
      dx2y2   :     0.002270
      dxy     :     0.000221
 48 H s       :     0.013620  s :     0.013620
      pz      :    -0.000268  p :    -0.000092
      px      :     0.000590
      py      :    -0.000414
      dz2     :    -0.000111  d :     0.001119
      dxz     :    -0.000333
      dyz     :    -0.000117
      dx2y2   :     0.001911
      dxy     :    -0.000232
 49 H s       :    -0.000598  s :    -0.000598
      pz      :     0.000073  p :     0.000121
      px      :     0.000049
      py      :    -0.000001
      dz2     :    -0.000062  d :     0.000506
      dxz     :     0.000040
      dyz     :     0.000375
      dx2y2   :     0.000005
      dxy     :     0.000148
 50 H s       :    -0.000581  s :    -0.000581
      pz      :     0.000065  p :     0.000472
      px      :     0.000312
      py      :     0.000096
      dz2     :     0.000033  d :     0.000534
      dxz     :     0.000174
      dyz     :     0.000176
      dx2y2   :    -0.000065
      dxy     :     0.000216
 51 Sis       :     0.006613  s :     0.006613
      pz      :     0.012481  p :     0.021770
      px      :     0.009214
      py      :     0.000075
      dz2     :    -0.000064  d :     0.004887
      dxz     :    -0.000588
      dyz     :    -0.000126
      dx2y2   :    -0.000113
      dxy     :     0.005778
      f0      :     0.000122  f :     0.003826
      f+1     :     0.000358
      f-1     :     0.000133
      f+2     :    -0.000159
      f-2     :     0.000753
      f+3     :    -0.000015
      f-3     :     0.002635
 52 H s       :     0.018749  s :     0.018749
      pz      :     0.000335  p :     0.001313
      px      :    -0.000328
      py      :     0.001306
      dz2     :     0.000087  d :     0.001062
      dxz     :    -0.000269
      dyz     :    -0.001002
      dx2y2   :    -0.000081
      dxy     :     0.002327


                      *****************************
                      * MAYER POPULATION ANALYSIS *
                      *****************************

  NA   - Mulliken gross atomic population
  ZA   - Total nuclear charge
  QA   - Mulliken gross atomic charge
  VA   - Mayer's total valence
  BVA  - Mayer's bonded valence
  FA   - Mayer's free valence

  ATOM       NA         ZA         QA         VA         BVA        FA
  0 Si    10.5276    14.0000     3.4724    -2.7026    -2.7027     0.0001
  1 Si    11.5895    14.0000     2.4105    -0.7607    -0.7608     0.0001
  2 Si    11.8563    14.0000     2.1437     0.0337     0.0326     0.0010
  3 C      8.0441     6.0000    -2.0441     2.6627     2.6627     0.0000
  4 H      1.0681     1.0000    -0.0681     1.3019     1.3019    -0.0000
  5 H      0.6699     1.0000     0.3301     1.0514     1.0514     0.0000
  6 H      0.6687     1.0000     0.3313     1.0667     1.0667     0.0000
  7 C      7.6290     6.0000    -1.6290     3.4106     3.4106     0.0000
  8 H      1.0162     1.0000    -0.0162     1.2023     1.2023     0.0000
  9 H      0.7143     1.0000     0.2857     1.1284     1.1284     0.0000
 10 H      0.7178     1.0000     0.2822     1.1319     1.1319     0.0000
 11 C      7.7367     6.0000    -1.7367     3.3857     3.3857     0.0000
 12 H      1.0274     1.0000    -0.0274     1.2803     1.2803     0.0000
 13 H      0.6789     1.0000     0.3211     1.1387     1.1386     0.0001
 14 H      0.6846     1.0000     0.3154     1.1018     1.1018     0.0000
 15 C      7.6815     6.0000    -1.6815     3.5325     3.5325     0.0000
 16 H      0.6699     1.0000     0.3301     1.0478     1.0478     0.0000
 17 H      1.0039     1.0000    -0.0039     1.3132     1.3132    -0.0000
 18 H      0.6994     1.0000     0.3006     1.0591     1.0591     0.0000
 19 C      7.5879     6.0000    -1.5879     3.3758     3.3758     0.0000
 20 H      0.7096     1.0000     0.2904     1.1165     1.1165     0.0000
 21 H      0.9520     1.0000     0.0480     1.1388     1.1388    -0.0000
 22 H      0.7145     1.0000     0.2855     1.1226     1.1226     0.0000
 23 C      7.5297     6.0000    -1.5297     3.3926     3.3926     0.0000
 24 H      0.7299     1.0000     0.2701     1.1368     1.1368    -0.0000
 25 H      0.7266     1.0000     0.2734     1.1368     1.1367     0.0000
 26 H      0.9472     1.0000     0.0528     1.1490     1.1490     0.0000
 27 C      7.3269     6.0000    -1.3269     3.7274     3.7274     0.0000
 28 H      0.7000     1.0000     0.3000     1.1486     1.1486     0.0000
 29 H      0.8335     1.0000     0.1665     0.9927     0.9927     0.0000
 30 H      0.7579     1.0000     0.2421     1.1833     1.1833     0.0000
 31 C      7.4930     6.0000    -1.4930     3.4172     3.4172     0.0000
 32 H      0.9492     1.0000     0.0508     1.1752     1.1752     0.0000
 33 H      0.6789     1.0000     0.3211     1.0537     1.0537     0.0000
 34 H      0.7938     1.0000     0.2062     1.1918     1.1918     0.0000
 35 C      7.6202     6.0000    -1.6202     3.4859     3.4859     0.0000
 36 H      1.0014     1.0000    -0.0014     1.2604     1.2604    -0.0000
 37 H      0.8168     1.0000     0.1832     1.2533     1.2533     0.0000
 38 H      0.6855     1.0000     0.3145     1.0453     1.0453    -0.0000
 39 C      5.9648     6.0000     0.0352     3.7410     3.6784     0.0626
 40 C      6.7311     6.0000    -0.7311     3.6867     2.6831     1.0035
 41 C      6.8546     6.0000    -0.8546     3.9948     3.9936     0.0012
 42 C      6.4970     6.0000    -0.4970     3.6631     3.6403     0.0229
 43 H      1.0060     1.0000    -0.0060     1.2567     1.1583     0.0984
 44 C      6.5401     6.0000    -0.5401     3.7362     3.7365    -0.0003
 45 H      0.6591     1.0000     0.3409     0.8657     0.8657     0.0000
 46 H      0.8606     1.0000     0.1394     1.0391     1.0390     0.0001
 47 H      0.7076     1.0000     0.2924     0.8736     0.8668     0.0069
 48 H      0.7754     1.0000     0.2246     1.1336     1.1321     0.0015
 49 H      0.6710     1.0000     0.3290     0.8036     0.8036     0.0000
 50 H      0.7294     1.0000     0.2706     1.2060     1.2060     0.0000
 51 Si    11.9894    14.0000     2.0106     1.3312     1.3213     0.0099
 52 H      0.7754     1.0000     0.2246     0.0749     0.0545     0.0204

  Mayer bond orders larger than 0.100000
B(  0-Si,  1-Si) :   0.5144 B(  0-Si,  2-Si) :   0.3068 B(  0-Si,  3-C ) :  -1.4831 
B(  0-Si,  4-H ) :  -0.2596 B(  0-Si,  7-C ) :  -0.3231 B(  0-Si,  8-H ) :  -0.1615 
B(  0-Si, 11-C ) :  -0.4567 B(  0-Si, 12-H ) :  -0.1630 B(  0-Si, 31-C ) :  -0.1507 
B(  0-Si, 51-Si) :  -0.1576 B(  1-Si,  2-Si) :   0.3327 B(  1-Si,  7-C ) :  -0.1166 
B(  1-Si, 15-C ) :  -0.2316 B(  1-Si, 17-H ) :  -0.1450 B(  1-Si, 19-C ) :  -0.1632 
B(  1-Si, 26-H ) :  -0.1009 B(  1-Si, 39-C ) :  -0.1719 B(  1-Si, 43-H ) :  -0.1700 
B(  1-Si, 51-Si) :  -0.4108 B(  2-Si, 11-C ) :  -0.1467 B(  2-Si, 27-C ) :   0.4583 
B(  2-Si, 31-C ) :  -0.1644 B(  2-Si, 35-C ) :  -0.3024 B(  2-Si, 36-H ) :  -0.1302 
B(  2-Si, 39-C ) :  -0.1120 B(  3-C ,  4-H ) :   1.5326 B(  3-C ,  5-H ) :   1.0412 
B(  3-C ,  6-H ) :   1.0633 B(  3-C , 11-C ) :   0.1012 B(  3-C , 51-Si) :   0.3169 
B(  7-C ,  8-H ) :   1.3297 B(  7-C ,  9-H ) :   1.0573 B(  7-C , 10-H ) :   1.0498 
B(  7-C , 11-C ) :   0.1288 B(  7-C , 51-Si) :   0.2882 B( 11-C , 12-H ) :   1.3916 
B( 11-C , 13-H ) :   1.0415 B( 11-C , 14-H ) :   1.0098 B( 11-C , 51-Si) :   0.3385 
B( 15-C , 16-H ) :   0.9866 B( 15-C , 17-H ) :   1.3554 B( 15-C , 18-H ) :   1.0392 
B( 15-C , 19-C ) :   0.1836 B( 15-C , 51-Si) :   0.1452 B( 19-C , 20-H ) :   1.0520 
B( 19-C , 21-H ) :   1.2206 B( 19-C , 22-H ) :   1.0589 B( 23-C , 24-H ) :   1.0604 
B( 23-C , 25-H ) :   1.0649 B( 23-C , 26-H ) :   1.2216 B( 27-C , 28-H ) :   1.0192 
B( 27-C , 29-H ) :   0.9933 B( 27-C , 30-H ) :   1.0860 B( 27-C , 35-C ) :   0.1946 
B( 27-C , 51-Si) :  -0.1849 B( 31-C , 32-H ) :   1.2364 B( 31-C , 33-H ) :   0.9821 
B( 31-C , 34-H ) :   1.1033 B( 31-C , 51-Si) :   0.2509 B( 35-C , 36-H ) :   1.2832 
B( 35-C , 37-H ) :   1.1779 B( 35-C , 38-H ) :   0.9994 B( 35-C , 51-Si) :   0.1281 
B( 39-C , 40-C ) :   1.1095 B( 39-C , 41-C ) :   0.7635 B( 39-C , 44-C ) :   0.1364 
B( 39-C , 51-Si) :   0.8955 B( 39-C , 52-H ) :   1.1210 B( 40-C , 41-C ) :   0.1662 
B( 40-C , 42-C ) :   0.4074 B( 40-C , 43-H ) :   1.3469 B( 40-C , 47-H ) :  -0.1267 
B( 40-C , 51-Si) :   0.1636 B( 40-C , 52-H ) :  -0.4720 B( 41-C , 42-C ) :   0.2880 
B( 41-C , 44-C ) :   0.9451 B( 41-C , 45-H ) :   0.9384 B( 41-C , 46-H ) :   1.0822 
B( 41-C , 50-H ) :   0.1026 B( 41-C , 51-Si) :  -0.1504 B( 41-C , 52-H ) :  -0.1642 
B( 42-C , 44-C ) :   0.9316 B( 42-C , 47-H ) :   0.9664 B( 42-C , 48-H ) :   0.9898 
B( 43-H , 51-Si) :   0.1986 B( 43-H , 52-H ) :  -0.1073 B( 44-C , 49-H ) :   0.9226 
B( 44-C , 50-H ) :   1.0092 B( 45-H , 51-Si) :  -0.1921 B( 51-Si, 52-H ) :  -0.2255 


-------
TIMINGS
-------

Total SCF time: 0 days 2 hours 47 min 27 sec 

Total time                  ....   10047.654 sec
Sum of individual times     ....   10040.252 sec  ( 99.9%)

Fock matrix formation       ....    9998.661 sec  ( 99.5%)
Diagonalization             ....      14.699 sec  (  0.1%)
Density matrix formation    ....       1.493 sec  (  0.0%)
Population analysis         ....       3.060 sec  (  0.0%)
Initial guess               ....       2.017 sec  (  0.0%)
Orbital Transformation      ....       0.000 sec  (  0.0%)
Orbital Orthonormalization  ....       0.000 sec  (  0.0%)
DIIS solution               ....      20.040 sec  (  0.2%)


           ************************************************************
           *        Program running with 32 parallel MPI-processes    *
           *              working on a common directory               *
           ************************************************************

------------------------------------------------------------------------------
                                ORCA  MP2 
------------------------------------------------------------------------------

Freezing NCore=68 chemical core electrons

-------------
RI-MP2 ENERGY
-------------
Dimension of the basis                    ... 1649
Memory devoted to MP2                     ... 4500 MB   
Data format for buffers                   ... DOUBLE
Compression type for matrix containers    ... UNCOMPRESSED
Overall scaling of the MP2 energy         ...   1.000e+00
Calculating two index integrals           ... done (    0.213 sec)
Cholesky decomposition of V**-1           ... done (    1.222 sec)

-----------------
RI-TRANSFORMATION (AUX index driven)
-----------------

Dimension of the orbital-basis         ... 1649
Dimension of the aux-basis             ... 3682
Transformation of internal/external MOs...   34-  87 to   88-1648
Number Format for Storage              ... Double (8 Byte)
Integral mode                          ... Direct

First Phase: integral generation and transformation of MO indices
  Aux angular momentum 0               ... done (    1.123 sec)
  Aux angular momentum 1               ... done (    2.127 sec)
  Aux angular momentum 2               ... done (    2.944 sec)
  Aux angular momentum 3               ... done (    2.916 sec)
  Aux angular momentum 4               ... done (    1.385 sec)
Closing buffer VIA ( 2.31 GB; CompressionRatio= 1.00)
  Phase 1 completed in    10.854 sec
Second Phase: sorting and transformation of aux index

IA-Transformation
Memory available                       ... 4097 MB 
Max. # MO pairs treated in a batch     ... 2    
# of internal orbitals                 ... 54
# batches for internal orbitals        ... 1
Closing buffer IAV ( 0.09 GB; CompressionRatio= 1.00)
(ia|v) transformation done in     3.465 sec

  Phase 2 completed in     7.895 sec
RI-Integral transformation completed in    18.763 sec

-----------------
RI-TRANSFORMATION (AUX index driven)
-----------------

Dimension of the orbital-basis         ... 1649
Dimension of the aux-basis             ... 3682
Transformation of internal/external MOs...   34-  86 to   87-1648
Number Format for Storage              ... Double (8 Byte)
Integral mode                          ... Direct

First Phase: integral generation and transformation of MO indices
  Aux angular momentum 0               ... done (    1.633 sec)
  Aux angular momentum 1               ... done (    2.208 sec)
  Aux angular momentum 2               ... done (    2.970 sec)
  Aux angular momentum 3               ... done (    2.927 sec)
  Aux angular momentum 4               ... done (    1.444 sec)
Closing buffer VIA ( 2.27 GB; CompressionRatio= 1.00)
  Phase 1 completed in    11.456 sec
Second Phase: sorting and transformation of aux index

IA-Transformation
Memory available                       ... 4097 MB 
Max. # MO pairs treated in a batch     ... 2    
# of internal orbitals                 ... 53
# batches for internal orbitals        ... 1
Closing buffer IAV ( 0.09 GB; CompressionRatio= 1.00)
(ia|v) transformation done in     3.455 sec

  Phase 2 completed in     7.113 sec
RI-Integral transformation completed in    18.583 sec
Opening buffers                              ... done

Starting loop over batches of integrals:

Operator 0  - window                       ... ( 34- 87)x( 88-1648)
Operator 0  - Memory available             ...  4500 MB
Operator 0  - Memory needed per MO         ...  43.9 MB
Operator 0  - Number of orbitals per batch ... 2
Operator 0  - Number of batches            ... 1

OPERATOR  0   PASS   0:  MOs    34 ...   35 +   36 ...   37 +   38 ...   39 +   40 ...   41
                            +   42 ...   43 +   44 ...   45 +   46 ...   47 +   48 ...   49
                            +   50 ...   51 +   52 ...   53 +   54 ...   55 +   56 ...   57
                            +   58 ...   59 +   60 ...   61 +   62 ...   63 +   64 ...   65
                            +   66 ...   67 +   68 ...   69 +   70 ...   71 +   72 ...   73
                            +   74 ...   75 +   76 ...   77 +   78 ...   79 +   80 ...   81
                            +   82 ...   83 +   84 ...   85 +   86 ...   87
  Reading integrals       ... ok

Operator 1  - window                       ... ( 34- 86)x( 87-1648)
Operator 1  - Memory available             ...  4500 MB
Operator 1  - Memory needed per MO         ...  43.9 MB
Operator 1  - Number of orbitals per batch ... 2
Operator 1  - Number of batches            ... 1

OPERATOR  1   PASS   0:  MOs    34 ...   35 +   36 ...   37 +   38 ...   39 +   40 ...   41
                            +   42 ...   43 +   44 ...   45 +   46 ...   47 +   48 ...   49
                            +   50 ...   51 +   52 ...   53 +   54 ...   55 +   56 ...   57
                            +   58 ...   59 +   60 ...   61 +   62 ...   63 +   64 ...   65
                            +   66 ...   67 +   68 ...   69 +   70 ...   71 +   72 ...   73
                            +   74 ...   75 +   76 ...   77 +   78 ...   79 +   80 ...   81
                            +   82 ...   83 +   84 ...   85 +   86 ...   86
  Reading integrals       ... ok
Time spent in pair loops =   124.285 sec
Deleting buffer (Ka|jb)[aa] ...done
Deleting buffer (Ka|jb)[ab] ...done
Deleting buffer (Ka|jb)[ba] ...done
Deleting buffer (Ka|jb)[bb] ...done

Correlation energy components}
 E2 and T2 for alpha/alpha pairs :     -0.342267017 Eh      0.000000000
 E2 and T2 for beta/beta   pairs :     -0.327903560 Eh      0.000000000
 E2 and T2 for alpha/beta  pairs :     -2.338667376 Eh      0.000000000


-----------------------------------------------
 RI-MP2 CORRELATION ENERGY:     -3.008837953 Eh
-----------------------------------------------


-------
TIMINGS
-------

Total time                :  201.440 sec
Integral trafo            :   37.387 sec ( 18.6%)
I/O of integrals          :    0.225 sec (  0.1%)
K(i,j) Operators          :   75.730 sec ( 37.6%)
T(i,j) pair energies      :    2.665 sec (  1.3%)
V-calculation             :    0.213 sec (  0.1%)
V**(-1/2)                 :    1.222 sec (  0.6%)
Gamma(ia|P)               :    0.000 sec (  0.0%)
Gamma-Trafo               :    0.000 sec (  0.0%)
D(virtual)                :    0.000 sec (  0.0%)
D(internal)               :    0.000 sec (  0.0%)
W(virtual)                :    0.000 sec (  0.0%)
W(internal)               :    0.000 sec (  0.0%)
L(virtual)                :    0.000 sec (  0.0%)
L(internal)               :    0.000 sec (  0.0%)
G(D)                      :    0.000 sec (  0.0%)
G(Z)                      :    0.000 sec (  0.0%)
Z-Vector Solution         :    0.000 sec (  0.0%)
3-Index Derivative        :    0.000 sec (  0.0%)
2-Index Derivative        :    0.000 sec (  0.0%)
Separable Gradient        :    0.000 sec (  0.0%)


---------------------------------------
MP2 TOTAL ENERGY:    -1709.579711051 Eh
---------------------------------------

-------------------------   --------------------
FINAL SINGLE POINT ENERGY     -1709.579711050647
-------------------------   --------------------


                            ***************************************
                            *     ORCA property calculations      *
                            ***************************************


  WARNING: The energy has been calculated at the MP2 level but the densities
           used in the property calculations are still SCF densities
           MP2 response densities have not been calculated 
           use %mp2 Density relaxed end
           or  %mp2 Density unrelaxed end

                                    ---------------------
                                    Active property flags
                                    ---------------------
   (+) Dipole Moment


------------------------------------------------------------------------------
                       ORCA ELECTRIC PROPERTIES CALCULATION
------------------------------------------------------------------------------

Dipole Moment Calculation                       ... on
Quadrupole Moment Calculation                   ... off
Polarizability Calculation                      ... off
GBWName                                         ... /tmp/pbs.2148704.pbsha.ib.sockeye/MP2augccpVTZ_06_31P.gbw
Electron density file                           ... /tmp/pbs.2148704.pbsha.ib.sockeye/MP2augccpVTZ_06_31P.scfp
The origin for moment calculation is the CENTER OF MASS  = ( 0.005943,  0.004606 -0.015880)

-------------
DIPOLE MOMENT
-------------
                                X             Y             Z
Electronic contribution:      1.11816       0.75093      -2.85713
Nuclear contribution   :     -1.04006      -0.80596       2.77899
                        -----------------------------------------
Total Dipole Moment    :      0.07811      -0.05504      -0.07814
                        -----------------------------------------
Magnitude (a.u.)       :      0.12343
Magnitude (Debye)      :      0.31375



--------------------
Rotational spectrum 
--------------------
 
Rotational constants in cm-1:     0.009725     0.008617     0.007900 
Rotational constants in MHz :   291.544296   258.343473   236.836977 

 Dipole components along the rotational axes: 
x,y,z [a.u.] :     0.078206     0.054971    -0.078090 
x,y,z [Debye]:     0.198785     0.139726    -0.198489 

 

Timings for individual modules:

Sum of individual times         ...    10261.010 sec (= 171.017 min)
GTO integral calculation        ...        6.718 sec (=   0.112 min)   0.1 %
SCF iterations                  ...    10049.292 sec (= 167.488 min)  97.9 %
MP2 module                      ...      205.000 sec (=   3.417 min)   2.0 %
                             ****ORCA TERMINATED NORMALLY****
TOTAL RUN TIME: 0 days 2 hours 51 minutes 3 seconds 234 msec
