
                                 *****************
                                 * O   R   C   A *
                                 *****************

           --- An Ab Initio, DFT and Semiempirical electronic structure package ---

                  #######################################################
                  #                        -***-                        #
                  #          Department of theory and spectroscopy      #
                  #               Directorship: Frank Neese             #
                  #        Max Planck Institute fuer Kohlenforschung    #
                  #                Kaiser Wilhelm Platz 1               #
                  #                 D-45470 Muelheim/Ruhr               #
                  #                      Germany                        #
                  #                                                     #
                  #                  All rights reserved                #
                  #                        -***-                        #
                  #######################################################


                         Program Version 4.2.1 -  RELEASE  -


 With contributions from (in alphabetic order):
   Daniel Aravena         : Magnetic Suceptibility
   Michael Atanasov       : Ab Initio Ligand Field Theory (pilot matlab implementation)
   Alexander A. Auer      : GIAO ZORA, VPT2
   Ute Becker             : Parallelization
   Giovanni Bistoni       : ED, misc. LED, open-shell LED, HFLD
   Martin Brehm           : Molecular dynamics
   Dmytro Bykov           : SCF Hessian
   Vijay G. Chilkuri      : MRCI spin determinant printing, contributions to CSF-ICE
   Dipayan Datta          : RHF DLPNO-CCSD density
   Achintya Kumar Dutta   : EOM-CC, STEOM-CC
   Dmitry Ganyushin       : Spin-Orbit,Spin-Spin,Magnetic field MRCI
   Miquel Garcia          : C-PCM Hessian, Gaussian charge scheme
   Yang Guo               : DLPNO-NEVPT2, CIM, IAO-localization
   Andreas Hansen         : Spin unrestricted coupled pair/coupled cluster methods
   Benjamin Helmich-Paris : CASSCF linear response (MC-RPA)
   Lee Huntington         : MR-EOM, pCC
   Robert Izsak           : Overlap fitted RIJCOSX, COSX-SCS-MP3, EOM
   Christian Kollmar      : KDIIS, OOCD, Brueckner-CCSD(T), CCSD density
   Simone Kossmann        : Meta GGA functionals, TD-DFT gradient, OOMP2, MP2 Hessian
   Martin Krupicka        : AUTO-CI
   Lucas Lang             : DCDCAS
   Dagmar Lenk            : GEPOL surface, SMD
   Dimitrios Liakos       : Extrapolation schemes; Compound Job, initial MDCI parallelization
   Dimitrios Manganas     : Further ROCIS development; embedding schemes
   Dimitrios Pantazis     : SARC Basis sets
   Taras Petrenko         : DFT Hessian,TD-DFT gradient, ASA, ECA, R-Raman, ABS, FL, XAS/XES, NRVS
   Peter Pinski           : DLPNO-MP2, DLPNO-MP2 Gradient
   Christoph Reimann      : Effective Core Potentials
   Marius Retegan         : Local ZFS, SOC
   Christoph Riplinger    : Optimizer, TS searches, QM/MM, DLPNO-CCSD(T), (RO)-DLPNO pert. Triples
   Tobias Risthaus        : Range-separated hybrids, TD-DFT gradient, RPA, STAB
   Michael Roemelt        : Original ROCIS implementation
   Masaaki Saitow         : Open-shell DLPNO-CCSD energy and density
   Barbara Sandhoefer     : DKH picture change effects
   Avijit Sen             : IP-ROCIS
   Kantharuban Sivalingam : CASSCF convergence, NEVPT2, FIC-MRCI
   Bernardo de Souza      : ESD, SOC TD-DFT
   Georgi Stoychev        : AutoAux, RI-MP2 NMR
   Willem Van den Heuvel  : Paramagnetic NMR
   Boris Wezisla          : Elementary symmetry handling
   Frank Wennmohs         : Technical directorship


 We gratefully acknowledge several colleagues who have allowed us to
 interface, adapt or use parts of their codes:
   Stefan Grimme, W. Hujo, H. Kruse,             : VdW corrections, initial TS optimization,
                  C. Bannwarth                     DFT functionals, gCP, sTDA/sTD-DF
   Ed Valeev, F. Pavosevic, A. Kumar             : LibInt (2-el integral package), F12 methods
   Garnet Chan, S. Sharma, J. Yang, R. Olivares  : DMRG
   Ulf Ekstrom                                   : XCFun DFT Library
   Mihaly Kallay                                 : mrcc  (arbitrary order and MRCC methods)
   Andreas Klamt, Michael Diedenhofen            : otool_cosmo (COSMO solvation model)
   Jiri Pittner, Ondrej Demel                    : Mk-CCSD
   Frank Weinhold                                : gennbo (NPA and NBO analysis)
   Christopher J. Cramer and Donald G. Truhlar   : smd solvation model
   Lars Goerigk                                  : TD-DFT with DH, B97 family of functionals
   V. Asgeirsson, H. Jonsson                     : NEB implementation
   FAccTs GmbH                                   : IRC, NEB, NEB-TS, Multilevel, MM, QM/MM, CI optimization
   S Lehtola, MJT Oliveira, MAL Marques          : LibXC Library


 Your calculation uses the libint2 library for the computation of 2-el integrals
 For citations please refer to: http://libint.valeyev.net

 Your ORCA version has been built with support for libXC version: 4.2.3
 For citations please refer to: https://tddft.org/programs/libxc/

 This ORCA versions uses:
   CBLAS   interface :  Fast vector & matrix operations
   LAPACKE interface :  Fast linear algebra routines
   SCALAPACK package :  Parallel linear algebra routines




***************************************
The coordinates will be read from file: 10_9TS.xyz
***************************************


----- Orbital basis set information -----
Your calculation utilizes the basis: aug-cc-pVTZ 
    H, B-Ne : Obtained from the ccRepo (grant-hill.group.shef.ac.uk/ccrepo) Feb. 2017
              R. A. Kendall, T. H. Dunning, Jr., R. J. Harrison, J. Chem. Phys. 96, 6796 (1992)
         He : Obtained from the ccRepo (grant-hill.group.shef.ac.uk/ccrepo) Feb. 2017
              D. E. Woon, T. H. Dunning, Jr., J. Chem. Phys. 100, 2975 (1994)
  Li-Be, Na : Obtained from the ccRepo (grant-hill.group.shef.ac.uk/ccrepo) Feb. 2017
              B. P. Prascher, D. E. Woon, K. A. Peterson, T. H. Dunning, Jr., A. K. Wilson, Theor. Chem. Acc. 128, 69 (2011)
         Mg : Obtained from the Peterson Research Group Website (tyr0.chem.wsu.edu/~kipeters) Feb. 2017
              B. P. Prascher, D. E. Woon, K. A. Peterson, T. H. Dunning, Jr., A. K. Wilson, Theor. Chem. Acc. 128, 69 (2011)
      Al-Ar : Obtained from the ccRepo (grant-hill.group.shef.ac.uk/ccrepo) Feb. 2017
              D. E. Woon, T. H. Dunning, Jr., J. Chem. Phys. 98, 1358 (1993)
      Sc-Zn : Obtained from the ccRepo (grant-hill.group.shef.ac.uk/ccrepo) Feb. 2017
              N. B. Balabanov, K. A. Peterson, J. Chem. Phys. 123, 064107 (2005)
              N. B. Balabanov, K. A. Peterson, J. Chem. Phys. 125, 074110 (2006)
      Ga-Kr : Obtained from the ccRepo (grant-hill.group.shef.ac.uk/ccrepo) Feb. 2017
              A. K. Wilson, D. E. Woon, K. A. Peterson, T. H. Dunning, Jr., J. Chem. Phys. 110, 7667 (1999)
     Ag, Au : Obtained from the Peterson Research Group Website (tyr0.chem.wsu.edu/~kipeters) Feb. 2017
              K. A. Peterson, C. Puzzarini, Theor. Chem. Acc. 114, 283 (2005)

----- AuxC basis set information -----
Your calculation utilizes the auxiliary basis: aug-cc-pVTZ/C 
  H-He, B-F, Al-Ar, Ga-Kr : Obtained from the EMSL Basis Set Exchange (bse.pnl.gov) Feb. 2017
                            F. Weigend, A. Kohn, C. Hattig, J. Chem. Phys. 116, 3175 (2002)
                   Be, Mg : Obtained from the TURBOMOLE 7.0 basis set library
                            C. Haettig, Phys. Chem. Chem. Phys. 7, 59 (2005)
                       Ne : Obtained from the EMSL Basis Set Exchange (bse.pnl.gov) Feb. 2017
                            C. Haettig, Phys. Chem. Chem. Phys. 7, 59 (2005)
                            F. Weigend, A. Kohn, C. Hattig, J. Chem. Phys. 116, 3175 (2002)
                    Sc-Zn : Obtained from the EMSL Basis Set Exchange (bse.pnl.gov) Feb. 2017
                            J. G. Hill, J. A. Platts, J. Chem. Phys. 128, 044104 (2008)

================================================================================
                                        WARNINGS
                       Please study these warnings very carefully!
================================================================================


WARNING: No MP2 level density has been requested!
         To caclulate MP2 level properties use
         %mp2 Density relaxed end
         or
         %mp2 Density unrelaxed end

WARNING: Post HF methods need fully converged wavefunctions
  ===> : Setting SCFConvForced true
         You can overwrite this default with %scf ConvForced false 


INFO   : the flag for use of LIBINT has been found!

================================================================================
                                       INPUT FILE
================================================================================
NAME = /tmp/pbs.2149271.pbsha.ib.sockeye/MP2augccpVTZ_10_9TS.inp
|  1> %pal
|  2>  nprocs 32
|  3> end
|  4> !RI-MP2 aug-cc-pVTZ aug-cc-pVTZ/C TightSCF
|  5> %maxcore 4500
|  6> *xyzfile 0 1  10_9TS.xyz
|  7> 
|  8> 
|  9>                          ****END OF INPUT****
================================================================================

                       ****************************
                       * Single Point Calculation *
                       ****************************

---------------------------------
CARTESIAN COORDINATES (ANGSTROEM)
---------------------------------
  C      1.323707    0.161025    0.138253
  C      0.423527    1.104460    0.400241
  N      0.016316   -1.458064   -0.640124
  N     -0.991308   -0.919779   -0.494933
  N     -1.487491    0.194069   -0.212268
  C     -2.706635    0.219679    0.583919
  H     -2.604953   -0.344340    1.516270
  H     -2.900998    1.264160    0.819716
  H     -3.558412   -0.165367    0.019201
  H      0.020850    1.717338    1.187593
  C      1.180839    1.254350   -0.878850
  H      1.949939    2.026195   -0.952328
  H      0.676615    1.052491   -1.823050
  C      2.386766   -0.674211    0.746827
  H      2.041762   -1.127250    1.678079
  H      2.700917   -1.471721    0.072702
  H      3.262440   -0.056898    0.970751

----------------------------
CARTESIAN COORDINATES (A.U.)
----------------------------
  NO LB      ZA    FRAG     MASS         X           Y           Z
   0 C     6.0000    0    12.011    2.501444    0.304293    0.261260
   1 C     6.0000    0    12.011    0.800350    2.087127    0.756346
   2 N     7.0000    0    14.007    0.030833   -2.755342   -1.209659
   3 N     7.0000    0    14.007   -1.873301   -1.738130   -0.935288
   4 N     7.0000    0    14.007   -2.810951    0.366737   -0.401128
   5 C     6.0000    0    12.011   -5.114799    0.415133    1.103447
   6 H     1.0000    0     1.008   -4.922648   -0.650708    2.865335
   7 H     1.0000    0     1.008   -5.482092    2.388916    1.549039
   8 H     1.0000    0     1.008   -6.724424   -0.312498    0.036285
   9 H     1.0000    0     1.008    0.039401    3.245298    2.244226
  10 C     6.0000    0    12.011    2.231462    2.370378   -1.660786
  11 H     1.0000    0     1.008    3.684851    3.828954   -1.799639
  12 H     1.0000    0     1.008    1.278617    1.988920   -3.445065
  13 C     6.0000    0    12.011    4.510334   -1.274074    1.411298
  14 H     1.0000    0     1.008    3.858371   -2.130194    3.171110
  15 H     1.0000    0     1.008    5.103993   -2.781150    0.137387
  16 H     1.0000    0     1.008    6.165118   -0.107522    1.834454

--------------------------------
INTERNAL COORDINATES (ANGSTROEM)
--------------------------------
 C      0   0   0     0.000000000000     0.00000000     0.00000000
 C      1   0   0     1.330049376440     0.00000000     0.00000000
 N      1   2   0     2.221844092400   100.81581504     0.00000000
 N      3   1   2     1.151580345908    97.47392259   357.54979843
 N      4   3   1     1.251700618686   142.30504527     9.89650151
 C      5   4   3     1.456324724711   118.09640235   215.89214353
 H      6   5   4     1.094410822628   112.26629122    53.85695116
 H      6   5   4     1.088263644683   106.54970466   173.18941460
 H      6   5   4     1.092103886711   111.34721383   290.87538503
 H      2   1   3     1.075960678239   143.27075816   120.80534309
 C      2   1   3     1.494008789708    63.86125183   259.93406809
 H     11   2   1     1.092089067114   119.04476574   253.31635629
 H     11   2   1     1.089266972811   119.26761445   106.80989457
 C      1   2   3     1.482590950550   143.51736842   238.39378169
 H     14   1   2     1.091559610393   110.93974243    47.53441644
 H     14   1   2     1.090485014352   111.39631162   168.33716086
 H     14   1   2     1.094542028440   109.87040359   287.93268749

---------------------------
INTERNAL COORDINATES (A.U.)
---------------------------
 C      0   0   0     0.000000000000     0.00000000     0.00000000
 C      1   0   0     2.513429066065     0.00000000     0.00000000
 N      1   2   0     4.198676846906   100.81581504     0.00000000
 N      3   1   2     2.176171474973    97.47392259   357.54979843
 N      4   3   1     2.365371370976   142.30504527     9.89650151
 C      5   4   3     2.752054891762   118.09640235   215.89214353
 H      6   5   4     2.068136732767   112.26629122    53.85695116
 H      6   5   4     2.056520249954   106.54970466   173.18941460
 H      6   5   4     2.063777255675   111.34721383   290.87538503
 H      2   1   3     2.033271012740   143.27075816   120.80534309
 C      2   1   3     2.823267454219    63.86125183   259.93406809
 H     11   2   1     2.063749250694   119.04476574   253.31635629
 H     11   2   1     2.058416265338   119.26761445   106.80989457
 C      1   2   3     2.801690865170   143.51736842   238.39378169
 H     14   1   2     2.062748722492   110.93974243    47.53441644
 H     14   1   2     2.060718030270   111.39631162   168.33716086
 H     14   1   2     2.068384675818   109.87040359   287.93268749

---------------------
BASIS SET INFORMATION
---------------------
There are 3 groups of distinct atoms

 Group   1 Type C   : 19s6p3d2f contracted to 5s4p3d2f pattern {88111/3111/111/11}
 Group   2 Type N   : 19s6p3d2f contracted to 5s4p3d2f pattern {88111/3111/111/11}
 Group   3 Type H   : 6s3p2d contracted to 4s3p2d pattern {3111/111/11}

Atom   0C    basis set group =>   1
Atom   1C    basis set group =>   1
Atom   2N    basis set group =>   2
Atom   3N    basis set group =>   2
Atom   4N    basis set group =>   2
Atom   5C    basis set group =>   1
Atom   6H    basis set group =>   3
Atom   7H    basis set group =>   3
Atom   8H    basis set group =>   3
Atom   9H    basis set group =>   3
Atom  10C    basis set group =>   1
Atom  11H    basis set group =>   3
Atom  12H    basis set group =>   3
Atom  13C    basis set group =>   1
Atom  14H    basis set group =>   3
Atom  15H    basis set group =>   3
Atom  16H    basis set group =>   3
---------------------------------
AUXILIARY/C BASIS SET INFORMATION
---------------------------------
There are 3 groups of distinct atoms

 Group   1 Type C   : 9s7p6d4f2g contracted to 9s7p6d4f2g pattern {111111111/1111111/111111/1111/11}
 Group   2 Type N   : 9s7p6d4f2g contracted to 9s7p6d4f2g pattern {111111111/1111111/111111/1111/11}
 Group   3 Type H   : 5s4p3d2f contracted to 5s4p3d2f pattern {11111/1111/111/11}

Atom   0C    basis set group =>   1
Atom   1C    basis set group =>   1
Atom   2N    basis set group =>   2
Atom   3N    basis set group =>   2
Atom   4N    basis set group =>   2
Atom   5C    basis set group =>   1
Atom   6H    basis set group =>   3
Atom   7H    basis set group =>   3
Atom   8H    basis set group =>   3
Atom   9H    basis set group =>   3
Atom  10C    basis set group =>   1
Atom  11H    basis set group =>   3
Atom  12H    basis set group =>   3
Atom  13C    basis set group =>   1
Atom  14H    basis set group =>   3
Atom  15H    basis set group =>   3
Atom  16H    basis set group =>   3


           ************************************************************
           *        Program running with 32 parallel MPI-processes    *
           *              working on a common directory               *
           ************************************************************
------------------------------------------------------------------------------
                           ORCA GTO INTEGRAL CALCULATION
------------------------------------------------------------------------------

                         BASIS SET STATISTICS AND STARTUP INFO

 # of primitive gaussian shells          ...  339
 # of primitive gaussian functions       ...  753
 # of contracted shells                  ...  193
 # of contracted basis functions         ...  575
 Highest angular momentum                ...    3
 Maximum contraction depth               ...    8
 Integral package used                   ... LIBINT
 Integral threshhold            Thresh   ...  2.500e-11
 Primitive cut-off              TCut     ...  2.500e-12


------------------------------ INTEGRAL EVALUATION ----------------------------


 * One electron integrals 
 Pre-screening matrix                    ... done
 Shell pair data                         ... done (   0.008 sec)



           ************************************************************
           *        Program running with 32 parallel MPI-processes    *
           *              working on a common directory               *
           ************************************************************
-------------------------------------------------------------------------------
                                 ORCA SCF
-------------------------------------------------------------------------------

------------
SCF SETTINGS
------------
Hamiltonian:
 Ab initio Hamiltonian  Method          .... Hartree-Fock(GTOs)


General Settings:
 Integral files         IntName         .... /tmp/pbs.2149271.pbsha.ib.sockeye/MP2augccpVTZ_10_9TS
 Hartree-Fock type      HFTyp           .... RHF
 Total Charge           Charge          ....    0
 Multiplicity           Mult            ....    1
 Number of Electrons    NEL             ....   60
 Basis Dimension        Dim             ....  575
 Nuclear Repulsion      ENuc            ....    362.4609432504 Eh

Convergence Acceleration:
 DIIS                   CNVDIIS         .... on
   Start iteration      DIISMaxIt       ....    12
   Startup error        DIISStart       ....  0.200000
   # of expansion vecs  DIISMaxEq       ....     5
   Bias factor          DIISBfac        ....   1.050
   Max. coefficient     DIISMaxC        ....  10.000
 Newton-Raphson         CNVNR           .... off
 SOSCF                  CNVSOSCF        .... on
   Start iteration      SOSCFMaxIt      ....   150
   Startup grad/error   SOSCFStart      ....  0.003300
 Level Shifting         CNVShift        .... on
   Level shift para.    LevelShift      ....    0.2500
   Turn off err/grad.   ShiftErr        ....    0.0010
 Zerner damping         CNVZerner       .... off
 Static damping         CNVDamp         .... on
   Fraction old density DampFac         ....    0.7000
   Max. Damping (<1)    DampMax         ....    0.9800
   Min. Damping (>=0)   DampMin         ....    0.0000
   Turn off err/grad.   DampErr         ....    0.1000
 Fernandez-Rico         CNVRico         .... off

SCF Procedure:
 Maximum # iterations   MaxIter         ....   125
 SCF integral mode      SCFMode         .... Direct
   Integral package                     .... LIBINT
 Reset frequency        DirectResetFreq ....    20
 Integral Threshold     Thresh          ....  2.500e-11 Eh
 Primitive CutOff       TCut            ....  2.500e-12 Eh

Convergence Tolerance:
 Convergence Check Mode ConvCheckMode   .... Total+1el-Energy
 Convergence forced     ConvForced      .... 1
 Energy Change          TolE            ....  1.000e-08 Eh
 1-El. energy change                    ....  1.000e-05 Eh
 Orbital Gradient       TolG            ....  1.000e-05
 Orbital Rotation angle TolX            ....  1.000e-05
 DIIS Error             TolErr          ....  5.000e-07


Diagonalization of the overlap matrix:
Smallest eigenvalue                        ... 2.618e-06
Time for diagonalization                   ...    0.057 sec
Threshold for overlap eigenvalues          ... 1.000e-08
Number of eigenvalues below threshold      ... 0
Time for construction of square roots      ...    0.058 sec
Total time needed                          ...    0.117 sec

-------------------
DFT GRID GENERATION
-------------------

General Integration Accuracy     IntAcc      ...  4.340
Radial Grid Type                 RadialGrid  ... Gauss-Chebyshev
Angular Grid (max. acc.)         AngularGrid ... Lebedev-110
Angular grid pruning method      GridPruning ... 3 (G Style)
Weight generation scheme         WeightScheme... Becke
Basis function cutoff            BFCut       ...    1.0000e-11
Integration weight cutoff        WCut        ...    1.0000e-14
Grids for H and He will be reduced by one unit

# of grid points (after initial pruning)     ...  20532 (   0.0 sec)
# of grid points (after weights+screening)   ...  19097 (   0.0 sec)
nearest neighbour list constructed           ...    0.0 sec
Grid point re-assignment to atoms done       ...    0.0 sec
Grid point division into batches done        ...    0.0 sec
Reduced shell lists constructed in    0.0 sec

Total number of grid points                  ...    19097
Total number of batches                      ...      306
Average number of points per batch           ...       62
Average number of grid points per atom       ...     1123
Average number of shells per batch           ...   157.00 (81.35%)
Average number of basis functions per batch  ...   465.55 (80.96%)
Average number of large shells per batch     ...   137.64 (87.67%)
Average number of large basis fcns per batch ...   411.27 (88.34%)
Maximum spatial batch extension              ...   2.31,  2.47,  2.29 au
Average spatial batch extension              ...   0.06,  0.07,  0.06 au

Time for grid setup =    0.054 sec

------------------------------
INITIAL GUESS: MODEL POTENTIAL
------------------------------
Loading Hartree-Fock densities                     ... done
Calculating cut-offs                               ... done
Setting up the integral package                    ... done
Initializing the effective Hamiltonian             ... done
Starting the Coulomb interaction                   ... done (   0.0 sec)
Reading the grid                                   ... done
Mapping shells                                     ... done
Starting the XC term evaluation                    ... done (   0.0 sec)
Transforming the Hamiltonian                       ... done (   0.0 sec)
Diagonalizing the Hamiltonian                      ... done (   0.1 sec)
Back transforming the eigenvectors                 ... done (   0.0 sec)
Now organizing SCF variables                       ... done
                      ------------------
                      INITIAL GUESS DONE (   0.4 sec)
                      ------------------
--------------
SCF ITERATIONS
--------------
ITER       Energy         Delta-E        Max-DP      RMS-DP      [F,P]     Damp
               ***  Starting incremental Fock matrix formation  ***
  0   -357.4367071433   0.000000000000 0.07408139  0.00076815  0.2280439 0.7000
  1   -357.5627013623  -0.125994218971 0.05194981  0.00061794  0.1486447 0.7000
                               ***Turning on DIIS***
  2   -357.6401900571  -0.077488694853 0.03667495  0.00044613  0.1019944 0.7000
  3   -358.4678784312  -0.827688374028 0.09332674  0.00112978  0.0738341 0.0000
  4   -357.7228019190   0.745076512165 0.02319742  0.00015708  0.0076580 0.0000
  5   -357.7910536394  -0.068251720384 0.00975411  0.00008112  0.0071427 0.0000
                      *** Initiating the SOSCF procedure ***
                           *** Shutting down DIIS ***
                      *** Re-Reading the Fockian *** 
                      *** Removing any level shift *** 
ITER      Energy       Delta-E        Grad      Rot      Max-DP    RMS-DP
  6   -357.79478328  -0.0037296384  0.001969  0.001969  0.003875  0.000036
               *** Restarting incremental Fock matrix formation ***
  7   -357.80474967  -0.0099663873  0.000739  0.001382  0.002227  0.000022
  8   -357.80479513  -0.0000454635  0.000961  0.004093  0.002770  0.000038
  9   -357.80483616  -0.0000410362  0.000335  0.000579  0.000994  0.000010
 10   -357.80484166  -0.0000054904  0.000128  0.000640  0.001466  0.000013
 11   -357.80484450  -0.0000028415  0.000061  0.000145  0.000312  0.000003
 12   -357.80484486  -0.0000003599  0.000027  0.000074  0.000131  0.000002
 13   -357.80484493  -0.0000000764  0.000010  0.000038  0.000053  0.000001
 14   -357.80484494  -0.0000000109  0.000004  0.000018  0.000039  0.000000
 15   -357.80484495  -0.0000000040  0.000003  0.000012  0.000015  0.000000
                  ***Gradient check signals convergence***
              ***Rediagonalizing the Fockian in SOSCF/NRSCF***

               *****************************************************
               *                     SUCCESS                       *
               *           SCF CONVERGED AFTER  16 CYCLES          *
               *****************************************************


----------------
TOTAL SCF ENERGY
----------------

Total Energy       :         -357.80484495 Eh           -9736.36482 eV

Components:
Nuclear Repulsion  :          362.46094325 Eh            9863.06369 eV
Electronic Energy  :         -720.26578820 Eh          -19599.42851 eV
One Electron Energy:        -1202.92405200 Eh          -32733.22758 eV
Two Electron Energy:          482.65826380 Eh           13133.79907 eV

Virial components:
Potential Energy   :         -715.10085193 Eh          -19458.88345 eV
Kinetic Energy     :          357.29600699 Eh            9722.51863 eV
Virial Ratio       :            2.00142414


---------------
SCF CONVERGENCE
---------------

  Last Energy change         ...    2.9244e-09  Tolerance :   1.0000e-08
  Last MAX-Density change    ...    4.7555e-05  Tolerance :   1.0000e-07
  Last RMS-Density change    ...    3.4709e-07  Tolerance :   5.0000e-09
  Last Orbital Gradient      ...    2.1184e-06  Tolerance :   1.0000e-05
  Last Orbital Rotation      ...    8.0929e-06  Tolerance :   1.0000e-05

             **** THE GBW FILE WAS UPDATED (/tmp/pbs.2149271.pbsha.ib.sockeye/MP2augccpVTZ_10_9TS.gbw) ****
             **** DENSITY FILE WAS UPDATED (/tmp/pbs.2149271.pbsha.ib.sockeye/MP2augccpVTZ_10_9TS.scfp) ****
             **** ENERGY FILE WAS UPDATED (/tmp/pbs.2149271.pbsha.ib.sockeye/MP2augccpVTZ_10_9TS.en.tmp) ****
             **** THE GBW FILE WAS UPDATED (/tmp/pbs.2149271.pbsha.ib.sockeye/MP2augccpVTZ_10_9TS.gbw) ****
             **** DENSITY FILE WAS UPDATED (/tmp/pbs.2149271.pbsha.ib.sockeye/MP2augccpVTZ_10_9TS.scfp) ****
----------------
ORBITAL ENERGIES
----------------

  NO   OCC          E(Eh)            E(eV) 
   0   2.0000     -15.727642      -427.9709 
   1   2.0000     -15.656256      -426.0284 
   2   2.0000     -15.610694      -424.7886 
   3   2.0000     -11.272046      -306.7280 
   4   2.0000     -11.241651      -305.9009 
   5   2.0000     -11.232271      -305.6456 
   6   2.0000     -11.225207      -305.4534 
   7   2.0000     -11.223100      -305.3961 
   8   2.0000      -1.476406       -40.1750 
   9   2.0000      -1.249821       -34.0094 
  10   2.0000      -1.154316       -31.4105 
  11   2.0000      -0.986765       -26.8512 
  12   2.0000      -0.972242       -26.4560 
  13   2.0000      -0.811573       -22.0840 
  14   2.0000      -0.750396       -20.4193 
  15   2.0000      -0.731999       -19.9187 
  16   2.0000      -0.698193       -18.9988 
  17   2.0000      -0.677741       -18.4423 
  18   2.0000      -0.655021       -17.8240 
  19   2.0000      -0.622686       -16.9441 
  20   2.0000      -0.588157       -16.0046 
  21   2.0000      -0.576669       -15.6920 
  22   2.0000      -0.570968       -15.5368 
  23   2.0000      -0.568611       -15.4727 
  24   2.0000      -0.545831       -14.8528 
  25   2.0000      -0.458660       -12.4808 
  26   2.0000      -0.439836       -11.9685 
  27   2.0000      -0.400356       -10.8942 
  28   2.0000      -0.367551       -10.0016 
  29   2.0000      -0.311103        -8.4655 
  30   0.0000       0.026135         0.7112 
  31   0.0000       0.034184         0.9302 
  32   0.0000       0.037824         1.0293 
  33   0.0000       0.039661         1.0792 
  34   0.0000       0.051263         1.3949 
  35   0.0000       0.052614         1.4317 
  36   0.0000       0.056898         1.5483 
  37   0.0000       0.062959         1.7132 
  38   0.0000       0.067363         1.8330 
  39   0.0000       0.088028         2.3954 
  40   0.0000       0.094706         2.5771 
  41   0.0000       0.095135         2.5888 
  42   0.0000       0.107867         2.9352 
  43   0.0000       0.109879         2.9900 
  44   0.0000       0.115235         3.1357 
  45   0.0000       0.122642         3.3373 
  46   0.0000       0.124543         3.3890 
  47   0.0000       0.131118         3.5679 
  48   0.0000       0.134533         3.6608 
  49   0.0000       0.136896         3.7251 
  50   0.0000       0.140437         3.8215 
  51   0.0000       0.143729         3.9111 
  52   0.0000       0.149217         4.0604 
  53   0.0000       0.151980         4.1356 
  54   0.0000       0.156414         4.2562 
  55   0.0000       0.161615         4.3978 
  56   0.0000       0.169561         4.6140 
  57   0.0000       0.174335         4.7439 
  58   0.0000       0.177534         4.8309 
  59   0.0000       0.184319         5.0156 
  60   0.0000       0.194168         5.2836 
  61   0.0000       0.200403         5.4532 
  62   0.0000       0.206905         5.6302 
  63   0.0000       0.217939         5.9304 
  64   0.0000       0.224105         6.0982 
  65   0.0000       0.229846         6.2544 
  66   0.0000       0.236450         6.4341 
  67   0.0000       0.241552         6.5730 
  68   0.0000       0.248002         6.7485 
  69   0.0000       0.258642         7.0380 
  70   0.0000       0.261644         7.1197 
  71   0.0000       0.265788         7.2325 
  72   0.0000       0.271747         7.3946 
  73   0.0000       0.277066         7.5394 
  74   0.0000       0.292805         7.9676 
  75   0.0000       0.298363         8.1189 
  76   0.0000       0.302363         8.2277 
  77   0.0000       0.307408         8.3650 
  78   0.0000       0.311615         8.4795 
  79   0.0000       0.316165         8.6033 
  80   0.0000       0.323582         8.8051 
  81   0.0000       0.333441         9.0734 
  82   0.0000       0.341150         9.2832 
  83   0.0000       0.341763         9.2998 
  84   0.0000       0.350740         9.5441 
  85   0.0000       0.354032         9.6337 
  86   0.0000       0.359686         9.7876 
  87   0.0000       0.363636         9.8950 
  88   0.0000       0.367531        10.0010 
  89   0.0000       0.372613        10.1393 
  90   0.0000       0.376468        10.2442 
  91   0.0000       0.383635        10.4392 
  92   0.0000       0.388918        10.5830 
  93   0.0000       0.391870        10.6633 
  94   0.0000       0.398295        10.8381 
  95   0.0000       0.400046        10.8858 
  96   0.0000       0.407774        11.0961 
  97   0.0000       0.409211        11.1352 
  98   0.0000       0.414645        11.2831 
  99   0.0000       0.417743        11.3674 
 100   0.0000       0.427589        11.6353 
 101   0.0000       0.432038        11.7563 
 102   0.0000       0.439699        11.9648 
 103   0.0000       0.442369        12.0375 
 104   0.0000       0.447331        12.1725 
 105   0.0000       0.453270        12.3341 
 106   0.0000       0.456965        12.4347 
 107   0.0000       0.465958        12.6794 
 108   0.0000       0.469486        12.7754 
 109   0.0000       0.474900        12.9227 
 110   0.0000       0.478573        13.0226 
 111   0.0000       0.480827        13.0840 
 112   0.0000       0.483623        13.1601 
 113   0.0000       0.490220        13.3396 
 114   0.0000       0.504565        13.7299 
 115   0.0000       0.507035        13.7971 
 116   0.0000       0.508983        13.8501 
 117   0.0000       0.519780        14.1439 
 118   0.0000       0.524404        14.2698 
 119   0.0000       0.530672        14.4403 
 120   0.0000       0.535869        14.5817 
 121   0.0000       0.536758        14.6059 
 122   0.0000       0.541352        14.7309 
 123   0.0000       0.547012        14.8850 
 124   0.0000       0.557544        15.1715 
 125   0.0000       0.563281        15.3277 
 126   0.0000       0.568739        15.4762 
 127   0.0000       0.571927        15.5629 
 128   0.0000       0.575492        15.6599 
 129   0.0000       0.581348        15.8193 
 130   0.0000       0.589564        16.0428 
 131   0.0000       0.601265        16.3613 
 132   0.0000       0.608357        16.5542 
 133   0.0000       0.610804        16.6208 
 134   0.0000       0.619101        16.8466 
 135   0.0000       0.628787        17.1102 
 136   0.0000       0.639842        17.4110 
 137   0.0000       0.651384        17.7250 
 138   0.0000       0.660186        17.9646 
 139   0.0000       0.668976        18.2038 
 140   0.0000       0.675429        18.3794 
 141   0.0000       0.679894        18.5009 
 142   0.0000       0.691231        18.8094 
 143   0.0000       0.700672        19.0663 
 144   0.0000       0.728501        19.8235 
 145   0.0000       0.735315        20.0089 
 146   0.0000       0.740730        20.1563 
 147   0.0000       0.753537        20.5048 
 148   0.0000       0.757945        20.6247 
 149   0.0000       0.761995        20.7349 
 150   0.0000       0.767521        20.8853 
 151   0.0000       0.780250        21.2317 
 152   0.0000       0.786515        21.4022 
 153   0.0000       0.798084        21.7170 
 154   0.0000       0.804992        21.9049 
 155   0.0000       0.816785        22.2259 
 156   0.0000       0.822830        22.3903 
 157   0.0000       0.840220        22.8635 
 158   0.0000       0.841077        22.8869 
 159   0.0000       0.850514        23.1437 
 160   0.0000       0.855728        23.2856 
 161   0.0000       0.858045        23.3486 
 162   0.0000       0.861878        23.4529 
 163   0.0000       0.864843        23.5336 
 164   0.0000       0.869126        23.6501 
 165   0.0000       0.885453        24.0944 
 166   0.0000       0.896780        24.4026 
 167   0.0000       0.900330        24.4992 
 168   0.0000       0.905685        24.6449 
 169   0.0000       0.916223        24.9317 
 170   0.0000       0.918142        24.9839 
 171   0.0000       0.930533        25.3211 
 172   0.0000       0.934766        25.4363 
 173   0.0000       0.940565        25.5941 
 174   0.0000       0.945929        25.7400 
 175   0.0000       0.950627        25.8679 
 176   0.0000       0.957324        26.0501 
 177   0.0000       0.963734        26.2245 
 178   0.0000       0.972836        26.4722 
 179   0.0000       0.978739        26.6328 
 180   0.0000       0.983480        26.7619 
 181   0.0000       0.995510        27.0892 
 182   0.0000       1.002367        27.2758 
 183   0.0000       1.007945        27.4276 
 184   0.0000       1.016087        27.6491 
 185   0.0000       1.018422        27.7127 
 186   0.0000       1.029689        28.0193 
 187   0.0000       1.032908        28.1068 
 188   0.0000       1.043495        28.3949 
 189   0.0000       1.050527        28.5863 
 190   0.0000       1.056226        28.7414 
 191   0.0000       1.073194        29.2031 
 192   0.0000       1.078451        29.3461 
 193   0.0000       1.084666        29.5153 
 194   0.0000       1.092442        29.7269 
 195   0.0000       1.103454        30.0265 
 196   0.0000       1.104880        30.0653 
 197   0.0000       1.116009        30.3682 
 198   0.0000       1.119075        30.4516 
 199   0.0000       1.122258        30.5382 
 200   0.0000       1.128487        30.7077 
 201   0.0000       1.135555        30.9000 
 202   0.0000       1.142306        31.0837 
 203   0.0000       1.152016        31.3480 
 204   0.0000       1.155204        31.4347 
 205   0.0000       1.158017        31.5113 
 206   0.0000       1.169572        31.8257 
 207   0.0000       1.182460        32.1764 
 208   0.0000       1.184824        32.2407 
 209   0.0000       1.185480        32.2585 
 210   0.0000       1.198650        32.6169 
 211   0.0000       1.205750        32.8101 
 212   0.0000       1.215197        33.0672 
 213   0.0000       1.224424        33.3183 
 214   0.0000       1.229655        33.4606 
 215   0.0000       1.237178        33.6653 
 216   0.0000       1.246510        33.9193 
 217   0.0000       1.252709        34.0880 
 218   0.0000       1.257172        34.2094 
 219   0.0000       1.261862        34.3370 
 220   0.0000       1.272327        34.6218 
 221   0.0000       1.290420        35.1141 
 222   0.0000       1.299812        35.3697 
 223   0.0000       1.305151        35.5150 
 224   0.0000       1.312917        35.7263 
 225   0.0000       1.322975        36.0000 
 226   0.0000       1.340602        36.4796 
 227   0.0000       1.346411        36.6377 
 228   0.0000       1.350318        36.7440 
 229   0.0000       1.355925        36.8966 
 230   0.0000       1.359503        36.9940 
 231   0.0000       1.367382        37.2083 
 232   0.0000       1.371930        37.3321 
 233   0.0000       1.388192        37.7746 
 234   0.0000       1.394213        37.9385 
 235   0.0000       1.401756        38.1437 
 236   0.0000       1.409553        38.3559 
 237   0.0000       1.422078        38.6967 
 238   0.0000       1.428938        38.8834 
 239   0.0000       1.445656        39.3383 
 240   0.0000       1.461015        39.7562 
 241   0.0000       1.466103        39.8947 
 242   0.0000       1.469285        39.9813 
 243   0.0000       1.483341        40.3638 
 244   0.0000       1.496137        40.7120 
 245   0.0000       1.501207        40.8499 
 246   0.0000       1.515992        41.2522 
 247   0.0000       1.528873        41.6028 
 248   0.0000       1.535002        41.7695 
 249   0.0000       1.541120        41.9360 
 250   0.0000       1.541914        41.9576 
 251   0.0000       1.563207        42.5370 
 252   0.0000       1.572536        42.7909 
 253   0.0000       1.591329        43.3023 
 254   0.0000       1.606104        43.7043 
 255   0.0000       1.613138        43.8957 
 256   0.0000       1.621891        44.1339 
 257   0.0000       1.627872        44.2967 
 258   0.0000       1.636304        44.5261 
 259   0.0000       1.649309        44.8800 
 260   0.0000       1.651886        44.9501 
 261   0.0000       1.662432        45.2371 
 262   0.0000       1.664884        45.3038 
 263   0.0000       1.675263        45.5862 
 264   0.0000       1.681291        45.7502 
 265   0.0000       1.689335        45.9691 
 266   0.0000       1.697289        46.1856 
 267   0.0000       1.703961        46.3671 
 268   0.0000       1.708676        46.4954 
 269   0.0000       1.719583        46.7922 
 270   0.0000       1.730811        47.0978 
 271   0.0000       1.732347        47.1396 
 272   0.0000       1.740264        47.3550 
 273   0.0000       1.747092        47.5408 
 274   0.0000       1.755584        47.7719 
 275   0.0000       1.766468        48.0680 
 276   0.0000       1.779994        48.4361 
 277   0.0000       1.787344        48.6361 
 278   0.0000       1.795642        48.8619 
 279   0.0000       1.804170        49.0939 
 280   0.0000       1.821327        49.5608 
 281   0.0000       1.827265        49.7224 
 282   0.0000       1.841394        50.1069 
 283   0.0000       1.849932        50.3392 
 284   0.0000       1.857001        50.5316 
 285   0.0000       1.862726        50.6874 
 286   0.0000       1.871614        50.9292 
 287   0.0000       1.887818        51.3702 
 288   0.0000       1.898667        51.6654 
 289   0.0000       1.911495        52.0144 
 290   0.0000       1.922363        52.3102 
 291   0.0000       1.924051        52.3561 
 292   0.0000       1.938091        52.7381 
 293   0.0000       1.947160        52.9849 
 294   0.0000       1.951160        53.0938 
 295   0.0000       1.969462        53.5918 
 296   0.0000       1.974079        53.7174 
 297   0.0000       1.978597        53.8404 
 298   0.0000       1.999114        54.3987 
 299   0.0000       2.016353        54.8678 
 300   0.0000       2.028918        55.2097 
 301   0.0000       2.030128        55.2426 
 302   0.0000       2.043472        55.6057 
 303   0.0000       2.057388        55.9844 
 304   0.0000       2.077451        56.5303 
 305   0.0000       2.094718        57.0002 
 306   0.0000       2.105908        57.3047 
 307   0.0000       2.109125        57.3922 
 308   0.0000       2.124316        57.8056 
 309   0.0000       2.128478        57.9188 
 310   0.0000       2.136907        58.1482 
 311   0.0000       2.146896        58.4200 
 312   0.0000       2.171955        59.1019 
 313   0.0000       2.173591        59.1464 
 314   0.0000       2.177166        59.2437 
 315   0.0000       2.200041        59.8662 
 316   0.0000       2.211572        60.1799 
 317   0.0000       2.215886        60.2973 
 318   0.0000       2.225469        60.5581 
 319   0.0000       2.235706        60.8367 
 320   0.0000       2.250004        61.2257 
 321   0.0000       2.266903        61.6856 
 322   0.0000       2.274168        61.8833 
 323   0.0000       2.282599        62.1127 
 324   0.0000       2.292739        62.3886 
 325   0.0000       2.300196        62.5915 
 326   0.0000       2.312242        62.9193 
 327   0.0000       2.330309        63.4109 
 328   0.0000       2.351057        63.9755 
 329   0.0000       2.352359        64.0109 
 330   0.0000       2.363057        64.3020 
 331   0.0000       2.374332        64.6089 
 332   0.0000       2.400219        65.3133 
 333   0.0000       2.416650        65.7604 
 334   0.0000       2.432898        66.2025 
 335   0.0000       2.434628        66.2496 
 336   0.0000       2.448456        66.6259 
 337   0.0000       2.461536        66.9818 
 338   0.0000       2.478038        67.4308 
 339   0.0000       2.485145        67.6242 
 340   0.0000       2.504887        68.1614 
 341   0.0000       2.525209        68.7144 
 342   0.0000       2.532322        68.9080 
 343   0.0000       2.541263        69.1513 
 344   0.0000       2.554097        69.5005 
 345   0.0000       2.563648        69.7604 
 346   0.0000       2.585149        70.3455 
 347   0.0000       2.625778        71.4511 
 348   0.0000       2.650234        72.1165 
 349   0.0000       2.668699        72.6190 
 350   0.0000       2.692423        73.2646 
 351   0.0000       2.732016        74.3419 
 352   0.0000       2.773240        75.4637 
 353   0.0000       2.783118        75.7325 
 354   0.0000       2.855073        77.6905 
 355   0.0000       2.873204        78.1839 
 356   0.0000       2.914379        79.3043 
 357   0.0000       2.945493        80.1510 
 358   0.0000       2.959006        80.5186 
 359   0.0000       3.021692        82.2244 
 360   0.0000       3.071030        83.5670 
 361   0.0000       3.103313        84.4454 
 362   0.0000       3.173675        86.3601 
 363   0.0000       3.202357        87.1406 
 364   0.0000       3.225454        87.7691 
 365   0.0000       3.285429        89.4011 
 366   0.0000       3.311331        90.1059 
 367   0.0000       3.352612        91.2292 
 368   0.0000       3.376400        91.8765 
 369   0.0000       3.388663        92.2102 
 370   0.0000       3.408191        92.7416 
 371   0.0000       3.418507        93.0223 
 372   0.0000       3.440440        93.6191 
 373   0.0000       3.445761        93.7639 
 374   0.0000       3.467426        94.3535 
 375   0.0000       3.483355        94.7869 
 376   0.0000       3.508888        95.4817 
 377   0.0000       3.533575        96.1535 
 378   0.0000       3.540975        96.3548 
 379   0.0000       3.556819        96.7860 
 380   0.0000       3.583347        97.5078 
 381   0.0000       3.605386        98.1075 
 382   0.0000       3.620233        98.5116 
 383   0.0000       3.625052        98.6427 
 384   0.0000       3.628472        98.7357 
 385   0.0000       3.646210        99.2184 
 386   0.0000       3.662466        99.6608 
 387   0.0000       3.674870        99.9983 
 388   0.0000       3.677056       100.0578 
 389   0.0000       3.693620       100.5085 
 390   0.0000       3.706251       100.8522 
 391   0.0000       3.713539       101.0505 
 392   0.0000       3.722684       101.2994 
 393   0.0000       3.735826       101.6570 
 394   0.0000       3.747703       101.9802 
 395   0.0000       3.753961       102.1505 
 396   0.0000       3.781386       102.8968 
 397   0.0000       3.789047       103.1052 
 398   0.0000       3.809080       103.6503 
 399   0.0000       3.812525       103.7441 
 400   0.0000       3.842767       104.5670 
 401   0.0000       3.854093       104.8752 
 402   0.0000       3.872785       105.3838 
 403   0.0000       3.884635       105.7063 
 404   0.0000       3.895248       105.9951 
 405   0.0000       3.917842       106.6099 
 406   0.0000       3.927762       106.8798 
 407   0.0000       3.938670       107.1767 
 408   0.0000       3.947237       107.4098 
 409   0.0000       3.962710       107.8308 
 410   0.0000       3.966106       107.9232 
 411   0.0000       3.979931       108.2994 
 412   0.0000       4.012230       109.1783 
 413   0.0000       4.016097       109.2836 
 414   0.0000       4.020288       109.3976 
 415   0.0000       4.028603       109.6239 
 416   0.0000       4.042120       109.9917 
 417   0.0000       4.052583       110.2764 
 418   0.0000       4.055969       110.3685 
 419   0.0000       4.072655       110.8226 
 420   0.0000       4.096776       111.4790 
 421   0.0000       4.113752       111.9409 
 422   0.0000       4.125070       112.2489 
 423   0.0000       4.137839       112.5963 
 424   0.0000       4.143583       112.7526 
 425   0.0000       4.161351       113.2361 
 426   0.0000       4.171047       113.4999 
 427   0.0000       4.189089       113.9909 
 428   0.0000       4.200610       114.3044 
 429   0.0000       4.216750       114.7436 
 430   0.0000       4.234844       115.2360 
 431   0.0000       4.237402       115.3056 
 432   0.0000       4.274685       116.3201 
 433   0.0000       4.289598       116.7259 
 434   0.0000       4.301243       117.0428 
 435   0.0000       4.308914       117.2515 
 436   0.0000       4.321029       117.5812 
 437   0.0000       4.327641       117.7611 
 438   0.0000       4.343734       118.1990 
 439   0.0000       4.345264       118.2407 
 440   0.0000       4.347363       118.2978 
 441   0.0000       4.371862       118.9644 
 442   0.0000       4.383550       119.2825 
 443   0.0000       4.412634       120.0739 
 444   0.0000       4.420242       120.2809 
 445   0.0000       4.444126       120.9308 
 446   0.0000       4.458064       121.3101 
 447   0.0000       4.477060       121.8270 
 448   0.0000       4.503301       122.5411 
 449   0.0000       4.512578       122.7935 
 450   0.0000       4.523028       123.0779 
 451   0.0000       4.549858       123.8079 
 452   0.0000       4.563456       124.1780 
 453   0.0000       4.578201       124.5792 
 454   0.0000       4.607387       125.3734 
 455   0.0000       4.615173       125.5852 
 456   0.0000       4.634814       126.1197 
 457   0.0000       4.652529       126.6018 
 458   0.0000       4.671163       127.1088 
 459   0.0000       4.679206       127.3277 
 460   0.0000       4.703926       128.0003 
 461   0.0000       4.718444       128.3954 
 462   0.0000       4.745376       129.1282 
 463   0.0000       4.751511       129.2952 
 464   0.0000       4.766918       129.7144 
 465   0.0000       4.780110       130.0734 
 466   0.0000       4.810433       130.8985 
 467   0.0000       4.817947       131.1030 
 468   0.0000       4.823792       131.2620 
 469   0.0000       4.832435       131.4972 
 470   0.0000       4.853565       132.0722 
 471   0.0000       4.861089       132.2770 
 472   0.0000       4.884736       132.9204 
 473   0.0000       4.913114       133.6926 
 474   0.0000       4.930118       134.1553 
 475   0.0000       4.935301       134.2964 
 476   0.0000       4.945942       134.5859 
 477   0.0000       4.962800       135.0446 
 478   0.0000       4.981285       135.5477 
 479   0.0000       5.004811       136.1878 
 480   0.0000       5.009859       136.3252 
 481   0.0000       5.020029       136.6019 
 482   0.0000       5.053809       137.5211 
 483   0.0000       5.056520       137.5949 
 484   0.0000       5.071053       137.9904 
 485   0.0000       5.087461       138.4369 
 486   0.0000       5.103678       138.8781 
 487   0.0000       5.113072       139.1338 
 488   0.0000       5.139122       139.8426 
 489   0.0000       5.148946       140.1099 
 490   0.0000       5.163768       140.5133 
 491   0.0000       5.166801       140.5958 
 492   0.0000       5.183932       141.0620 
 493   0.0000       5.200010       141.4995 
 494   0.0000       5.205626       141.6523 
 495   0.0000       5.233539       142.4118 
 496   0.0000       5.245547       142.7386 
 497   0.0000       5.254226       142.9748 
 498   0.0000       5.273300       143.4938 
 499   0.0000       5.298370       144.1760 
 500   0.0000       5.313874       144.5979 
 501   0.0000       5.349638       145.5710 
 502   0.0000       5.372284       146.1873 
 503   0.0000       5.385205       146.5389 
 504   0.0000       5.392626       146.7408 
 505   0.0000       5.419046       147.4597 
 506   0.0000       5.427620       147.6930 
 507   0.0000       5.450444       148.3141 
 508   0.0000       5.468738       148.8119 
 509   0.0000       5.479278       149.0987 
 510   0.0000       5.509965       149.9338 
 511   0.0000       5.528432       150.4363 
 512   0.0000       5.544976       150.8865 
 513   0.0000       5.552037       151.0786 
 514   0.0000       5.579983       151.8391 
 515   0.0000       5.602426       152.4498 
 516   0.0000       5.610993       152.6829 
 517   0.0000       5.635542       153.3509 
 518   0.0000       5.643359       153.5636 
 519   0.0000       5.648391       153.7005 
 520   0.0000       5.667755       154.2275 
 521   0.0000       5.668043       154.2353 
 522   0.0000       5.690198       154.8382 
 523   0.0000       5.724170       155.7626 
 524   0.0000       5.739307       156.1745 
 525   0.0000       5.752289       156.5278 
 526   0.0000       5.771976       157.0635 
 527   0.0000       5.783536       157.3780 
 528   0.0000       5.814435       158.2188 
 529   0.0000       5.827180       158.5656 
 530   0.0000       5.873031       159.8133 
 531   0.0000       5.888428       160.2323 
 532   0.0000       5.902745       160.6219 
 533   0.0000       5.921517       161.1327 
 534   0.0000       5.932506       161.4317 
 535   0.0000       5.977320       162.6511 
 536   0.0000       6.062215       164.9613 
 537   0.0000       6.084955       165.5800 
 538   0.0000       6.107561       166.1952 
 539   0.0000       6.115093       166.4001 
 540   0.0000       6.142942       167.1580 
 541   0.0000       6.147176       167.2732 
 542   0.0000       6.161162       167.6537 
 543   0.0000       6.190874       168.4622 
 544   0.0000       6.207547       168.9159 
 545   0.0000       6.255131       170.2108 
 546   0.0000       6.267949       170.5596 
 547   0.0000       6.331514       172.2893 
 548   0.0000       6.349836       172.7878 
 549   0.0000       6.398020       174.0990 
 550   0.0000       6.466839       175.9716 
 551   0.0000       6.511017       177.1738 
 552   0.0000       6.537357       177.8905 
 553   0.0000       6.589520       179.3100 
 554   0.0000       6.720125       182.8639 
 555   0.0000       6.742666       183.4773 
 556   0.0000       6.762465       184.0160 
 557   0.0000       6.774700       184.3490 
 558   0.0000       6.798547       184.9979 
 559   0.0000       6.811289       185.3446 
 560   0.0000       6.845194       186.2672 
 561   0.0000       7.037421       191.4980 
 562   0.0000       7.180781       195.3990 
 563   0.0000       7.222337       196.5298 
 564   0.0000       7.309440       198.9000 
 565   0.0000       7.388395       201.0485 
 566   0.0000       8.223394       223.7699 
 567   0.0000      16.271751       442.7768 
 568   0.0000      17.357679       472.3265 
 569   0.0000      17.516406       476.6456 
 570   0.0000      17.787090       484.0113 
 571   0.0000      18.487244       503.0635 
 572   0.0000      19.129597       520.5428 
 573   0.0000      19.274745       524.4925 
 574   0.0000      19.670712       535.2673 

                    ********************************
                    * MULLIKEN POPULATION ANALYSIS *
                    ********************************

-----------------------
MULLIKEN ATOMIC CHARGES
-----------------------
   0 C :    0.624349
   1 C :   -0.610339
   2 N :   -0.741740
   3 N :    0.568881
   4 N :   -0.194806
   5 C :   -0.780271
   6 H :    0.339525
   7 H :    0.367888
   8 H :    0.325948
   9 H :    0.537525
  10 C :   -1.372126
  11 H :    0.310096
  12 H :    0.360903
  13 C :   -0.573513
  14 H :    0.267290
  15 H :    0.251214
  16 H :    0.319175
Sum of atomic charges:   -0.0000000

--------------------------------
MULLIKEN REDUCED ORBITAL CHARGES
--------------------------------
  0 C s       :     3.146008  s :     3.146008
      pz      :     1.017767  p :     2.444358
      px      :     0.933033
      py      :     0.493558
      dz2     :    -0.058198  d :    -0.189722
      dxz     :    -0.057274
      dyz     :    -0.010804
      dx2y2   :    -0.047448
      dxy     :    -0.015999
      f0      :    -0.001336  f :    -0.024994
      f+1     :    -0.003398
      f-1     :    -0.004244
      f+2     :    -0.002223
      f-2     :    -0.004383
      f+3     :    -0.008469
      f-3     :    -0.000942
  1 C s       :     3.590569  s :     3.590569
      pz      :     1.088261  p :     2.957458
      px      :     0.822741
      py      :     1.046456
      dz2     :     0.027253  d :     0.055523
      dxz     :    -0.026351
      dyz     :     0.006681
      dx2y2   :     0.037489
      dxy     :     0.010452
      f0      :     0.001552  f :     0.006789
      f+1     :     0.001062
      f-1     :    -0.000133
      f+2     :    -0.000069
      f-2     :    -0.001717
      f+3     :     0.000979
      f-3     :     0.005115
  2 N s       :     4.238152  s :     4.238152
      pz      :     1.286184  p :     3.395528
      px      :     1.023799
      py      :     1.085544
      dz2     :     0.007709  d :     0.096613
      dxz     :     0.029495
      dyz     :     0.010727
      dx2y2   :     0.026993
      dxy     :     0.021689
      f0      :     0.001783  f :     0.011446
      f+1     :     0.000781
      f-1     :     0.000528
      f+2     :     0.001263
      f-2     :     0.001672
      f+3     :     0.003886
      f-3     :     0.001534
  3 N s       :     3.211580  s :     3.211580
      pz      :     0.988054  p :     3.053827
      px      :     1.042430
      py      :     1.023343
      dz2     :    -0.001332  d :     0.155770
      dxz     :     0.032076
      dyz     :     0.048534
      dx2y2   :     0.063142
      dxy     :     0.013349
      f0      :     0.000060  f :     0.009943
      f+1     :     0.000658
      f-1     :     0.001056
      f+2     :     0.003160
      f-2     :    -0.000541
      f+3     :     0.002145
      f-3     :     0.003404
  4 N s       :     3.618358  s :     3.618358
      pz      :     1.396862  p :     3.518044
      px      :     1.193128
      py      :     0.928055
      dz2     :     0.011951  d :     0.053698
      dxz     :     0.004342
      dyz     :     0.004862
      dx2y2   :     0.014378
      dxy     :     0.018166
      f0      :     0.000479  f :     0.004706
      f+1     :     0.000890
      f-1     :     0.000990
      f+2     :     0.001195
      f-2     :     0.000024
      f+3     :     0.000224
      f-3     :     0.000904
  5 C s       :     3.267370  s :     3.267370
      pz      :     1.102927  p :     3.297245
      px      :     0.913499
      py      :     1.280819
      dz2     :     0.052341  d :     0.193542
      dxz     :     0.032807
      dyz     :     0.040561
      dx2y2   :     0.056420
      dxy     :     0.011413
      f0      :     0.000824  f :     0.022114
      f+1     :     0.006332
      f-1     :     0.002779
      f+2     :     0.001653
      f-2     :     0.002964
      f+3     :     0.001215
      f-3     :     0.006348
  6 H s       :     0.597131  s :     0.597131
      pz      :     0.022328  p :     0.060002
      px      :     0.017249
      py      :     0.020425
      dz2     :     0.001309  d :     0.003341
      dxz     :     0.000732
      dyz     :    -0.000272
      dx2y2   :     0.000965
      dxy     :     0.000608
  7 H s       :     0.582223  s :     0.582223
      pz      :     0.012544  p :     0.047487
      px      :     0.002247
      py      :     0.032696
      dz2     :    -0.000418  d :     0.002402
      dxz     :    -0.000503
      dyz     :     0.002418
      dx2y2   :    -0.000540
      dxy     :     0.001446
  8 H s       :     0.616619  s :     0.616619
      pz      :     0.016954  p :     0.053487
      px      :     0.019722
      py      :     0.016811
      dz2     :     0.002079  d :     0.003945
      dxz     :     0.000221
      dyz     :     0.000944
      dx2y2   :    -0.000052
      dxy     :     0.000754
  9 H s       :     0.416314  s :     0.416314
      pz      :     0.020329  p :     0.043119
      px      :     0.002481
      py      :     0.020310
      dz2     :     0.002737  d :     0.003042
      dxz     :    -0.000268
      dyz     :     0.001749
      dx2y2   :     0.000278
      dxy     :    -0.001455
 10 C s       :     3.757166  s :     3.757166
      pz      :     1.123841  p :     3.458448
      px      :     1.165521
      py      :     1.169086
      dz2     :     0.054927  d :     0.144691
      dxz     :     0.037504
      dyz     :     0.021211
      dx2y2   :     0.018697
      dxy     :     0.012352
      f0      :     0.006246  f :     0.011821
      f+1     :     0.002373
      f-1     :     0.000792
      f+2     :     0.001785
      f-2     :    -0.000232
      f+3     :    -0.000631
      f-3     :     0.001487
 11 H s       :     0.620081  s :     0.620081
      pz      :     0.022321  p :     0.060991
      px      :     0.024600
      py      :     0.014070
      dz2     :    -0.000233  d :     0.008832
      dxz     :     0.002759
      dyz     :     0.001965
      dx2y2   :     0.004869
      dxy     :    -0.000528
 12 H s       :     0.565148  s :     0.565148
      pz      :     0.009420  p :     0.061891
      px      :     0.030387
      py      :     0.022084
      dz2     :     0.004278  d :     0.012058
      dxz     :     0.001700
      dyz     :     0.003024
      dx2y2   :     0.000926
      dxy     :     0.002129
 13 C s       :     3.063841  s :     3.063841
      pz      :     1.169653  p :     3.361153
      px      :     1.037793
      py      :     1.153707
      dz2     :     0.026793  d :     0.137486
      dxz     :     0.030620
      dyz     :     0.051141
      dx2y2   :     0.015204
      dxy     :     0.013729
      f0      :     0.000578  f :     0.011033
      f+1     :     0.001439
      f-1     :     0.002580
      f+2     :     0.002831
      f-2     :     0.000383
      f+3     :     0.000961
      f-3     :     0.002261
 14 H s       :     0.662572  s :     0.662572
      pz      :     0.021347  p :     0.063188
      px      :     0.012580
      py      :     0.029261
      dz2     :     0.001630  d :     0.006950
      dxz     :     0.001270
      dyz     :     0.001757
      dx2y2   :     0.000831
      dxy     :     0.001463
 15 H s       :     0.670583  s :     0.670583
      pz      :     0.014207  p :     0.071372
      px      :     0.022758
      py      :     0.034407
      dz2     :     0.002911  d :     0.006831
      dxz     :     0.000636
      dyz     :    -0.000111
      dx2y2   :     0.000380
      dxy     :     0.003016
 16 H s       :     0.628825  s :     0.628825
      pz      :     0.016063  p :     0.045495
      px      :     0.013490
      py      :     0.015942
      dz2     :    -0.000224  d :     0.006505
      dxz     :     0.002087
      dyz     :     0.001633
      dx2y2   :     0.003134
      dxy     :    -0.000125


                     *******************************
                     * LOEWDIN POPULATION ANALYSIS *
                     *******************************

----------------------
LOEWDIN ATOMIC CHARGES
----------------------
   0 C :   -0.212631
   1 C :    0.170181
   2 N :    0.356548
   3 N :   -0.184957
   4 N :    0.204451
   5 C :    0.412258
   6 H :   -0.178451
   7 H :   -0.188688
   8 H :   -0.184409
   9 H :   -0.169855
  10 C :    0.314636
  11 H :   -0.175199
  12 H :   -0.192207
  13 C :    0.564025
  14 H :   -0.175890
  15 H :   -0.186588
  16 H :   -0.173225

-------------------------------
LOEWDIN REDUCED ORBITAL CHARGES
-------------------------------
  0 C s       :     2.463301  s :     2.463301
      pz      :     0.732744  p :     2.234256
      px      :     0.755712
      py      :     0.745800
      dz2     :     0.166796  d :     1.001391
      dxz     :     0.170812
      dyz     :     0.211523
      dx2y2   :     0.206667
      dxy     :     0.245593
      f0      :     0.058540  f :     0.513683
      f+1     :     0.042049
      f-1     :     0.080238
      f+2     :     0.051520
      f-2     :     0.102116
      f+3     :     0.116288
      f-3     :     0.062931
  1 C s       :     2.488711  s :     2.488711
      pz      :     0.775501  p :     2.219868
      px      :     0.675597
      py      :     0.768771
      dz2     :     0.143908  d :     0.758854
      dxz     :     0.161895
      dyz     :     0.170968
      dx2y2   :     0.140942
      dxy     :     0.141140
      f0      :     0.071334  f :     0.362386
      f+1     :     0.042594
      f-1     :     0.035081
      f+2     :     0.034060
      f-2     :     0.067019
      f+3     :     0.045983
      f-3     :     0.066315
  2 N s       :     3.032311  s :     3.032311
      pz      :     0.990765  p :     3.000616
      px      :     1.045747
      py      :     0.964105
      dz2     :     0.047662  d :     0.418969
      dxz     :     0.078938
      dyz     :     0.037704
      dx2y2   :     0.121150
      dxy     :     0.133515
      f0      :     0.016132  f :     0.191556
      f+1     :     0.018711
      f-1     :     0.008014
      f+2     :     0.010762
      f-2     :     0.032095
      f+3     :     0.071226
      f-3     :     0.034617
  3 N s       :     2.754825  s :     2.754825
      pz      :     0.821442  p :     3.006925
      px      :     1.107719
      py      :     1.077764
      dz2     :     0.106507  d :     1.066426
      dxz     :     0.180513
      dyz     :     0.202722
      dx2y2   :     0.322533
      dxy     :     0.254151
      f0      :     0.027632  f :     0.356781
      f+1     :     0.024902
      f-1     :     0.031939
      f+2     :     0.043542
      f-2     :     0.045070
      f+3     :     0.078012
      f-3     :     0.105684
  4 N s       :     2.773385  s :     2.773385
      pz      :     1.050746  p :     3.006343
      px      :     1.000335
      py      :     0.955262
      dz2     :     0.102783  d :     0.717425
      dxz     :     0.121680
      dyz     :     0.116766
      dx2y2   :     0.189454
      dxy     :     0.186743
      f0      :     0.021355  f :     0.298396
      f+1     :     0.038027
      f-1     :     0.023214
      f+2     :     0.030065
      f-2     :     0.049499
      f+3     :     0.048230
      f-3     :     0.088007
  5 C s       :     2.464056  s :     2.464056
      pz      :     0.748320  p :     2.235856
      px      :     0.699926
      py      :     0.787611
      dz2     :     0.125298  d :     0.627672
      dxz     :     0.162034
      dyz     :     0.098620
      dx2y2   :     0.148260
      dxy     :     0.093460
      f0      :     0.023439  f :     0.260158
      f+1     :     0.067393
      f-1     :     0.015686
      f+2     :     0.038115
      f-2     :     0.043637
      f+3     :     0.026612
      f-3     :     0.045276
  6 H s       :     0.656121  s :     0.656121
      pz      :     0.128730  p :     0.301406
      px      :     0.069174
      py      :     0.103501
      dz2     :     0.058775  d :     0.220925
      dxz     :     0.068927
      dyz     :     0.045762
      dx2y2   :     0.034108
      dxy     :     0.013353
  7 H s       :     0.649502  s :     0.649502
      pz      :     0.084076  p :     0.307387
      px      :     0.074511
      py      :     0.148800
      dz2     :     0.017361  d :     0.231799
      dxz     :     0.019709
      dyz     :     0.077789
      dx2y2   :     0.052438
      dxy     :     0.064501
  8 H s       :     0.654801  s :     0.654801
      pz      :     0.098170  p :     0.306926
      px      :     0.113194
      py      :     0.095563
      dz2     :     0.043460  d :     0.222682
      dxz     :     0.052335
      dyz     :     0.030860
      dx2y2   :     0.057614
      dxy     :     0.038413
  9 H s       :     0.694206  s :     0.694206
      pz      :     0.113730  p :     0.285340
      px      :     0.085898
      py      :     0.085712
      dz2     :     0.054635  d :     0.190309
      dxz     :     0.035741
      dyz     :     0.037103
      dx2y2   :     0.027454
      dxy     :     0.035376
 10 C s       :     2.456868  s :     2.456868
      pz      :     0.759110  p :     2.231829
      px      :     0.738090
      py      :     0.734629
      dz2     :     0.243356  d :     0.719238
      dxz     :     0.165660
      dyz     :     0.123549
      dx2y2   :     0.055404
      dxy     :     0.131269
      f0      :     0.056083  f :     0.277429
      f+1     :     0.039969
      f-1     :     0.062664
      f+2     :     0.032969
      f-2     :     0.054132
      f+3     :     0.016970
      f-3     :     0.014643
 11 H s       :     0.671287  s :     0.671287
      pz      :     0.074010  p :     0.294382
      px      :     0.112094
      py      :     0.108277
      dz2     :     0.014728  d :     0.209530
      dxz     :     0.045950
      dyz     :     0.036877
      dx2y2   :     0.065121
      dxy     :     0.046854
 12 H s       :     0.663056  s :     0.663056
      pz      :     0.127896  p :     0.311934
      px      :     0.099047
      py      :     0.084991
      dz2     :     0.063227  d :     0.217217
      dxz     :     0.055614
      dyz     :     0.054711
      dx2y2   :     0.012354
      dxy     :     0.031312
 13 C s       :     2.451725  s :     2.451725
      pz      :     0.763155  p :     2.276909
      px      :     0.753765
      py      :     0.759989
      dz2     :     0.078218  d :     0.529906
      dxz     :     0.093412
      dyz     :     0.126045
      dx2y2   :     0.085331
      dxy     :     0.146902
      f0      :     0.013208  f :     0.177434
      f+1     :     0.031242
      f-1     :     0.023549
      f+2     :     0.020909
      f-2     :     0.026503
      f+3     :     0.029760
      f-3     :     0.032262
 14 H s       :     0.640549  s :     0.640549
      pz      :     0.129221  p :     0.307532
      px      :     0.086868
      py      :     0.091443
      dz2     :     0.063898  d :     0.227809
      dxz     :     0.054941
      dyz     :     0.059623
      dx2y2   :     0.013779
      dxy     :     0.035567
 15 H s       :     0.640585  s :     0.640585
      pz      :     0.110371  p :     0.315544
      px      :     0.089942
      py      :     0.115231
      dz2     :     0.060323  d :     0.230459
      dxz     :     0.035178
      dyz     :     0.044979
      dx2y2   :     0.032890
      dxy     :     0.057088
 16 H s       :     0.637984  s :     0.637984
      pz      :     0.084929  p :     0.308384
      px      :     0.119425
      py      :     0.104030
      dz2     :     0.015422  d :     0.226857
      dxz     :     0.051514
      dyz     :     0.042298
      dx2y2   :     0.065752
      dxy     :     0.051870


                      *****************************
                      * MAYER POPULATION ANALYSIS *
                      *****************************

  NA   - Mulliken gross atomic population
  ZA   - Total nuclear charge
  QA   - Mulliken gross atomic charge
  VA   - Mayer's total valence
  BVA  - Mayer's bonded valence
  FA   - Mayer's free valence

  ATOM       NA         ZA         QA         VA         BVA        FA
  0 C      5.3757     6.0000     0.6243     2.1463     2.1463    -0.0000
  1 C      6.6103     6.0000    -0.6103     3.0538     3.0538    -0.0000
  2 N      7.7417     7.0000    -0.7417     2.1075     2.1075     0.0000
  3 N      6.4311     7.0000     0.5689     2.7054     2.7054    -0.0000
  4 N      7.1948     7.0000    -0.1948     2.6358     2.6358    -0.0000
  5 C      6.7803     6.0000    -0.7803     3.5081     3.5081     0.0000
  6 H      0.6605     1.0000     0.3395     1.0049     1.0049     0.0000
  7 H      0.6321     1.0000     0.3679     0.9831     0.9831     0.0000
  8 H      0.6741     1.0000     0.3259     1.0083     1.0083     0.0000
  9 H      0.4625     1.0000     0.5375     0.6960     0.6960     0.0000
 10 C      7.3721     6.0000    -1.3721     3.3529     3.3529     0.0000
 11 H      0.6899     1.0000     0.3101     1.0092     1.0092     0.0000
 12 H      0.6391     1.0000     0.3609     0.8663     0.8663     0.0000
 13 C      6.5735     6.0000    -0.5735     3.1116     3.1116    -0.0000
 14 H      0.7327     1.0000     0.2673     1.0420     1.0420    -0.0000
 15 H      0.7488     1.0000     0.2512     1.0833     1.0833    -0.0000
 16 H      0.6808     1.0000     0.3192     0.9199     0.9199     0.0000

  Mayer bond orders larger than 0.100000
B(  0-C ,  1-C ) :   0.7122 B(  0-C ,  2-N ) :   0.2246 B(  0-C , 10-C ) :   0.7225 
B(  0-C , 13-C ) :   0.4508 B(  1-C ,  4-N ) :   0.3030 B(  1-C ,  9-H ) :   0.6149 
B(  1-C , 10-C ) :   1.2890 B(  2-N ,  3-N ) :   1.4060 B(  2-N ,  4-N ) :   0.3523 
B(  3-N ,  4-N ) :   1.1457 B(  4-N ,  5-C ) :   0.7773 B(  5-C ,  6-H ) :   0.8994 
B(  5-C ,  7-H ) :   0.8708 B(  5-C ,  8-H ) :   0.9133 B( 10-C , 11-H ) :   0.9128 
B( 10-C , 12-H ) :   0.8410 B( 10-C , 13-C ) :  -0.3188 B( 13-C , 14-H ) :   1.0101 
B( 13-C , 15-H ) :   0.9985 B( 13-C , 16-H ) :   0.9744 

-------
TIMINGS
-------

Total SCF time: 0 days 0 hours 3 min 28 sec 

Total time                  ....     208.354 sec
Sum of individual times     ....     207.523 sec  ( 99.6%)

Fock matrix formation       ....     205.173 sec  ( 98.5%)
Diagonalization             ....       0.675 sec  (  0.3%)
Density matrix formation    ....       0.090 sec  (  0.0%)
Population analysis         ....       0.079 sec  (  0.0%)
Initial guess               ....       0.297 sec  (  0.1%)
Orbital Transformation      ....       0.000 sec  (  0.0%)
Orbital Orthonormalization  ....       0.000 sec  (  0.0%)
DIIS solution               ....       0.347 sec  (  0.2%)
SOSCF solution              ....       0.807 sec  (  0.4%)


           ************************************************************
           *        Program running with 32 parallel MPI-processes    *
           *              working on a common directory               *
           ************************************************************

------------------------------------------------------------------------------
                                ORCA  MP2 
------------------------------------------------------------------------------

Freezing NCore=16 chemical core electrons

-------------
RI-MP2 ENERGY
-------------
Dimension of the basis                    ...  575
Memory devoted to MP2                     ... 4500 MB   
Data format for buffers                   ... DOUBLE
Compression type for matrix containers    ... UNCOMPRESSED
Overall scaling of the MP2 energy         ...   1.000e+00
Calculating two index integrals           ... done (    0.019 sec)
Cholesky decomposition of V**-1           ... done (    0.183 sec)

-----------------
RI-TRANSFORMATION (AUX index driven)
-----------------

Dimension of the orbital-basis         ... 575
Dimension of the aux-basis             ... 1262
Transformation of internal/external MOs...    8-  29 to   30- 574
Number Format for Storage              ... Double (8 Byte)
Integral mode                          ... Direct

First Phase: integral generation and transformation of MO indices
  Aux angular momentum 0               ... done (    0.044 sec)
  Aux angular momentum 1               ... done (    0.071 sec)
  Aux angular momentum 2               ... done (    0.124 sec)
  Aux angular momentum 3               ... done (    0.111 sec)
  Aux angular momentum 4               ... done (    0.084 sec)
Closing buffer VIA ( 0.11 GB; CompressionRatio= 1.00)
  Phase 1 completed in     0.553 sec
Second Phase: sorting and transformation of aux index

IA-Transformation
Memory available                       ... 4462 MB 
Max. # MO pairs treated in a batch     ... 1    
# of internal orbitals                 ... 22
# batches for internal orbitals        ... 1
Closing buffer IAV ( 0.01 GB; CompressionRatio= 1.00)
(ia|v) transformation done in     0.091 sec

  Phase 2 completed in     0.292 sec
RI-Integral transformation completed in     0.857 sec
Opening buffers                              ... done

Starting loop over batches of integrals:

Operator 0  - window                       ... (  8- 29)x( 30-574)
Operator 0  - Memory available             ...  4500 MB
Operator 0  - Memory needed per MO         ...   5.2 MB
Operator 0  - Number of orbitals per batch ... 1
Operator 0  - Number of batches            ... 1

OPERATOR  0   PASS   0:  MOs     8 ...    8 +    9 ...    9 +   10 ...   10 +   11 ...   11
                            +   12 ...   12 +   13 ...   13 +   14 ...   14 +   15 ...   15
                            +   16 ...   16 +   17 ...   17 +   18 ...   18 +   19 ...   19
                            +   20 ...   20 +   21 ...   21 +   22 ...   22 +   23 ...   23
                            +   24 ...   24 +   25 ...   25 +   26 ...   26 +   27 ...   27
                            +   28 ...   28 +   29 ...   29
  Reading integrals       ... ok
Time spent in pair loops =     0.039 sec
Deleting buffer (Ka|jb)[aa] ...done

-----------------------------------------------
 RI-MP2 CORRELATION ENERGY:     -1.523999217 Eh
-----------------------------------------------


-------
TIMINGS
-------

Total time                :    1.604 sec
Integral trafo            :    0.893 sec ( 55.7%)
I/O of integrals          :    0.007 sec (  0.5%)
K(i,j) Operators          :    0.016 sec (  1.0%)
T(i,j) pair energies      :    0.006 sec (  0.4%)
V-calculation             :    0.019 sec (  1.2%)
V**(-1/2)                 :    0.183 sec ( 11.4%)
Gamma(ia|P)               :    0.000 sec (  0.0%)
Gamma-Trafo               :    0.000 sec (  0.0%)
D(virtual)                :    0.000 sec (  0.0%)
D(internal)               :    0.000 sec (  0.0%)
W(virtual)                :    0.000 sec (  0.0%)
W(internal)               :    0.000 sec (  0.0%)
L(virtual)                :    0.000 sec (  0.0%)
L(internal)               :    0.000 sec (  0.0%)
G(D)                      :    0.000 sec (  0.0%)
G(Z)                      :    0.000 sec (  0.0%)
Z-Vector Solution         :    0.000 sec (  0.0%)
3-Index Derivative        :    0.000 sec (  0.0%)
2-Index Derivative        :    0.000 sec (  0.0%)
Separable Gradient        :    0.000 sec (  0.0%)


---------------------------------------
MP2 TOTAL ENERGY:     -359.328844162 Eh
---------------------------------------

-------------------------   --------------------
FINAL SINGLE POINT ENERGY      -359.328844161879
-------------------------   --------------------


                            ***************************************
                            *     ORCA property calculations      *
                            ***************************************


  WARNING: The energy has been calculated at the MP2 level but the densities
           used in the property calculations are still SCF densities
           MP2 response densities have not been calculated 
           use %mp2 Density relaxed end
           or  %mp2 Density unrelaxed end

                                    ---------------------
                                    Active property flags
                                    ---------------------
   (+) Dipole Moment


------------------------------------------------------------------------------
                       ORCA ELECTRIC PROPERTIES CALCULATION
------------------------------------------------------------------------------

Dipole Moment Calculation                       ... on
Quadrupole Moment Calculation                   ... off
Polarizability Calculation                      ... off
GBWName                                         ... /tmp/pbs.2149271.pbsha.ib.sockeye/MP2augccpVTZ_10_9TS.gbw
Electron density file                           ... /tmp/pbs.2149271.pbsha.ib.sockeye/MP2augccpVTZ_10_9TS.scfp
The origin for moment calculation is the CENTER OF MASS  = (-0.026591, -0.048693 -0.058819)

-------------
DIPOLE MOMENT
-------------
                                X             Y             Z
Electronic contribution:     -2.12543      -2.72201      -2.80484
Nuclear contribution   :      1.59546       2.92162       3.52914
                        -----------------------------------------
Total Dipole Moment    :     -0.52997       0.19961       0.72431
                        -----------------------------------------
Magnitude (a.u.)       :      0.91942
Magnitude (Debye)      :      2.33698



--------------------
Rotational spectrum 
--------------------
 
Rotational constants in cm-1:     0.120648     0.049576     0.043067 
Rotational constants in MHz :  3616.936049  1486.249585  1291.120853 

 Dipole components along the rotational axes: 
x,y,z [a.u.] :    -0.518266     0.254801     0.715409 
x,y,z [Debye]:    -1.317328     0.647651     1.818424 

 

Timings for individual modules:

Sum of individual times         ...      215.399 sec (=   3.590 min)
GTO integral calculation        ...        2.193 sec (=   0.037 min)   1.0 %
SCF iterations                  ...      209.915 sec (=   3.499 min)  97.5 %
MP2 module                      ...        3.291 sec (=   0.055 min)   1.5 %
                             ****ORCA TERMINATED NORMALLY****
TOTAL RUN TIME: 0 days 0 hours 3 minutes 37 seconds 77 msec
