 Entering Gaussian System, Link 0=g16
 Input=1-3-dichloronitropropane.gjf
 Output=1-3-dichloronitropropane.log
 Initial command:
 /arc/software/Gaussian/g16.c01/l1.exe "/tmp/slurm/4814233/Gau-1890756.inp" -scrdir="/tmp/slurm/4814233/"
 Entering Link 1 = /arc/software/Gaussian/g16.c01/l1.exe PID=   1890757.
  
 Copyright (c) 1988-2019, Gaussian, Inc.  All Rights Reserved.
  
 This is part of the Gaussian(R) 16 program.  It is based on
 the Gaussian(R) 09 system (copyright 2009, Gaussian, Inc.),
 the Gaussian(R) 03 system (copyright 2003, Gaussian, Inc.),
 the Gaussian(R) 98 system (copyright 1998, Gaussian, Inc.),
 the Gaussian(R) 94 system (copyright 1995, Gaussian, Inc.),
 the Gaussian 92(TM) system (copyright 1992, Gaussian, Inc.),
 the Gaussian 90(TM) system (copyright 1990, Gaussian, Inc.),
 the Gaussian 88(TM) system (copyright 1988, Gaussian, Inc.),
 the Gaussian 86(TM) system (copyright 1986, Carnegie Mellon
 University), and the Gaussian 82(TM) system (copyright 1983,
 Carnegie Mellon University). Gaussian is a federally registered
 trademark of Gaussian, Inc.
  
 This software contains proprietary and confidential information,
 including trade secrets, belonging to Gaussian, Inc.
  
 This software is provided under written license and may be
 used, copied, transmitted, or stored only in accord with that
 written license.
  
 The following legend is applicable only to US Government
 contracts under FAR:
  
                    RESTRICTED RIGHTS LEGEND
  
 Use, reproduction and disclosure by the US Government is
 subject to restrictions as set forth in subparagraphs (a)
 and (c) of the Commercial Computer Software - Restricted
 Rights clause in FAR 52.227-19.
  
 Gaussian, Inc.
 340 Quinnipiac St., Bldg. 40, Wallingford CT 06492
  
  
 ---------------------------------------------------------------
 Warning -- This program may not be used in any manner that
 competes with the business of Gaussian, Inc. or will provide
 assistance to any competitor of Gaussian, Inc.  The licensee
 of this program is prohibited from giving any competitor of
 Gaussian, Inc. access to this program.  By using this program,
 the user acknowledges that Gaussian, Inc. is engaged in the
 business of creating and licensing software in the field of
 computational chemistry and represents and warrants to the
 licensee that it is not a competitor of Gaussian, Inc. and that
 it will not use this program in any manner prohibited above.
 ---------------------------------------------------------------
  

 Cite this work as:
 Gaussian 16, Revision C.01,
 M. J. Frisch, G. W. Trucks, H. B. Schlegel, G. E. Scuseria, 
 M. A. Robb, J. R. Cheeseman, G. Scalmani, V. Barone, 
 G. A. Petersson, H. Nakatsuji, X. Li, M. Caricato, A. V. Marenich, 
 J. Bloino, B. G. Janesko, R. Gomperts, B. Mennucci, H. P. Hratchian, 
 J. V. Ortiz, A. F. Izmaylov, J. L. Sonnenberg, D. Williams-Young, 
 F. Ding, F. Lipparini, F. Egidi, J. Goings, B. Peng, A. Petrone, 
 T. Henderson, D. Ranasinghe, V. G. Zakrzewski, J. Gao, N. Rega, 
 G. Zheng, W. Liang, M. Hada, M. Ehara, K. Toyota, R. Fukuda, 
 J. Hasegawa, M. Ishida, T. Nakajima, Y. Honda, O. Kitao, H. Nakai, 
 T. Vreven, K. Throssell, J. A. Montgomery, Jr., J. E. Peralta, 
 F. Ogliaro, M. J. Bearpark, J. J. Heyd, E. N. Brothers, K. N. Kudin, 
 V. N. Staroverov, T. A. Keith, R. Kobayashi, J. Normand, 
 K. Raghavachari, A. P. Rendell, J. C. Burant, S. S. Iyengar, 
 J. Tomasi, M. Cossi, J. M. Millam, M. Klene, C. Adamo, R. Cammi, 
 J. W. Ochterski, R. L. Martin, K. Morokuma, O. Farkas, 
 J. B. Foresman, and D. J. Fox, Gaussian, Inc., Wallingford CT, 2019.
 
 ******************************************
 Gaussian 16:  ES64L-G16RevC.01  3-Jul-2019
                 5-Apr-2025 
 ******************************************
 %nprocs=16
 Will use up to   16 processors via shared memory.
 %mem=30GB
 %chk=1-3-dichloronitropropane.chk
 ----------------------------------------------------------------------
 #t hf aug-cc-pvdz symm=none int=(grid=ultrafine) guess=(read,tcheck) s
 table=(opt,rrhf)
 ----------------------------------------------------------------------
 -----
 title
 -----
 Symbolic Z-matrix:
 Charge =  0 Multiplicity = 1
 Cl                    1.96967  -1.39262  -0.22716 
 Cl                   -2.72637  -0.16664  -0.54948 
 O                     1.29967   1.49774   1.06098 
 O                     1.14204   1.75074  -1.08822 
 N                     1.03985   1.10833  -0.06188 
 C                     0.52806  -0.33245  -0.21422 
 C                    -0.42503  -0.70482   0.90065 
 C                    -1.70649   0.11367   0.92497 
 H                     0.08621  -0.36679  -1.20197 
 H                    -0.66279  -1.76172   0.78615 
 H                     0.08628  -0.57712   1.85535 
 H                    -2.31763  -0.17409   1.77433 
 H                    -1.52002   1.18262   0.97162 
 
                    Distance matrix (angstroms):
                    1          2          3          4          5
     1  Cl   0.000000
     2  Cl   4.864129   0.000000
     3  O    3.234562   4.644644   0.000000
     4  O    3.362612   4.350999   2.169769   0.000000
     5  N    2.673323   4.005963   1.216531   1.215117   0.000000
     6  C    1.789521   3.275855   2.360312   2.341051   1.536545
     7  C    2.734888   2.772844   2.802067   3.527193   2.521877
     8  C    4.136476   1.814592   3.312268   3.853186   3.083115
     9  H    2.355848   2.894206   3.173307   2.368893   2.094092
    10  H    2.844792   2.930283   3.814554   4.371271   3.443152
    11  H    2.923875   3.723264   2.531483   3.898486   2.725037
    12  H    4.885868   2.359499   4.048298   4.885537   4.035956
    13  H    4.499650   2.364219   2.838644   3.413535   2.761621
                    6          7          8          9         10
     6  C    0.000000
     7  C    1.513265   0.000000
     8  C    2.547541   1.520735   0.000000
     9  H    1.082620   2.190120   2.822849   0.000000
    10  H    2.112265   1.089341   2.150731   2.541540   0.000000
    11  H    2.130293   1.090507   2.134664   3.064547   1.762826
    12  H    3.475249   2.151028   1.085225   3.830660   2.497113
    13  H    2.810026   2.183224   1.086099   3.115304   3.072193
                   11         12         13
    11  H    0.000000
    12  H    2.438802   0.000000
    13  H    2.541231   1.766692   0.000000
 Symmetry turned off by external request.
 Rotational constants (GHZ):           1.9239194           0.8615231           0.7316766
   237 basis functions,   475 primitive gaussians,   253 cartesian basis functions
    40 alpha electrons       40 beta electrons
       nuclear repulsion energy       534.0007282267 Hartrees.
 NAtoms=   13 NActive=   13 NUniq=   13 SFac= 1.00D+00 NAtFMM=   60 NAOKFM=F Big=F
 ExpMin= 2.97D-02 ExpMax= 1.28D+05 ExpMxC= 1.24D+03 IAcc=3 IRadAn=         5 AccDes= 0.00D+00
 Harris functional with IExCor=  205 and IRadAn=       5 diagonalized for initial guess.
 HarFok:  IExCor=  205 AccDes= 0.00D+00 IRadAn=         5 IDoV= 1 UseB2=F ITyADJ=14
 ICtDFT=  3500011 ScaDFX=  1.000000  1.000000  1.000000  1.000000
 FoFCou: FMM=F IPFlag=           0 FMFlag=      100000 FMFlg1=           0
         NFxFlg=           0 DoJE=T BraDBF=F KetDBF=T FulRan=T
         wScrn=  0.000000 ICntrl=       500 IOpCl=  0 I1Cent=   200000004 NGrid=           0
         NMat0=    1 NMatS0=      1 NMatT0=    0 NMatD0=    1 NMtDS0=    0 NMtDT0=    0
 Symmetry not used in FoFCou.
 SCF Done:  E(RHF) =  -1239.62421238     A.U. after   15 cycles
            NFock= 15  Conv=0.81D-08     -V/T= 2.0004

 **********************************************************************

            Population analysis using the SCF Density.

 **********************************************************************

 Alpha  occ. eigenvalues -- -104.87186-104.84502 -20.63803 -20.63481 -15.87678
 Alpha  occ. eigenvalues --  -11.39559 -11.33291 -11.29386 -10.59756 -10.57097
 Alpha  occ. eigenvalues --   -8.06528  -8.06185  -8.06169  -8.03856  -8.03549
 Alpha  occ. eigenvalues --   -8.03537  -1.63667  -1.43253  -1.21601  -1.15876
 Alpha  occ. eigenvalues --   -1.07258  -1.01601  -0.90603  -0.84279  -0.77864
 Alpha  occ. eigenvalues --   -0.75108  -0.74414  -0.68388  -0.66077  -0.62139
 Alpha  occ. eigenvalues --   -0.58998  -0.57171  -0.53425  -0.52234  -0.51586
 Alpha  occ. eigenvalues --   -0.48858  -0.47660  -0.47099  -0.45733  -0.45558
 Alpha virt. eigenvalues --    0.03080   0.04462   0.04901   0.05485   0.05913
 Alpha virt. eigenvalues --    0.07026   0.08379   0.08919   0.11129   0.12399
 Alpha virt. eigenvalues --    0.13088   0.14186   0.14775   0.15185   0.15878
 Alpha virt. eigenvalues --    0.16029   0.16680   0.16968   0.17417   0.17713
 Alpha virt. eigenvalues --    0.18459   0.18482   0.18945   0.20109   0.21122
 Alpha virt. eigenvalues --    0.21718   0.22673   0.25348   0.26350   0.26500
 Alpha virt. eigenvalues --    0.27348   0.28985   0.29566   0.30323   0.31334
 Alpha virt. eigenvalues --    0.32826   0.32946   0.33772   0.35152   0.35529
 Alpha virt. eigenvalues --    0.36277   0.37689   0.38447   0.39675   0.40469
 Alpha virt. eigenvalues --    0.41481   0.42404   0.42934   0.43690   0.45038
 Alpha virt. eigenvalues --    0.46365   0.46474   0.47076   0.48159   0.48713
 Alpha virt. eigenvalues --    0.50701   0.51666   0.54012   0.54260   0.54805
 Alpha virt. eigenvalues --    0.55365   0.57180   0.58026   0.58859   0.59249
 Alpha virt. eigenvalues --    0.62058   0.62895   0.64491   0.64777   0.65470
 Alpha virt. eigenvalues --    0.66810   0.68127   0.69163   0.71252   0.71942
 Alpha virt. eigenvalues --    0.74245   0.75093   0.76712   0.77120   0.78306
 Alpha virt. eigenvalues --    0.78650   0.80811   0.81915   0.83959   0.84965
 Alpha virt. eigenvalues --    0.85358   0.87363   0.88268   0.89196   0.92818
 Alpha virt. eigenvalues --    0.94060   0.94898   0.99461   1.00923   1.01839
 Alpha virt. eigenvalues --    1.03649   1.04573   1.06292   1.08363   1.09448
 Alpha virt. eigenvalues --    1.10556   1.13896   1.15071   1.17866   1.18726
 Alpha virt. eigenvalues --    1.19954   1.21699   1.23980   1.26578   1.26829
 Alpha virt. eigenvalues --    1.28858   1.30210   1.30822   1.33431   1.33919
 Alpha virt. eigenvalues --    1.36364   1.38954   1.40345   1.40802   1.42276
 Alpha virt. eigenvalues --    1.42744   1.44301   1.45588   1.46205   1.47574
 Alpha virt. eigenvalues --    1.49882   1.50671   1.51882   1.52374   1.56334
 Alpha virt. eigenvalues --    1.56728   1.58457   1.63446   1.64985   1.66123
 Alpha virt. eigenvalues --    1.69371   1.72424   1.76890   1.78764   1.80435
 Alpha virt. eigenvalues --    1.83946   1.86508   1.87733   1.88073   1.92529
 Alpha virt. eigenvalues --    1.93908   1.97078   1.99789   2.04630   2.06940
 Alpha virt. eigenvalues --    2.08842   2.11064   2.12891   2.13097   2.15431
 Alpha virt. eigenvalues --    2.22716   2.24178   2.26940   2.29151   2.31307
 Alpha virt. eigenvalues --    2.35600   2.37878   2.38556   2.43268   2.47039
 Alpha virt. eigenvalues --    2.48718   2.52996   2.54531   2.56189   2.60410
 Alpha virt. eigenvalues --    2.62946   2.65799   2.67083   2.69012   2.76526
 Alpha virt. eigenvalues --    2.80700   2.84993   2.89335   2.97312   3.00647
 Alpha virt. eigenvalues --    3.03010   3.08250   3.18787   3.28569   3.30798
 Alpha virt. eigenvalues --    3.56700   3.66291   3.69449   3.71443   3.74799
 Alpha virt. eigenvalues --    3.80229   3.86264   3.90010   3.99947   4.14513
 Alpha virt. eigenvalues --    4.19174   4.42452
          Condensed to atoms (all electrons):
 Mulliken charges:
               1
     1  Cl  -0.046776
     2  Cl  -0.117237
     3  O   -0.842468
     4  O   -0.796566
     5  N    0.885325
     6  C    0.453188
     7  C    0.394902
     8  C    0.024776
     9  H   -0.098872
    10  H   -0.026457
    11  H    0.066535
    12  H    0.057359
    13  H    0.046291
 Sum of Mulliken charges =  -0.00000
 Mulliken charges with hydrogens summed into heavy atoms:
               1
     1  Cl  -0.046776
     2  Cl  -0.117237
     3  O   -0.842468
     4  O   -0.796566
     5  N    0.885325
     6  C    0.354316
     7  C    0.434980
     8  C    0.128426
 Electronic spatial extent (au):  <R**2>=           1536.0748
 Charge=             -0.0000 electrons
 Dipole moment (field-independent basis, Debye):
    X=             -1.6097    Y=             -2.4578    Z=              1.7684  Tot=              3.4292
 NROrb=    237 NOA=    40 NOB=    40 NVA=   197 NVB=   197

 **** Warning!!: The largest alpha MO coefficient is  0.36063918D+02

    12 initial guesses have been made.
 Iteration     1 Dimension    12 NMult     0 NNew     12
 New state      1 was old state      6
 Iteration     2 Dimension    24 NMult    12 NNew     12
 Iteration     3 Dimension    27 NMult    24 NNew      3
 Iteration     4 Dimension    30 NMult    27 NNew      3
 Iteration     5 Dimension    33 NMult    30 NNew      3
 Iteration     6 Dimension    36 NMult    33 NNew      3
 ***********************************************************************
 Stability analysis using <AA,BB:AA,BB> singles matrix:
 ***********************************************************************
 Ground to excited state transition densities written to RWF  633

 Eigenvectors of the stability matrix:
 
 Excited state symmetry could not be determined.
 Eigenvector   1:      Singlet-?Sym  Eigenvalue= 0.1885265  <S**2>=0.000
      35 -> 43         0.29772
      35 -> 44         0.22427
      35 -> 45         0.27439
      35 -> 46        -0.14920
      35 -> 47        -0.14230
      37 -> 43        -0.21514
      37 -> 44        -0.16544
      37 -> 45        -0.19842
      37 -> 46         0.10570
 The wavefunction is stable under the perturbations considered.
 The wavefunction is already stable.

 **********************************************************************

            Population analysis using the SCF Density.

 **********************************************************************

 Alpha  occ. eigenvalues -- -104.87186-104.84502 -20.63803 -20.63481 -15.87678
 Alpha  occ. eigenvalues --  -11.39559 -11.33291 -11.29386 -10.59756 -10.57097
 Alpha  occ. eigenvalues --   -8.06528  -8.06185  -8.06169  -8.03856  -8.03549
 Alpha  occ. eigenvalues --   -8.03537  -1.63667  -1.43253  -1.21601  -1.15876
 Alpha  occ. eigenvalues --   -1.07258  -1.01601  -0.90603  -0.84279  -0.77864
 Alpha  occ. eigenvalues --   -0.75108  -0.74414  -0.68388  -0.66077  -0.62139
 Alpha  occ. eigenvalues --   -0.58998  -0.57171  -0.53425  -0.52234  -0.51586
 Alpha  occ. eigenvalues --   -0.48858  -0.47660  -0.47099  -0.45733  -0.45558
 Alpha virt. eigenvalues --    0.03080   0.04462   0.04901   0.05485   0.05913
 Alpha virt. eigenvalues --    0.07026   0.08379   0.08919   0.11129   0.12399
 Alpha virt. eigenvalues --    0.13088   0.14186   0.14775   0.15185   0.15878
 Alpha virt. eigenvalues --    0.16029   0.16680   0.16968   0.17417   0.17713
 Alpha virt. eigenvalues --    0.18459   0.18482   0.18945   0.20109   0.21122
 Alpha virt. eigenvalues --    0.21718   0.22673   0.25348   0.26350   0.26500
 Alpha virt. eigenvalues --    0.27348   0.28985   0.29566   0.30323   0.31334
 Alpha virt. eigenvalues --    0.32826   0.32946   0.33772   0.35152   0.35529
 Alpha virt. eigenvalues --    0.36277   0.37689   0.38447   0.39675   0.40469
 Alpha virt. eigenvalues --    0.41481   0.42404   0.42934   0.43690   0.45038
 Alpha virt. eigenvalues --    0.46365   0.46474   0.47076   0.48159   0.48713
 Alpha virt. eigenvalues --    0.50701   0.51666   0.54012   0.54260   0.54805
 Alpha virt. eigenvalues --    0.55365   0.57180   0.58026   0.58859   0.59249
 Alpha virt. eigenvalues --    0.62058   0.62895   0.64491   0.64777   0.65470
 Alpha virt. eigenvalues --    0.66810   0.68127   0.69163   0.71252   0.71942
 Alpha virt. eigenvalues --    0.74245   0.75093   0.76712   0.77120   0.78306
 Alpha virt. eigenvalues --    0.78650   0.80811   0.81915   0.83959   0.84965
 Alpha virt. eigenvalues --    0.85358   0.87363   0.88268   0.89196   0.92818
 Alpha virt. eigenvalues --    0.94060   0.94898   0.99461   1.00923   1.01839
 Alpha virt. eigenvalues --    1.03649   1.04573   1.06292   1.08363   1.09448
 Alpha virt. eigenvalues --    1.10556   1.13896   1.15071   1.17866   1.18726
 Alpha virt. eigenvalues --    1.19954   1.21699   1.23980   1.26578   1.26829
 Alpha virt. eigenvalues --    1.28858   1.30210   1.30822   1.33431   1.33919
 Alpha virt. eigenvalues --    1.36364   1.38954   1.40345   1.40802   1.42276
 Alpha virt. eigenvalues --    1.42744   1.44301   1.45588   1.46205   1.47574
 Alpha virt. eigenvalues --    1.49882   1.50671   1.51882   1.52374   1.56334
 Alpha virt. eigenvalues --    1.56728   1.58457   1.63446   1.64985   1.66123
 Alpha virt. eigenvalues --    1.69371   1.72424   1.76890   1.78764   1.80435
 Alpha virt. eigenvalues --    1.83946   1.86508   1.87733   1.88073   1.92529
 Alpha virt. eigenvalues --    1.93908   1.97078   1.99789   2.04630   2.06940
 Alpha virt. eigenvalues --    2.08842   2.11064   2.12891   2.13097   2.15431
 Alpha virt. eigenvalues --    2.22716   2.24178   2.26940   2.29151   2.31307
 Alpha virt. eigenvalues --    2.35600   2.37878   2.38556   2.43268   2.47039
 Alpha virt. eigenvalues --    2.48718   2.52996   2.54531   2.56189   2.60410
 Alpha virt. eigenvalues --    2.62946   2.65799   2.67083   2.69012   2.76526
 Alpha virt. eigenvalues --    2.80700   2.84993   2.89335   2.97312   3.00647
 Alpha virt. eigenvalues --    3.03010   3.08250   3.18787   3.28569   3.30798
 Alpha virt. eigenvalues --    3.56700   3.66291   3.69449   3.71443   3.74799
 Alpha virt. eigenvalues --    3.80229   3.86264   3.90010   3.99947   4.14513
 Alpha virt. eigenvalues --    4.19174   4.42452
          Condensed to atoms (all electrons):
 Mulliken charges:
               1
     1  Cl  -0.046776
     2  Cl  -0.117237
     3  O   -0.842468
     4  O   -0.796566
     5  N    0.885325
     6  C    0.453188
     7  C    0.394902
     8  C    0.024776
     9  H   -0.098872
    10  H   -0.026457
    11  H    0.066535
    12  H    0.057359
    13  H    0.046291
 Sum of Mulliken charges =  -0.00000
 Mulliken charges with hydrogens summed into heavy atoms:
               1
     1  Cl  -0.046776
     2  Cl  -0.117237
     3  O   -0.842468
     4  O   -0.796566
     5  N    0.885325
     6  C    0.354316
     7  C    0.434980
     8  C    0.128426
 Electronic spatial extent (au):  <R**2>=           1536.0748
 Charge=             -0.0000 electrons
 Dipole moment (field-independent basis, Debye):
    X=             -1.6097    Y=             -2.4578    Z=              1.7684  Tot=              3.4292
 Unable to Open any file for archive entry.
 1\1\GINC-SE036\Stability\RHF\Aug-CC-pVDZ\C3H5Cl2N1O2\OHZDE\05-Apr-2025
 \0\\#t hf aug-cc-pvdz symm=none int=(grid=ultrafine) guess=(read,tchec
 k) stable=(opt,rrhf)\\title\\0,1\Cl,0,1.969671,-1.392624,-0.227155\Cl,
 0,-2.726372,-0.166639,-0.54948\O,0,1.299667,1.49774,1.060977\O,0,1.142
 038,1.750743,-1.088218\N,0,1.039851,1.108331,-0.061878\C,0,0.528061,-0
 .332445,-0.214217\C,0,-0.425033,-0.704823,0.900645\C,0,-1.706486,0.113
 665,0.924971\H,0,0.086211,-0.36679,-1.20197\H,0,-0.662786,-1.761718,0.
 786146\H,0,0.086276,-0.577124,1.85535\H,0,-2.317628,-0.174091,1.774333
 \H,0,-1.520016,1.18262,0.971618\\Version=ES64L-G16RevC.01\HF=-1239.624
 2124\RMSD=8.086e-09\Dipole=-0.6333032,-0.9669835,0.6957479\Quadrupole=
 -1.9669608,-0.9890404,2.9560011,-2.8006529,-3.0487309,0.035384\PG=Unkn
 own\\@
 The archive entry for this job was punched.


 GOOD SENSE ABOUT TRIVIALITIES IS BETTER THAN NONSENSE
 ABOUT THINGS THAT MATTER

                                       -- MAX BEERBOHM
 Job cpu time:       0 days  0 hours  9 minutes 31.6 seconds.
 Elapsed time:       0 days  0 hours  0 minutes 41.2 seconds.
 File lengths (MBytes):  RWF=    332 Int=      0 D2E=      0 Chk=      9 Scr=      1
 Normal termination of Gaussian 16 at Sat Apr  5 22:10:23 2025.
 Initial command:
 /arc/software/Gaussian/g16.c01/l1.exe "/tmp/slurm/4814233/Gau-1890756.inp" -scrdir="/tmp/slurm/4814233/"
 Entering Link 1 = /arc/software/Gaussian/g16.c01/l1.exe PID=   1890980.
  
 Copyright (c) 1988-2019, Gaussian, Inc.  All Rights Reserved.
  
 This is part of the Gaussian(R) 16 program.  It is based on
 the Gaussian(R) 09 system (copyright 2009, Gaussian, Inc.),
 the Gaussian(R) 03 system (copyright 2003, Gaussian, Inc.),
 the Gaussian(R) 98 system (copyright 1998, Gaussian, Inc.),
 the Gaussian(R) 94 system (copyright 1995, Gaussian, Inc.),
 the Gaussian 92(TM) system (copyright 1992, Gaussian, Inc.),
 the Gaussian 90(TM) system (copyright 1990, Gaussian, Inc.),
 the Gaussian 88(TM) system (copyright 1988, Gaussian, Inc.),
 the Gaussian 86(TM) system (copyright 1986, Carnegie Mellon
 University), and the Gaussian 82(TM) system (copyright 1983,
 Carnegie Mellon University). Gaussian is a federally registered
 trademark of Gaussian, Inc.
  
 This software contains proprietary and confidential information,
 including trade secrets, belonging to Gaussian, Inc.
  
 This software is provided under written license and may be
 used, copied, transmitted, or stored only in accord with that
 written license.
  
 The following legend is applicable only to US Government
 contracts under FAR:
  
                    RESTRICTED RIGHTS LEGEND
  
 Use, reproduction and disclosure by the US Government is
 subject to restrictions as set forth in subparagraphs (a)
 and (c) of the Commercial Computer Software - Restricted
 Rights clause in FAR 52.227-19.
  
 Gaussian, Inc.
 340 Quinnipiac St., Bldg. 40, Wallingford CT 06492
  
  
 ---------------------------------------------------------------
 Warning -- This program may not be used in any manner that
 competes with the business of Gaussian, Inc. or will provide
 assistance to any competitor of Gaussian, Inc.  The licensee
 of this program is prohibited from giving any competitor of
 Gaussian, Inc. access to this program.  By using this program,
 the user acknowledges that Gaussian, Inc. is engaged in the
 business of creating and licensing software in the field of
 computational chemistry and represents and warrants to the
 licensee that it is not a competitor of Gaussian, Inc. and that
 it will not use this program in any manner prohibited above.
 ---------------------------------------------------------------
  

 Cite this work as:
 Gaussian 16, Revision C.01,
 M. J. Frisch, G. W. Trucks, H. B. Schlegel, G. E. Scuseria, 
 M. A. Robb, J. R. Cheeseman, G. Scalmani, V. Barone, 
 G. A. Petersson, H. Nakatsuji, X. Li, M. Caricato, A. V. Marenich, 
 J. Bloino, B. G. Janesko, R. Gomperts, B. Mennucci, H. P. Hratchian, 
 J. V. Ortiz, A. F. Izmaylov, J. L. Sonnenberg, D. Williams-Young, 
 F. Ding, F. Lipparini, F. Egidi, J. Goings, B. Peng, A. Petrone, 
 T. Henderson, D. Ranasinghe, V. G. Zakrzewski, J. Gao, N. Rega, 
 G. Zheng, W. Liang, M. Hada, M. Ehara, K. Toyota, R. Fukuda, 
 J. Hasegawa, M. Ishida, T. Nakajima, Y. Honda, O. Kitao, H. Nakai, 
 T. Vreven, K. Throssell, J. A. Montgomery, Jr., J. E. Peralta, 
 F. Ogliaro, M. J. Bearpark, J. J. Heyd, E. N. Brothers, K. N. Kudin, 
 V. N. Staroverov, T. A. Keith, R. Kobayashi, J. Normand, 
 K. Raghavachari, A. P. Rendell, J. C. Burant, S. S. Iyengar, 
 J. Tomasi, M. Cossi, J. M. Millam, M. Klene, C. Adamo, R. Cammi, 
 J. W. Ochterski, R. L. Martin, K. Morokuma, O. Farkas, 
 J. B. Foresman, and D. J. Fox, Gaussian, Inc., Wallingford CT, 2019.
 
 ******************************************
 Gaussian 16:  ES64L-G16RevC.01  3-Jul-2019
                 5-Apr-2025 
 ******************************************
 %nprocs=16
 Will use up to   16 processors via shared memory.
 %mem=30GB
 %chk=1-3-dichloronitropropane.chk
 ----------------------------------------------------------------------
 #t hf aug-cc-pvdz iop(5/13=1,5/36=2,99/5=2) pseudo=read geom=check gue
 ss=(read,tcheck) scf=(maxcycle=1)
 ----------------------------------------------------------------------
 -----
 title
 -----
 Structure from the checkpoint file:  "1-3-dichloronitropropane.chk"
 Charge =  0 Multiplicity = 1
 Z-Matrix found in chk file.
 Cl,0,1.969671,-1.392624,-0.227155
 Cl,0,-2.726372,-0.166639,-0.54948
 O,0,1.299667,1.49774,1.060977
 O,0,1.142038,1.750743,-1.088218
 N,0,1.039851,1.108331,-0.061878
 C,0,0.528061,-0.332445,-0.214217
 C,0,-0.425033,-0.704823,0.900645
 C,0,-1.706486,0.113665,0.924971
 H,0,0.086211,-0.36679,-1.20197
 H,0,-0.662786,-1.761718,0.786146
 H,0,0.086276,-0.577124,1.85535
 H,0,-2.317628,-0.174091,1.774333
 H,0,-1.520016,1.18262,0.971618
 Recover connectivity data from disk.
                    Distance matrix (angstroms):
                    1          2          3          4          5
     1  Cl   0.000000
     2  Cl   4.864129   0.000000
     3  O    3.234562   4.644644   0.000000
     4  O    3.362612   4.350999   2.169769   0.000000
     5  N    2.673323   4.005963   1.216531   1.215117   0.000000
     6  C    1.789521   3.275855   2.360312   2.341051   1.536545
     7  C    2.734888   2.772844   2.802067   3.527193   2.521877
     8  C    4.136476   1.814592   3.312268   3.853186   3.083115
     9  H    2.355848   2.894206   3.173307   2.368893   2.094092
    10  H    2.844792   2.930283   3.814554   4.371271   3.443152
    11  H    2.923875   3.723264   2.531483   3.898486   2.725037
    12  H    4.885868   2.359499   4.048298   4.885537   4.035956
    13  H    4.499650   2.364219   2.838644   3.413535   2.761621
                    6          7          8          9         10
     6  C    0.000000
     7  C    1.513265   0.000000
     8  C    2.547541   1.520735   0.000000
     9  H    1.082620   2.190120   2.822849   0.000000
    10  H    2.112265   1.089341   2.150731   2.541540   0.000000
    11  H    2.130293   1.090507   2.134664   3.064547   1.762826
    12  H    3.475249   2.151028   1.085225   3.830660   2.497113
    13  H    2.810026   2.183224   1.086099   3.115304   3.072193
                   11         12         13
    11  H    0.000000
    12  H    2.438802   0.000000
    13  H    2.541231   1.766692   0.000000
 Framework group  C1[X(C3H5Cl2NO2)]
 Deg. of freedom    33
                         Standard orientation:                         
 ---------------------------------------------------------------------
 Center     Atomic      Atomic             Coordinates (Angstroms)
 Number     Number       Type             X           Y           Z
 ---------------------------------------------------------------------
      1         17           0        1.969671   -1.392624   -0.227155
      2         17           0       -2.726372   -0.166639   -0.549480
      3          8           0        1.299667    1.497740    1.060977
      4          8           0        1.142038    1.750743   -1.088218
      5          7           0        1.039851    1.108331   -0.061878
      6          6           0        0.528061   -0.332445   -0.214217
      7          6           0       -0.425033   -0.704823    0.900645
      8          6           0       -1.706486    0.113665    0.924971
      9          1           0        0.086211   -0.366790   -1.201970
     10          1           0       -0.662786   -1.761718    0.786146
     11          1           0        0.086276   -0.577124    1.855350
     12          1           0       -2.317628   -0.174091    1.774333
     13          1           0       -1.520016    1.182620    0.971618
 ---------------------------------------------------------------------
 Rotational constants (GHZ):           1.9239194           0.8615231           0.7316766
 ======================================================================================================
                                       Pseudopotential Parameters
 ======================================================================================================
  Center     Atomic      Valence      Angular      Power
  Number     Number     Electrons     Momentum     of R      Exponent        Coefficient   SO-Coeffient
 ======================================================================================================
    1         17           17
                                      G and up 
                                                     0        0.0000010       -0.00005841    0.00000000
                                                     2        0.1200000       -0.00031502    0.00000000
                                                     2        0.1400000        0.00458821    0.00000000
                                                     2        0.2600000       -0.03604686    0.00000000
                                                     2        0.4000000        0.03832573    0.00000000
                                                     2        1.1000000       -0.21042623    0.00000000
                                      S - G
                                                     0        0.0000010        0.00274387    0.00000000
                                                     2        0.1800000        0.09962839    0.00000000
                                                     2        0.4000000       -0.20830181    0.00000000
                                      P - G
                                                     0        0.0000010       -0.01867126    0.00000000
                                                     2        0.1200000        0.19610675    0.00000000
                                                     2        0.1600000       -0.37005054    0.00000000
                                                     2        0.3000000        0.29573883    0.00000000
                                      D - G
                                                     0        0.0000010        0.06766179    0.00000000
                                                     2        0.1200000       -0.07333140    0.00000000
                                                     2        0.2200000        0.05439691    0.00000000
                                      F - G
                                                     0        0.0000010       -0.02719671    0.00000000
                                                     2        0.1200000       -0.06013675    0.00000000
                                                     2        0.2000000        0.35339430    0.00000000
                                                     2        0.4000000       -0.66518555    0.00000000
    2         17           17
                                      G and up 
                                                     0        0.0000010       -0.00005841    0.00000000
                                                     2        0.1200000       -0.00031502    0.00000000
                                                     2        0.1400000        0.00458821    0.00000000
                                                     2        0.2600000       -0.03604686    0.00000000
                                                     2        0.4000000        0.03832573    0.00000000
                                                     2        1.1000000       -0.21042623    0.00000000
                                      S - G
                                                     0        0.0000010        0.00274387    0.00000000
                                                     2        0.1800000        0.09962839    0.00000000
                                                     2        0.4000000       -0.20830181    0.00000000
                                      P - G
                                                     0        0.0000010       -0.01867126    0.00000000
                                                     2        0.1200000        0.19610675    0.00000000
                                                     2        0.1600000       -0.37005054    0.00000000
                                                     2        0.3000000        0.29573883    0.00000000
                                      D - G
                                                     0        0.0000010        0.06766179    0.00000000
                                                     2        0.1200000       -0.07333140    0.00000000
                                                     2        0.2200000        0.05439691    0.00000000
                                      F - G
                                                     0        0.0000010       -0.02719671    0.00000000
                                                     2        0.1200000       -0.06013675    0.00000000
                                                     2        0.2000000        0.35339430    0.00000000
                                                     2        0.4000000       -0.66518555    0.00000000
    3          8            8
                                      G and up 
                                                     0        0.0000010        0.00001165    0.00000000
                                                     2        0.1200000       -0.01744018    0.00000000
                                                     2        0.1400000        0.05401326    0.00000000
                                                     2        0.1800000       -0.08231208    0.00000000
                                                     2        0.2600000        0.11570222    0.00000000
                                                     2        0.4000000       -0.20630360    0.00000000
                                                     2        0.7000000        0.38074319    0.00000000
                                                     2        1.2000000       -0.17045091    0.00000000
                                                     2        2.0000000       -1.45433187    0.00000000
                                      S - G
                                                     0        0.0000010       -0.00117944    0.00000000
                                                     2        0.1400000        0.04368312    0.00000000
                                                     2        0.3000000       -0.33477926    0.00000000
                                                     2        0.6000000        1.52630657    0.00000000
                                                     2        1.5000000       -2.50804716    0.00000000
                                                     2        3.0000000        2.89751681    0.00000000
                                      P - G
                                                     0        0.0000010        0.06576007    0.00000000
                                                     2        0.1200000       -0.10329304    0.00000000
                                                     2        0.2000000        0.24891756    0.00000000
                                                     2        0.4000000       -0.50800022    0.00000000
                                                     2        0.9000000        0.81480796    0.00000000
                                      D - G
                                                     0        0.0000010       -0.14101855    0.00000000
                                                     2        0.1200000        0.22105937    0.00000000
                                                     2        0.1800000       -0.45814988    0.00000000
                                                     2        0.3000000        0.46029282    0.00000000
                                      F - G
                                                     0        0.0000010        0.07483044    0.00000000
                                                     2        0.1200000       -0.09134252    0.00000000
                                                     2        0.1400000        0.04125459    0.00000000
                                                     2        0.3000000        0.37914837    0.00000000
                                                     2        0.5000000       -0.86881279    0.00000000
    4          8            8
                                      G and up 
                                                     0        0.0000010        0.00001165    0.00000000
                                                     2        0.1200000       -0.01744018    0.00000000
                                                     2        0.1400000        0.05401326    0.00000000
                                                     2        0.1800000       -0.08231208    0.00000000
                                                     2        0.2600000        0.11570222    0.00000000
                                                     2        0.4000000       -0.20630360    0.00000000
                                                     2        0.7000000        0.38074319    0.00000000
                                                     2        1.2000000       -0.17045091    0.00000000
                                                     2        2.0000000       -1.45433187    0.00000000
                                      S - G
                                                     0        0.0000010       -0.00117944    0.00000000
                                                     2        0.1400000        0.04368312    0.00000000
                                                     2        0.3000000       -0.33477926    0.00000000
                                                     2        0.6000000        1.52630657    0.00000000
                                                     2        1.5000000       -2.50804716    0.00000000
                                                     2        3.0000000        2.89751681    0.00000000
                                      P - G
                                                     0        0.0000010        0.06576007    0.00000000
                                                     2        0.1200000       -0.10329304    0.00000000
                                                     2        0.2000000        0.24891756    0.00000000
                                                     2        0.4000000       -0.50800022    0.00000000
                                                     2        0.9000000        0.81480796    0.00000000
                                      D - G
                                                     0        0.0000010       -0.14101855    0.00000000
                                                     2        0.1200000        0.22105937    0.00000000
                                                     2        0.1800000       -0.45814988    0.00000000
                                                     2        0.3000000        0.46029282    0.00000000
                                      F - G
                                                     0        0.0000010        0.07483044    0.00000000
                                                     2        0.1200000       -0.09134252    0.00000000
                                                     2        0.1400000        0.04125459    0.00000000
                                                     2        0.3000000        0.37914837    0.00000000
                                                     2        0.5000000       -0.86881279    0.00000000
    5          7            7
                                      G and up 
                                                     0        0.0000010       -0.00000022    0.00000000
                                                     2        0.1200000       -0.00992020    0.00000000
                                                     2        0.1400000        0.02578711    0.00000000
                                                     2        0.2200000       -0.10543517    0.00000000
                                                     2        0.3000000        0.23013665    0.00000000
                                                     2        0.5000000       -0.60834094    0.00000000
                                                     2        0.8000000        1.81436815    0.00000000
                                                     2        1.2000000       -3.87539738    0.00000000
                                                     2        2.0000000        2.94656640    0.00000000
                                      S - G
                                                     0        0.0000010       -0.00223566    0.00000000
                                                     2        0.1200000        0.45247937    0.00000000
                                                     2        0.1600000       -0.78978304    0.00000000
                                                     2        0.4000000        0.84956595    0.00000000
                                                     2        3.0000000       -0.75910174    0.00000000
                                      P - G
                                                     0        0.0000010       -0.25576737    0.00000000
                                                     2        0.1200000       -0.19992277    0.00000000
                                                     2        0.1600000        0.88518512    0.00000000
                                                     2        0.2400000       -1.33293917    0.00000000
                                                     2        0.4000000        1.33451776    0.00000000
                                                     2        0.9000000       -0.55709210    0.00000000
                                                     2        2.5000000        2.48506502    0.00000000
                                      D - G
                                                     0        0.0000010        0.26143746    0.00000000
                                                     2        0.1200000       -0.04492212    0.00000000
                                                     2        0.1400000       -0.18274021    0.00000000
                                                     2        0.2400000        0.53490004    0.00000000
                                                     2        0.4000000       -0.74136473    0.00000000
                                                     2        1.3000000        1.71401021    0.00000000
                                      F - G
                                                     0        0.0000010       -0.07169988    0.00000000
                                                     2        0.1200000        0.04480029    0.00000000
                                                     2        0.2600000       -0.08050831    0.00000000
                                                     2        0.5000000        0.31290809    0.00000000
                                                     2        1.0000000       -0.45253098    0.00000000
    6          6            6
                                      G and up 
                                                     0        0.0000010       -0.00011185    0.00000000
                                                     2        0.1200000       -0.02301220    0.00000000
                                                     2        0.1400000        0.13317600    0.00000000
                                                     2        0.1600000       -0.19690668    0.00000000
                                                     2        0.2200000        0.23163694    0.00000000
                                                     2        0.3000000       -0.36920489    0.00000000
                                                     2        0.4000000        0.36389709    0.00000000
                                                     2        0.7000000       -0.38862160    0.00000000
                                                     2        1.3000000        0.80803421    0.00000000
                                      S - G
                                                     0        0.0000010        0.00312304    0.00000000
                                                     2        0.1200000       -0.00632892    0.00000000
                                                     2        0.2200000       -0.03780897    0.00000000
                                                     2        0.4000000        0.26269560    0.00000000
                                                     2        0.9000000       -0.28209514    0.00000000
                                                     2        1.5000000       -0.72686737    0.00000000
                                      P - G
                                                     0        0.0000010       -0.01465594    0.00000000
                                                     2        0.1200000        0.07908409    0.00000000
                                                     2        0.1800000       -0.30615861    0.00000000
                                                     2        0.2600000        0.41506950    0.00000000
                                                     2        0.5000000       -0.36252345    0.00000000
                                                     2        0.9000000        0.15124193    0.00000000
                                                     2        3.0000000       -0.80425677    0.00000000
                                      D - G
                                                     0        0.0000010        0.01149631    0.00000000
                                                     2        0.1200000       -0.04713561    0.00000000
                                                     2        0.1600000        0.10865096    0.00000000
                                                     2        0.2800000       -0.15816701    0.00000000
                                                     2        0.7000000        0.65478804    0.00000000
                                                     2        1.3000000       -1.73816624    0.00000000
                                      F - G
                                                     0        0.0000010        0.00481868    0.00000000
                                                     2        0.1200000       -0.04746842    0.00000000
                                                     2        0.1600000        0.09327889    0.00000000
                                                     2        0.4000000       -0.19693326    0.00000000
                                                     2        0.9000000        0.34938253    0.00000000
    7          6            6
                                      G and up 
                                                     0        0.0000010       -0.00011185    0.00000000
                                                     2        0.1200000       -0.02301220    0.00000000
                                                     2        0.1400000        0.13317600    0.00000000
                                                     2        0.1600000       -0.19690668    0.00000000
                                                     2        0.2200000        0.23163694    0.00000000
                                                     2        0.3000000       -0.36920489    0.00000000
                                                     2        0.4000000        0.36389709    0.00000000
                                                     2        0.7000000       -0.38862160    0.00000000
                                                     2        1.3000000        0.80803421    0.00000000
                                      S - G
                                                     0        0.0000010        0.00312304    0.00000000
                                                     2        0.1200000       -0.00632892    0.00000000
                                                     2        0.2200000       -0.03780897    0.00000000
                                                     2        0.4000000        0.26269560    0.00000000
                                                     2        0.9000000       -0.28209514    0.00000000
                                                     2        1.5000000       -0.72686737    0.00000000
                                      P - G
                                                     0        0.0000010       -0.01465594    0.00000000
                                                     2        0.1200000        0.07908409    0.00000000
                                                     2        0.1800000       -0.30615861    0.00000000
                                                     2        0.2600000        0.41506950    0.00000000
                                                     2        0.5000000       -0.36252345    0.00000000
                                                     2        0.9000000        0.15124193    0.00000000
                                                     2        3.0000000       -0.80425677    0.00000000
                                      D - G
                                                     0        0.0000010        0.01149631    0.00000000
                                                     2        0.1200000       -0.04713561    0.00000000
                                                     2        0.1600000        0.10865096    0.00000000
                                                     2        0.2800000       -0.15816701    0.00000000
                                                     2        0.7000000        0.65478804    0.00000000
                                                     2        1.3000000       -1.73816624    0.00000000
                                      F - G
                                                     0        0.0000010        0.00481868    0.00000000
                                                     2        0.1200000       -0.04746842    0.00000000
                                                     2        0.1600000        0.09327889    0.00000000
                                                     2        0.4000000       -0.19693326    0.00000000
                                                     2        0.9000000        0.34938253    0.00000000
    8          6            6
                                      G and up 
                                                     0        0.0000010       -0.00011185    0.00000000
                                                     2        0.1200000       -0.02301220    0.00000000
                                                     2        0.1400000        0.13317600    0.00000000
                                                     2        0.1600000       -0.19690668    0.00000000
                                                     2        0.2200000        0.23163694    0.00000000
                                                     2        0.3000000       -0.36920489    0.00000000
                                                     2        0.4000000        0.36389709    0.00000000
                                                     2        0.7000000       -0.38862160    0.00000000
                                                     2        1.3000000        0.80803421    0.00000000
                                      S - G
                                                     0        0.0000010        0.00312304    0.00000000
                                                     2        0.1200000       -0.00632892    0.00000000
                                                     2        0.2200000       -0.03780897    0.00000000
                                                     2        0.4000000        0.26269560    0.00000000
                                                     2        0.9000000       -0.28209514    0.00000000
                                                     2        1.5000000       -0.72686737    0.00000000
                                      P - G
                                                     0        0.0000010       -0.01465594    0.00000000
                                                     2        0.1200000        0.07908409    0.00000000
                                                     2        0.1800000       -0.30615861    0.00000000
                                                     2        0.2600000        0.41506950    0.00000000
                                                     2        0.5000000       -0.36252345    0.00000000
                                                     2        0.9000000        0.15124193    0.00000000
                                                     2        3.0000000       -0.80425677    0.00000000
                                      D - G
                                                     0        0.0000010        0.01149631    0.00000000
                                                     2        0.1200000       -0.04713561    0.00000000
                                                     2        0.1600000        0.10865096    0.00000000
                                                     2        0.2800000       -0.15816701    0.00000000
                                                     2        0.7000000        0.65478804    0.00000000
                                                     2        1.3000000       -1.73816624    0.00000000
                                      F - G
                                                     0        0.0000010        0.00481868    0.00000000
                                                     2        0.1200000       -0.04746842    0.00000000
                                                     2        0.1600000        0.09327889    0.00000000
                                                     2        0.4000000       -0.19693326    0.00000000
                                                     2        0.9000000        0.34938253    0.00000000
    9          1            1
                                      F and up 
                                                     0        0.0000010       -0.00000699    0.00000000
                                                     2        0.1200000        0.00123686    0.00000000
                                                     2        0.1800000       -0.00752022    0.00000000
                                                     2        0.2600000        0.02503380    0.00000000
                                                     2        0.4000000       -0.08702670    0.00000000
                                                     2        0.6000000        0.30134159    0.00000000
                                                     2        0.8000000       -0.50204959    0.00000000
                                                     2        1.2000000        0.52208372    0.00000000
                                      S - F
                                                     0        0.0000010       -0.01618346    0.00000000
                                                     2        0.1200000       -0.07880581    0.00000000
                                                     2        0.1600000        0.32040539    0.00000000
                                                     2        0.2400000       -0.47500956    0.00000000
                                                     2        0.5000000        0.54013668    0.00000000
                                                     2        1.5000000       -1.40434292    0.00000000
                                                     2        3.0000000        1.46283806    0.00000000
                                      P - F
                                                     0        0.0000010        0.00612970    0.00000000
                                                     2        0.1200000        0.02254406    0.00000000
                                                     2        0.1800000       -0.13874529    0.00000000
                                                     2        0.3000000        0.38299049    0.00000000
                                                     2        0.5000000       -0.57923512    0.00000000
                                                     2        1.0000000        0.63021625    0.00000000
                                                     2        2.0000000       -0.79201034    0.00000000
                                      D - F
                                                     0        0.0000010       -0.00296226    0.00000000
                                                     2        0.1200000       -0.00547344    0.00000000
                                                     2        0.1400000        0.01837884    0.00000000
                                                     2        0.2400000       -0.05565704    0.00000000
                                                     2        0.4000000        0.15376597    0.00000000
                                                     2        0.8000000       -0.32464795    0.00000000
   10          1            1
                                      F and up 
                                                     0        0.0000010       -0.00000699    0.00000000
                                                     2        0.1200000        0.00123686    0.00000000
                                                     2        0.1800000       -0.00752022    0.00000000
                                                     2        0.2600000        0.02503380    0.00000000
                                                     2        0.4000000       -0.08702670    0.00000000
                                                     2        0.6000000        0.30134159    0.00000000
                                                     2        0.8000000       -0.50204959    0.00000000
                                                     2        1.2000000        0.52208372    0.00000000
                                      S - F
                                                     0        0.0000010       -0.01618346    0.00000000
                                                     2        0.1200000       -0.07880581    0.00000000
                                                     2        0.1600000        0.32040539    0.00000000
                                                     2        0.2400000       -0.47500956    0.00000000
                                                     2        0.5000000        0.54013668    0.00000000
                                                     2        1.5000000       -1.40434292    0.00000000
                                                     2        3.0000000        1.46283806    0.00000000
                                      P - F
                                                     0        0.0000010        0.00612970    0.00000000
                                                     2        0.1200000        0.02254406    0.00000000
                                                     2        0.1800000       -0.13874529    0.00000000
                                                     2        0.3000000        0.38299049    0.00000000
                                                     2        0.5000000       -0.57923512    0.00000000
                                                     2        1.0000000        0.63021625    0.00000000
                                                     2        2.0000000       -0.79201034    0.00000000
                                      D - F
                                                     0        0.0000010       -0.00296226    0.00000000
                                                     2        0.1200000       -0.00547344    0.00000000
                                                     2        0.1400000        0.01837884    0.00000000
                                                     2        0.2400000       -0.05565704    0.00000000
                                                     2        0.4000000        0.15376597    0.00000000
                                                     2        0.8000000       -0.32464795    0.00000000
   11          1            1
                                      F and up 
                                                     0        0.0000010       -0.00000699    0.00000000
                                                     2        0.1200000        0.00123686    0.00000000
                                                     2        0.1800000       -0.00752022    0.00000000
                                                     2        0.2600000        0.02503380    0.00000000
                                                     2        0.4000000       -0.08702670    0.00000000
                                                     2        0.6000000        0.30134159    0.00000000
                                                     2        0.8000000       -0.50204959    0.00000000
                                                     2        1.2000000        0.52208372    0.00000000
                                      S - F
                                                     0        0.0000010       -0.01618346    0.00000000
                                                     2        0.1200000       -0.07880581    0.00000000
                                                     2        0.1600000        0.32040539    0.00000000
                                                     2        0.2400000       -0.47500956    0.00000000
                                                     2        0.5000000        0.54013668    0.00000000
                                                     2        1.5000000       -1.40434292    0.00000000
                                                     2        3.0000000        1.46283806    0.00000000
                                      P - F
                                                     0        0.0000010        0.00612970    0.00000000
                                                     2        0.1200000        0.02254406    0.00000000
                                                     2        0.1800000       -0.13874529    0.00000000
                                                     2        0.3000000        0.38299049    0.00000000
                                                     2        0.5000000       -0.57923512    0.00000000
                                                     2        1.0000000        0.63021625    0.00000000
                                                     2        2.0000000       -0.79201034    0.00000000
                                      D - F
                                                     0        0.0000010       -0.00296226    0.00000000
                                                     2        0.1200000       -0.00547344    0.00000000
                                                     2        0.1400000        0.01837884    0.00000000
                                                     2        0.2400000       -0.05565704    0.00000000
                                                     2        0.4000000        0.15376597    0.00000000
                                                     2        0.8000000       -0.32464795    0.00000000
   12          1            1
                                      F and up 
                                                     0        0.0000010       -0.00000699    0.00000000
                                                     2        0.1200000        0.00123686    0.00000000
                                                     2        0.1800000       -0.00752022    0.00000000
                                                     2        0.2600000        0.02503380    0.00000000
                                                     2        0.4000000       -0.08702670    0.00000000
                                                     2        0.6000000        0.30134159    0.00000000
                                                     2        0.8000000       -0.50204959    0.00000000
                                                     2        1.2000000        0.52208372    0.00000000
                                      S - F
                                                     0        0.0000010       -0.01618346    0.00000000
                                                     2        0.1200000       -0.07880581    0.00000000
                                                     2        0.1600000        0.32040539    0.00000000
                                                     2        0.2400000       -0.47500956    0.00000000
                                                     2        0.5000000        0.54013668    0.00000000
                                                     2        1.5000000       -1.40434292    0.00000000
                                                     2        3.0000000        1.46283806    0.00000000
                                      P - F
                                                     0        0.0000010        0.00612970    0.00000000
                                                     2        0.1200000        0.02254406    0.00000000
                                                     2        0.1800000       -0.13874529    0.00000000
                                                     2        0.3000000        0.38299049    0.00000000
                                                     2        0.5000000       -0.57923512    0.00000000
                                                     2        1.0000000        0.63021625    0.00000000
                                                     2        2.0000000       -0.79201034    0.00000000
                                      D - F
                                                     0        0.0000010       -0.00296226    0.00000000
                                                     2        0.1200000       -0.00547344    0.00000000
                                                     2        0.1400000        0.01837884    0.00000000
                                                     2        0.2400000       -0.05565704    0.00000000
                                                     2        0.4000000        0.15376597    0.00000000
                                                     2        0.8000000       -0.32464795    0.00000000
   13          1            1
                                      F and up 
                                                     0        0.0000010       -0.00000699    0.00000000
                                                     2        0.1200000        0.00123686    0.00000000
                                                     2        0.1800000       -0.00752022    0.00000000
                                                     2        0.2600000        0.02503380    0.00000000
                                                     2        0.4000000       -0.08702670    0.00000000
                                                     2        0.6000000        0.30134159    0.00000000
                                                     2        0.8000000       -0.50204959    0.00000000
                                                     2        1.2000000        0.52208372    0.00000000
                                      S - F
                                                     0        0.0000010       -0.01618346    0.00000000
                                                     2        0.1200000       -0.07880581    0.00000000
                                                     2        0.1600000        0.32040539    0.00000000
                                                     2        0.2400000       -0.47500956    0.00000000
                                                     2        0.5000000        0.54013668    0.00000000
                                                     2        1.5000000       -1.40434292    0.00000000
                                                     2        3.0000000        1.46283806    0.00000000
                                      P - F
                                                     0        0.0000010        0.00612970    0.00000000
                                                     2        0.1200000        0.02254406    0.00000000
                                                     2        0.1800000       -0.13874529    0.00000000
                                                     2        0.3000000        0.38299049    0.00000000
                                                     2        0.5000000       -0.57923512    0.00000000
                                                     2        1.0000000        0.63021625    0.00000000
                                                     2        2.0000000       -0.79201034    0.00000000
                                      D - F
                                                     0        0.0000010       -0.00296226    0.00000000
                                                     2        0.1200000       -0.00547344    0.00000000
                                                     2        0.1400000        0.01837884    0.00000000
                                                     2        0.2400000       -0.05565704    0.00000000
                                                     2        0.4000000        0.15376597    0.00000000
                                                     2        0.8000000       -0.32464795    0.00000000
 ======================================================================================================
   237 basis functions,   475 primitive gaussians,   253 cartesian basis functions
    40 alpha electrons       40 beta electrons
       nuclear repulsion energy       534.0007282267 Hartrees.
 NAtoms=   13 NActive=   13 NUniq=   13 SFac= 1.00D+00 NAtFMM=   60 NAOKFM=F Big=F
   1 Symmetry operations used in ECPInt.
 ECPInt:  NShTT=    5151 NPrTT=   34199 LenC2=    5113 LenP2D=   23240.
 LDataN:  DoStor=T MaxTD1= 6 Len=  172
 Initial guess from the checkpoint file:  "1-3-dichloronitropropane.chk"
 B after Tr=     0.000000    0.000000   -0.000000
         Rot=    1.000000    0.000000    0.000000   -0.000000 Ang=   0.00 deg.
 >>>>>>>>>> Convergence criterion not met.
 SCF Done:  E(RHF) =  -1239.75819415     A.U. after    2 cycles
            NFock=  1  Conv=0.49D-02     -V/T= 1.9980

 **********************************************************************

            Population analysis using the SCF Density.

 **********************************************************************

 Orbital symmetries:
       Occupied  (A) (A) (A) (A) (A) (A) (A) (A) (A) (A) (A) (A)
                 (A) (A) (A) (A) (A) (A) (A) (A) (A) (A) (A) (A)
                 (A) (A) (A) (A) (A) (A) (A) (A) (A) (A) (A) (A)
                 (A) (A) (A) (A)
       Virtual   (A) (A) (A) (A) (A) (A) (A) (A) (A) (A) (A) (A)
                 (A) (A) (A) (A) (A) (A) (A) (A) (A) (A) (A) (A)
                 (A) (A) (A) (A) (A) (A) (A) (A) (A) (A) (A) (A)
                 (A) (A) (A) (A) (A) (A) (A) (A) (A) (A) (A) (A)
                 (A) (A) (A) (A) (A) (A) (A) (A) (A) (A) (A) (A)
                 (A) (A) (A) (A) (A) (A) (A) (A) (A) (A) (A) (A)
                 (A) (A) (A) (A) (A) (A) (A) (A) (A) (A) (A) (A)
                 (A) (A) (A) (A) (A) (A) (A) (A) (A) (A) (A) (A)
                 (A) (A) (A) (A) (A) (A) (A) (A) (A) (A) (A) (A)
                 (A) (A) (A) (A) (A) (A) (A) (A) (A) (A) (A) (A)
                 (A) (A) (A) (A) (A) (A) (A) (A) (A) (A) (A) (A)
                 (A) (A) (A) (A) (A) (A) (A) (A) (A) (A) (A) (A)
                 (A) (A) (A) (A) (A) (A) (A) (A) (A) (A) (A) (A)
                 (A) (A) (A) (A) (A) (A) (A) (A) (A) (A) (A) (A)
                 (A) (A) (A) (A) (A) (A) (A) (A) (A) (A) (A) (A)
                 (A) (A) (A) (A) (A) (A) (A) (A) (A) (A) (A) (A)
                 (A) (A) (A) (A) (A)
 The electronic state is 1-A.
 Alpha  occ. eigenvalues -- -103.69888-103.67198 -20.64331 -20.64005 -15.93534
 Alpha  occ. eigenvalues --  -11.39967 -11.33650 -11.29743 -10.73141 -10.70476
 Alpha  occ. eigenvalues --   -8.38870  -8.38554  -8.38537  -8.36192  -8.35912
 Alpha  occ. eigenvalues --   -8.35897  -1.57514  -1.39334  -1.23021  -1.18654
 Alpha  occ. eigenvalues --   -1.09244  -1.01643  -0.90851  -0.84501  -0.78541
 Alpha  occ. eigenvalues --   -0.75959  -0.75347  -0.69009  -0.66774  -0.62822
 Alpha  occ. eigenvalues --   -0.59664  -0.58079  -0.54307  -0.54042  -0.53277
 Alpha  occ. eigenvalues --   -0.50267  -0.49030  -0.48833  -0.46954  -0.46747
 Alpha virt. eigenvalues --    0.02985   0.04359   0.04578   0.05226   0.05871
 Alpha virt. eigenvalues --    0.06971   0.08351   0.08878   0.11109   0.12383
 Alpha virt. eigenvalues --    0.12945   0.14028   0.14626   0.15081   0.15808
 Alpha virt. eigenvalues --    0.16011   0.16677   0.16773   0.17218   0.17740
 Alpha virt. eigenvalues --    0.18165   0.18264   0.18819   0.19913   0.20702
 Alpha virt. eigenvalues --    0.21418   0.22377   0.25226   0.26115   0.26350
 Alpha virt. eigenvalues --    0.27197   0.28825   0.29475   0.30166   0.31074
 Alpha virt. eigenvalues --    0.32671   0.32806   0.33572   0.34980   0.35385
 Alpha virt. eigenvalues --    0.36010   0.37371   0.38325   0.39428   0.40177
 Alpha virt. eigenvalues --    0.41264   0.42178   0.42682   0.43295   0.44906
 Alpha virt. eigenvalues --    0.46020   0.46211   0.46910   0.47819   0.48375
 Alpha virt. eigenvalues --    0.50280   0.51338   0.53677   0.53815   0.54337
 Alpha virt. eigenvalues --    0.55039   0.56802   0.57581   0.58502   0.58948
 Alpha virt. eigenvalues --    0.61614   0.62458   0.64059   0.64309   0.65229
 Alpha virt. eigenvalues --    0.66516   0.67874   0.69092   0.71100   0.71645
 Alpha virt. eigenvalues --    0.73799   0.74790   0.76569   0.76998   0.78052
 Alpha virt. eigenvalues --    0.78531   0.80680   0.81739   0.83877   0.84620
 Alpha virt. eigenvalues --    0.85322   0.87008   0.88089   0.88983   0.92614
 Alpha virt. eigenvalues --    0.93663   0.94568   0.99114   1.00360   1.01382
 Alpha virt. eigenvalues --    1.02802   1.03835   1.05460   1.07831   1.08389
 Alpha virt. eigenvalues --    1.09391   1.13256   1.15003   1.17608   1.18452
 Alpha virt. eigenvalues --    1.19393   1.20828   1.23846   1.25746   1.26214
 Alpha virt. eigenvalues --    1.28192   1.29951   1.30036   1.33043   1.33344
 Alpha virt. eigenvalues --    1.35641   1.38390   1.39715   1.39999   1.41244
 Alpha virt. eigenvalues --    1.41716   1.43307   1.44571   1.45232   1.46664
 Alpha virt. eigenvalues --    1.49176   1.49639   1.50858   1.51312   1.55532
 Alpha virt. eigenvalues --    1.55975   1.57564   1.62631   1.63932   1.65331
 Alpha virt. eigenvalues --    1.68223   1.71239   1.75517   1.77812   1.79020
 Alpha virt. eigenvalues --    1.82633   1.85458   1.86534   1.86832   1.91440
 Alpha virt. eigenvalues --    1.92871   1.96151   1.98936   2.03753   2.06144
 Alpha virt. eigenvalues --    2.07150   2.10036   2.11732   2.11997   2.14163
 Alpha virt. eigenvalues --    2.21488   2.22924   2.25663   2.28418   2.30331
 Alpha virt. eigenvalues --    2.34238   2.36340   2.37967   2.43603   2.47569
 Alpha virt. eigenvalues --    2.50092   2.54283   2.55908   2.56643   2.60617
 Alpha virt. eigenvalues --    2.64006   2.65175   2.67709   2.71280   2.77638
 Alpha virt. eigenvalues --    2.83160   2.84104   2.90561   2.98542   3.02500
 Alpha virt. eigenvalues --    3.03400   3.06613   3.17233   3.28020   3.31504
 Alpha virt. eigenvalues --    3.48446   3.51641   3.55498   3.56599   3.60260
 Alpha virt. eigenvalues --    3.65564   3.74445   3.78987   3.87245   4.05647
 Alpha virt. eigenvalues --    4.08538   4.40090
          Condensed to atoms (all electrons):
 Mulliken charges:
               1
     1  Cl  -0.079848
     2  Cl  -0.131197
     3  O   -0.592434
     4  O   -0.557187
     5  N    0.392861
     6  C    0.649223
     7  C    0.209142
     8  C    0.110099
     9  H   -0.116980
    10  H   -0.037676
    11  H    0.066301
    12  H    0.051258
    13  H    0.036438
 Sum of Mulliken charges =   0.00000
 Mulliken charges with hydrogens summed into heavy atoms:
               1
     1  Cl  -0.079848
     2  Cl  -0.131197
     3  O   -0.592434
     4  O   -0.557187
     5  N    0.392861
     6  C    0.532243
     7  C    0.237766
     8  C    0.197795
 Electronic spatial extent (au):  <R**2>=           1534.6889
 Charge=              0.0000 electrons
 Dipole moment (field-independent basis, Debye):
    X=             -1.6742    Y=             -2.5862    Z=              1.8093  Tot=              3.5728

 Test job not archived.
 1\1\GINC-SE036\SP\RHF\Aug-CC-pVDZ\C3H5Cl2N1O2\OHZDE\05-Apr-2025\0\\#t 
 hf aug-cc-pvdz iop(5/13=1,5/36=2,99/5=2) pseudo=read geom=check guess=
 (read,tcheck) scf=(maxcycle=1)\\title\\0,1\Cl,0,1.969671,-1.392624,-0.
 227155\Cl,0,-2.726372,-0.166639,-0.54948\O,0,1.299667,1.49774,1.060977
 \O,0,1.142038,1.750743,-1.088218\N,0,1.039851,1.108331,-0.061878\C,0,0
 .528061,-0.332445,-0.214217\C,0,-0.425033,-0.704823,0.900645\C,0,-1.70
 6486,0.113665,0.924971\H,0,0.086211,-0.36679,-1.20197\H,0,-0.662786,-1
 .761718,0.786146\H,0,0.086276,-0.577124,1.85535\H,0,-2.317628,-0.17409
 1,1.774333\H,0,-1.520016,1.18262,0.971618\\Version=ES64L-G16RevC.01\St
 ate=1-A\HF=-1239.7581941\RMSD=4.861e-03\Dipole=-0.6586923,-1.0174914,0
 .7118436\Quadrupole=-1.9261424,-1.0561129,2.9822554,-2.9736576,-3.1213
 07,0.0600018\PG=C01 [X(C3H5Cl2N1O2)]\\@


 GETTING A SIMPLE ANSWER FROM A PROFESSOR IS LIKE
 GETTING A THIMBLE OF WATER FROM A FIRE HYDRANT.
     -- PROF. LEN SHAPIRO, NDSU
 Job cpu time:       0 days  0 hours  1 minutes  8.2 seconds.
 Elapsed time:       0 days  0 hours  0 minutes  5.3 seconds.
 File lengths (MBytes):  RWF=     10 Int=      0 D2E=      0 Chk=      9 Scr=      1
 Normal termination of Gaussian 16 at Sat Apr  5 22:10:44 2025.
