 Entering Gaussian System, Link 0=g16
 Input=1-4-pentadiene.gjf
 Output=1-4-pentadiene.log
 Initial command:
 /arc/software/Gaussian/g16.c01/l1.exe "/tmp/slurm/4814271/Gau-3637086.inp" -scrdir="/tmp/slurm/4814271/"
 Entering Link 1 = /arc/software/Gaussian/g16.c01/l1.exe PID=   3637088.
  
 Copyright (c) 1988-2019, Gaussian, Inc.  All Rights Reserved.
  
 This is part of the Gaussian(R) 16 program.  It is based on
 the Gaussian(R) 09 system (copyright 2009, Gaussian, Inc.),
 the Gaussian(R) 03 system (copyright 2003, Gaussian, Inc.),
 the Gaussian(R) 98 system (copyright 1998, Gaussian, Inc.),
 the Gaussian(R) 94 system (copyright 1995, Gaussian, Inc.),
 the Gaussian 92(TM) system (copyright 1992, Gaussian, Inc.),
 the Gaussian 90(TM) system (copyright 1990, Gaussian, Inc.),
 the Gaussian 88(TM) system (copyright 1988, Gaussian, Inc.),
 the Gaussian 86(TM) system (copyright 1986, Carnegie Mellon
 University), and the Gaussian 82(TM) system (copyright 1983,
 Carnegie Mellon University). Gaussian is a federally registered
 trademark of Gaussian, Inc.
  
 This software contains proprietary and confidential information,
 including trade secrets, belonging to Gaussian, Inc.
  
 This software is provided under written license and may be
 used, copied, transmitted, or stored only in accord with that
 written license.
  
 The following legend is applicable only to US Government
 contracts under FAR:
  
                    RESTRICTED RIGHTS LEGEND
  
 Use, reproduction and disclosure by the US Government is
 subject to restrictions as set forth in subparagraphs (a)
 and (c) of the Commercial Computer Software - Restricted
 Rights clause in FAR 52.227-19.
  
 Gaussian, Inc.
 340 Quinnipiac St., Bldg. 40, Wallingford CT 06492
  
  
 ---------------------------------------------------------------
 Warning -- This program may not be used in any manner that
 competes with the business of Gaussian, Inc. or will provide
 assistance to any competitor of Gaussian, Inc.  The licensee
 of this program is prohibited from giving any competitor of
 Gaussian, Inc. access to this program.  By using this program,
 the user acknowledges that Gaussian, Inc. is engaged in the
 business of creating and licensing software in the field of
 computational chemistry and represents and warrants to the
 licensee that it is not a competitor of Gaussian, Inc. and that
 it will not use this program in any manner prohibited above.
 ---------------------------------------------------------------
  

 Cite this work as:
 Gaussian 16, Revision C.01,
 M. J. Frisch, G. W. Trucks, H. B. Schlegel, G. E. Scuseria, 
 M. A. Robb, J. R. Cheeseman, G. Scalmani, V. Barone, 
 G. A. Petersson, H. Nakatsuji, X. Li, M. Caricato, A. V. Marenich, 
 J. Bloino, B. G. Janesko, R. Gomperts, B. Mennucci, H. P. Hratchian, 
 J. V. Ortiz, A. F. Izmaylov, J. L. Sonnenberg, D. Williams-Young, 
 F. Ding, F. Lipparini, F. Egidi, J. Goings, B. Peng, A. Petrone, 
 T. Henderson, D. Ranasinghe, V. G. Zakrzewski, J. Gao, N. Rega, 
 G. Zheng, W. Liang, M. Hada, M. Ehara, K. Toyota, R. Fukuda, 
 J. Hasegawa, M. Ishida, T. Nakajima, Y. Honda, O. Kitao, H. Nakai, 
 T. Vreven, K. Throssell, J. A. Montgomery, Jr., J. E. Peralta, 
 F. Ogliaro, M. J. Bearpark, J. J. Heyd, E. N. Brothers, K. N. Kudin, 
 V. N. Staroverov, T. A. Keith, R. Kobayashi, J. Normand, 
 K. Raghavachari, A. P. Rendell, J. C. Burant, S. S. Iyengar, 
 J. Tomasi, M. Cossi, J. M. Millam, M. Klene, C. Adamo, R. Cammi, 
 J. W. Ochterski, R. L. Martin, K. Morokuma, O. Farkas, 
 J. B. Foresman, and D. J. Fox, Gaussian, Inc., Wallingford CT, 2019.
 
 ******************************************
 Gaussian 16:  ES64L-G16RevC.01  3-Jul-2019
                 5-Apr-2025 
 ******************************************
 %nprocs=16
 Will use up to   16 processors via shared memory.
 %mem=30GB
 %chk=1-4-pentadiene.chk
 ----------------------------------------------------------------------
 #t hf aug-cc-pvdz symm=none int=(grid=ultrafine) guess=(read,tcheck) s
 table=(opt,rrhf)
 ----------------------------------------------------------------------
 -----
 title
 -----
 Symbolic Z-matrix:
 Charge =  0 Multiplicity = 1
 C                    -0.17522   0.5141    2.22004 
 C                    -0.17522   0.5141   -2.22004 
 C                    -0.17522  -0.39392   1.25323 
 C                    -0.17522  -0.39392  -1.25323 
 C                     0.65434  -0.32282   0. 
 H                    -0.79328   0.40326   3.10078 
 H                     0.44364   1.40179   2.16548 
 H                    -0.79328   0.40326  -3.10078 
 H                     0.44364   1.40179  -2.16548 
 H                    -0.81558  -1.26646   1.34808 
 H                    -0.81558  -1.26646  -1.34808 
 H                     1.35279  -1.16952   0. 
 H                     1.25696   0.58717   0. 
 
                    Distance matrix (angstroms):
                    1          2          3          4          5
     1  C    0.000000
     2  C    4.440078   0.000000
     3  C    1.326351   3.590000   0.000000
     4  C    3.590000   1.326351   2.506464   0.000000
     5  C    2.513402   2.513402   1.504602   1.504602   0.000000
     6  H    1.081655   5.357739   2.104975   4.469328   3.498234
     7  H    1.083495   4.517055   2.107072   3.910903   2.776328
     8  H    5.357739   1.081655   4.469328   2.104975   3.498234
     9  H    4.517055   1.083495   3.910903   2.107072   2.776328
    10  H    2.083448   4.038800   1.086453   2.817482   2.206454
    11  H    4.038800   2.083448   2.817482   1.086453   2.206454
    12  H    3.177729   3.177729   2.122964   2.122964   1.097598
    13  H    2.642929   2.642929   2.141094   2.141094   1.091437
                    6          7          8          9         10
     6  H    0.000000
     7  H    1.844395   0.000000
     8  H    6.201556   5.500956   0.000000
     9  H    5.500956   4.330966   1.844395   0.000000
    10  H    2.420833   3.061589   4.751927   4.588060   0.000000
    11  H    4.751927   4.588060   2.420833   3.061589   2.696158
    12  H    4.085840   3.482454   4.085840   3.482454   2.555101
    13  H    3.721847   2.452432   3.721847   2.452432   3.090095
                   11         12         13
    11  H    0.000000
    12  H    2.555101   0.000000
    13  H    3.090095   1.759297   0.000000
 Symmetry turned off by external request.
 Rotational constants (GHZ):          15.0343749           2.5100707           2.4154851
   187 basis functions,   303 primitive gaussians,   197 cartesian basis functions
    19 alpha electrons       19 beta electrons
       nuclear repulsion energy       155.7111708991 Hartrees.
 NAtoms=   13 NActive=   13 NUniq=   13 SFac= 1.00D+00 NAtFMM=   60 NAOKFM=F Big=F
 ExpMin= 2.97D-02 ExpMax= 6.67D+03 ExpMxC= 2.28D+02 IAcc=3 IRadAn=         5 AccDes= 0.00D+00
 Harris functional with IExCor=  205 and IRadAn=       5 diagonalized for initial guess.
 HarFok:  IExCor=  205 AccDes= 0.00D+00 IRadAn=         5 IDoV= 1 UseB2=F ITyADJ=14
 ICtDFT=  3500011 ScaDFX=  1.000000  1.000000  1.000000  1.000000
 FoFCou: FMM=F IPFlag=           0 FMFlag=      100000 FMFlg1=           0
         NFxFlg=           0 DoJE=T BraDBF=F KetDBF=T FulRan=T
         wScrn=  0.000000 ICntrl=       500 IOpCl=  0 I1Cent=   200000004 NGrid=           0
         NMat0=    1 NMatS0=      1 NMatT0=    0 NMatD0=    1 NMtDS0=    0 NMtDT0=    0
 Symmetry not used in FoFCou.
 SCF Done:  E(RHF) =  -193.973105702     A.U. after   12 cycles
            NFock= 12  Conv=0.79D-08     -V/T= 2.0009

 **********************************************************************

            Population analysis using the SCF Density.

 **********************************************************************

 Alpha  occ. eigenvalues --  -11.24251 -11.24243 -11.24007 -11.22773 -11.22773
 Alpha  occ. eigenvalues --   -1.09909  -1.03409  -0.93113  -0.77367  -0.75906
 Alpha  occ. eigenvalues --   -0.64286  -0.63889  -0.59441  -0.56522  -0.54503
 Alpha  occ. eigenvalues --   -0.49256  -0.49207  -0.36637  -0.36131
 Alpha virt. eigenvalues --    0.03762   0.04494   0.04543   0.05137   0.06500
 Alpha virt. eigenvalues --    0.06523   0.07759   0.07982   0.10531   0.12192
 Alpha virt. eigenvalues --    0.12798   0.13363   0.13867   0.15335   0.15568
 Alpha virt. eigenvalues --    0.16057   0.16832   0.17420   0.18560   0.18704
 Alpha virt. eigenvalues --    0.18767   0.19826   0.19834   0.20534   0.21560
 Alpha virt. eigenvalues --    0.22622   0.22877   0.27375   0.28294   0.28666
 Alpha virt. eigenvalues --    0.31343   0.31622   0.32984   0.34529   0.34925
 Alpha virt. eigenvalues --    0.35794   0.39895   0.40883   0.40952   0.41378
 Alpha virt. eigenvalues --    0.42057   0.43744   0.43840   0.45940   0.46467
 Alpha virt. eigenvalues --    0.46993   0.48466   0.48638   0.50363   0.50784
 Alpha virt. eigenvalues --    0.51402   0.52067   0.55167   0.56241   0.57098
 Alpha virt. eigenvalues --    0.57540   0.58772   0.60310   0.60934   0.62264
 Alpha virt. eigenvalues --    0.62988   0.63401   0.63830   0.64821   0.66538
 Alpha virt. eigenvalues --    0.66651   0.67185   0.68872   0.69140   0.71577
 Alpha virt. eigenvalues --    0.72074   0.72348   0.72689   0.75303   0.77342
 Alpha virt. eigenvalues --    0.78015   0.80808   0.81522   0.84257   0.84904
 Alpha virt. eigenvalues --    0.85712   0.86402   0.87135   0.88870   0.91146
 Alpha virt. eigenvalues --    0.91624   0.92142   0.93197   0.94917   0.99109
 Alpha virt. eigenvalues --    0.99789   1.02914   1.03709   1.08788   1.16101
 Alpha virt. eigenvalues --    1.20781   1.24713   1.25039   1.26913   1.27062
 Alpha virt. eigenvalues --    1.27979   1.33468   1.35482   1.40061   1.41352
 Alpha virt. eigenvalues --    1.47429   1.57131   1.57459   1.59758   1.61562
 Alpha virt. eigenvalues --    1.63581   1.63738   1.67856   1.68736   1.70115
 Alpha virt. eigenvalues --    1.71152   1.73298   1.76824   1.80069   1.82381
 Alpha virt. eigenvalues --    1.84995   1.88948   1.88955   1.94805   1.94891
 Alpha virt. eigenvalues --    1.97677   1.98175   2.03123   2.04289   2.06161
 Alpha virt. eigenvalues --    2.06623   2.09445   2.12350   2.13402   2.15148
 Alpha virt. eigenvalues --    2.16581   2.19391   2.21130   2.25301   2.27160
 Alpha virt. eigenvalues --    2.29088   2.30395   2.34178   2.36163   2.41661
 Alpha virt. eigenvalues --    2.44176   2.45037   2.50251   2.54783   2.56138
 Alpha virt. eigenvalues --    2.57963   2.62249   2.67914   2.71212   2.73953
 Alpha virt. eigenvalues --    2.77348   2.81803   2.84707   2.95153   2.95170
 Alpha virt. eigenvalues --    2.96568   3.01707   3.05049   3.20483   3.38985
 Alpha virt. eigenvalues --    3.41783   3.57521   3.68826
          Condensed to atoms (all electrons):
 Mulliken charges:
               1
     1  C    0.436610
     2  C    0.436610
     3  C    0.559464
     4  C    0.559464
     5  C    0.103222
     6  H   -0.287140
     7  H   -0.302478
     8  H   -0.287140
     9  H   -0.302478
    10  H   -0.443625
    11  H   -0.443625
    12  H    0.100669
    13  H   -0.129553
 Sum of Mulliken charges =  -0.00000
 Mulliken charges with hydrogens summed into heavy atoms:
               1
     1  C   -0.153008
     2  C   -0.153008
     3  C    0.115839
     4  C    0.115839
     5  C    0.074338
 Electronic spatial extent (au):  <R**2>=            553.6698
 Charge=             -0.0000 electrons
 Dipole moment (field-independent basis, Debye):
    X=              0.1455    Y=             -0.2483    Z=              0.0000  Tot=              0.2878
 NROrb=    187 NOA=    19 NOB=    19 NVA=   168 NVB=   168

 **** Warning!!: The largest alpha MO coefficient is  0.44208619D+02

    12 initial guesses have been made.
 Iteration     1 Dimension    12 NMult     0 NNew     12
 New state      1 was old state      3
 Iteration     2 Dimension    24 NMult    12 NNew     12
 Iteration     3 Dimension    27 NMult    24 NNew      3
 Iteration     4 Dimension    30 NMult    27 NNew      3
 Iteration     5 Dimension    33 NMult    30 NNew      3
 Iteration     6 Dimension    36 NMult    33 NNew      3
 ***********************************************************************
 Stability analysis using <AA,BB:AA,BB> singles matrix:
 ***********************************************************************
 Ground to excited state transition densities written to RWF  633

 Eigenvectors of the stability matrix:
 
 Excited state symmetry could not be determined.
 Eigenvector   1:      Singlet-?Sym  Eigenvalue= 0.2584569  <S**2>=0.000
      18 -> 22        -0.32086
      18 -> 34        -0.11067
      19 -> 20         0.54936
      19 -> 36        -0.13792
 The wavefunction is stable under the perturbations considered.
 The wavefunction is already stable.

 **********************************************************************

            Population analysis using the SCF Density.

 **********************************************************************

 Alpha  occ. eigenvalues --  -11.24251 -11.24243 -11.24007 -11.22773 -11.22773
 Alpha  occ. eigenvalues --   -1.09909  -1.03409  -0.93113  -0.77367  -0.75906
 Alpha  occ. eigenvalues --   -0.64286  -0.63889  -0.59441  -0.56522  -0.54503
 Alpha  occ. eigenvalues --   -0.49256  -0.49207  -0.36637  -0.36131
 Alpha virt. eigenvalues --    0.03762   0.04494   0.04543   0.05137   0.06500
 Alpha virt. eigenvalues --    0.06523   0.07759   0.07982   0.10531   0.12192
 Alpha virt. eigenvalues --    0.12798   0.13363   0.13867   0.15335   0.15568
 Alpha virt. eigenvalues --    0.16057   0.16832   0.17420   0.18560   0.18704
 Alpha virt. eigenvalues --    0.18767   0.19826   0.19834   0.20534   0.21560
 Alpha virt. eigenvalues --    0.22622   0.22877   0.27375   0.28294   0.28666
 Alpha virt. eigenvalues --    0.31343   0.31622   0.32984   0.34529   0.34925
 Alpha virt. eigenvalues --    0.35794   0.39895   0.40883   0.40952   0.41378
 Alpha virt. eigenvalues --    0.42057   0.43744   0.43840   0.45940   0.46467
 Alpha virt. eigenvalues --    0.46993   0.48466   0.48638   0.50363   0.50784
 Alpha virt. eigenvalues --    0.51402   0.52067   0.55167   0.56241   0.57098
 Alpha virt. eigenvalues --    0.57540   0.58772   0.60310   0.60934   0.62264
 Alpha virt. eigenvalues --    0.62988   0.63401   0.63830   0.64821   0.66538
 Alpha virt. eigenvalues --    0.66651   0.67185   0.68872   0.69140   0.71577
 Alpha virt. eigenvalues --    0.72074   0.72348   0.72689   0.75303   0.77342
 Alpha virt. eigenvalues --    0.78015   0.80808   0.81522   0.84257   0.84904
 Alpha virt. eigenvalues --    0.85712   0.86402   0.87135   0.88870   0.91146
 Alpha virt. eigenvalues --    0.91624   0.92142   0.93197   0.94917   0.99109
 Alpha virt. eigenvalues --    0.99789   1.02914   1.03709   1.08788   1.16101
 Alpha virt. eigenvalues --    1.20781   1.24713   1.25039   1.26913   1.27062
 Alpha virt. eigenvalues --    1.27979   1.33468   1.35482   1.40061   1.41352
 Alpha virt. eigenvalues --    1.47429   1.57131   1.57459   1.59758   1.61562
 Alpha virt. eigenvalues --    1.63581   1.63738   1.67856   1.68736   1.70115
 Alpha virt. eigenvalues --    1.71152   1.73298   1.76824   1.80069   1.82381
 Alpha virt. eigenvalues --    1.84995   1.88948   1.88955   1.94805   1.94891
 Alpha virt. eigenvalues --    1.97677   1.98175   2.03123   2.04289   2.06161
 Alpha virt. eigenvalues --    2.06623   2.09445   2.12350   2.13402   2.15148
 Alpha virt. eigenvalues --    2.16581   2.19391   2.21130   2.25301   2.27160
 Alpha virt. eigenvalues --    2.29088   2.30395   2.34178   2.36163   2.41661
 Alpha virt. eigenvalues --    2.44176   2.45037   2.50251   2.54783   2.56138
 Alpha virt. eigenvalues --    2.57963   2.62249   2.67914   2.71212   2.73953
 Alpha virt. eigenvalues --    2.77348   2.81803   2.84707   2.95153   2.95170
 Alpha virt. eigenvalues --    2.96568   3.01707   3.05049   3.20483   3.38985
 Alpha virt. eigenvalues --    3.41783   3.57521   3.68826
          Condensed to atoms (all electrons):
 Mulliken charges:
               1
     1  C    0.436610
     2  C    0.436610
     3  C    0.559464
     4  C    0.559464
     5  C    0.103222
     6  H   -0.287140
     7  H   -0.302478
     8  H   -0.287140
     9  H   -0.302478
    10  H   -0.443625
    11  H   -0.443625
    12  H    0.100669
    13  H   -0.129553
 Sum of Mulliken charges =  -0.00000
 Mulliken charges with hydrogens summed into heavy atoms:
               1
     1  C   -0.153008
     2  C   -0.153008
     3  C    0.115839
     4  C    0.115839
     5  C    0.074338
 Electronic spatial extent (au):  <R**2>=            553.6698
 Charge=             -0.0000 electrons
 Dipole moment (field-independent basis, Debye):
    X=              0.1455    Y=             -0.2483    Z=              0.0000  Tot=              0.2878
 Unable to Open any file for archive entry.
 1\1\GINC-SE226\Stability\RHF\Aug-CC-pVDZ\C5H8\OHZDE\05-Apr-2025\0\\#t 
 hf aug-cc-pvdz symm=none int=(grid=ultrafine) guess=(read,tcheck) stab
 le=(opt,rrhf)\\title\\0,1\C,0,-0.175224,0.514096,2.220039\C,0,-0.17522
 4,0.514096,-2.220039\C,0,-0.175224,-0.393919,1.253232\C,0,-0.175224,-0
 .393919,-1.253232\C,0,0.654344,-0.322824,0.\H,0,-0.79328,0.403263,3.10
 0778\H,0,0.443638,1.401787,2.165483\H,0,-0.79328,0.403263,-3.100778\H,
 0,0.443638,1.401787,-2.165483\H,0,-0.815578,-1.266462,1.348079\H,0,-0.
 815578,-1.266462,-1.348079\H,0,1.352792,-1.169518,0.\H,0,1.256964,0.58
 7167,0.\\Version=ES64L-G16RevC.01\HF=-193.9731057\RMSD=7.902e-09\Dipol
 e=0.0572364,-0.0976893,0.\Quadrupole=-0.7866094,1.0698334,-0.283224,1.
 7149528,0.,0.\PG=Unknown\\@
 The archive entry for this job was punched.


 The lyf so short, the craft so long to lerne.
                             -- Chaucer
 Job cpu time:       0 days  0 hours  3 minutes  5.2 seconds.
 Elapsed time:       0 days  0 hours  0 minutes 14.0 seconds.
 File lengths (MBytes):  RWF=    157 Int=      0 D2E=      0 Chk=      5 Scr=      1
 Normal termination of Gaussian 16 at Sat Apr  5 22:10:10 2025.
 Initial command:
 /arc/software/Gaussian/g16.c01/l1.exe "/tmp/slurm/4814271/Gau-3637086.inp" -scrdir="/tmp/slurm/4814271/"
 Entering Link 1 = /arc/software/Gaussian/g16.c01/l1.exe PID=   3637428.
  
 Copyright (c) 1988-2019, Gaussian, Inc.  All Rights Reserved.
  
 This is part of the Gaussian(R) 16 program.  It is based on
 the Gaussian(R) 09 system (copyright 2009, Gaussian, Inc.),
 the Gaussian(R) 03 system (copyright 2003, Gaussian, Inc.),
 the Gaussian(R) 98 system (copyright 1998, Gaussian, Inc.),
 the Gaussian(R) 94 system (copyright 1995, Gaussian, Inc.),
 the Gaussian 92(TM) system (copyright 1992, Gaussian, Inc.),
 the Gaussian 90(TM) system (copyright 1990, Gaussian, Inc.),
 the Gaussian 88(TM) system (copyright 1988, Gaussian, Inc.),
 the Gaussian 86(TM) system (copyright 1986, Carnegie Mellon
 University), and the Gaussian 82(TM) system (copyright 1983,
 Carnegie Mellon University). Gaussian is a federally registered
 trademark of Gaussian, Inc.
  
 This software contains proprietary and confidential information,
 including trade secrets, belonging to Gaussian, Inc.
  
 This software is provided under written license and may be
 used, copied, transmitted, or stored only in accord with that
 written license.
  
 The following legend is applicable only to US Government
 contracts under FAR:
  
                    RESTRICTED RIGHTS LEGEND
  
 Use, reproduction and disclosure by the US Government is
 subject to restrictions as set forth in subparagraphs (a)
 and (c) of the Commercial Computer Software - Restricted
 Rights clause in FAR 52.227-19.
  
 Gaussian, Inc.
 340 Quinnipiac St., Bldg. 40, Wallingford CT 06492
  
  
 ---------------------------------------------------------------
 Warning -- This program may not be used in any manner that
 competes with the business of Gaussian, Inc. or will provide
 assistance to any competitor of Gaussian, Inc.  The licensee
 of this program is prohibited from giving any competitor of
 Gaussian, Inc. access to this program.  By using this program,
 the user acknowledges that Gaussian, Inc. is engaged in the
 business of creating and licensing software in the field of
 computational chemistry and represents and warrants to the
 licensee that it is not a competitor of Gaussian, Inc. and that
 it will not use this program in any manner prohibited above.
 ---------------------------------------------------------------
  

 Cite this work as:
 Gaussian 16, Revision C.01,
 M. J. Frisch, G. W. Trucks, H. B. Schlegel, G. E. Scuseria, 
 M. A. Robb, J. R. Cheeseman, G. Scalmani, V. Barone, 
 G. A. Petersson, H. Nakatsuji, X. Li, M. Caricato, A. V. Marenich, 
 J. Bloino, B. G. Janesko, R. Gomperts, B. Mennucci, H. P. Hratchian, 
 J. V. Ortiz, A. F. Izmaylov, J. L. Sonnenberg, D. Williams-Young, 
 F. Ding, F. Lipparini, F. Egidi, J. Goings, B. Peng, A. Petrone, 
 T. Henderson, D. Ranasinghe, V. G. Zakrzewski, J. Gao, N. Rega, 
 G. Zheng, W. Liang, M. Hada, M. Ehara, K. Toyota, R. Fukuda, 
 J. Hasegawa, M. Ishida, T. Nakajima, Y. Honda, O. Kitao, H. Nakai, 
 T. Vreven, K. Throssell, J. A. Montgomery, Jr., J. E. Peralta, 
 F. Ogliaro, M. J. Bearpark, J. J. Heyd, E. N. Brothers, K. N. Kudin, 
 V. N. Staroverov, T. A. Keith, R. Kobayashi, J. Normand, 
 K. Raghavachari, A. P. Rendell, J. C. Burant, S. S. Iyengar, 
 J. Tomasi, M. Cossi, J. M. Millam, M. Klene, C. Adamo, R. Cammi, 
 J. W. Ochterski, R. L. Martin, K. Morokuma, O. Farkas, 
 J. B. Foresman, and D. J. Fox, Gaussian, Inc., Wallingford CT, 2019.
 
 ******************************************
 Gaussian 16:  ES64L-G16RevC.01  3-Jul-2019
                 5-Apr-2025 
 ******************************************
 %nprocs=16
 Will use up to   16 processors via shared memory.
 %mem=30GB
 %chk=1-4-pentadiene.chk
 ----------------------------------------------------------------------
 #t hf aug-cc-pvdz iop(5/13=1,5/36=2,99/5=2) pseudo=read geom=check gue
 ss=(read,tcheck) scf=(maxcycle=1)
 ----------------------------------------------------------------------
 -----
 title
 -----
 Structure from the checkpoint file:  "1-4-pentadiene.chk"
 Charge =  0 Multiplicity = 1
 Z-Matrix found in chk file.
 C,0,-0.175224,0.514096,2.220039
 C,0,-0.175224,0.514096,-2.220039
 C,0,-0.175224,-0.393919,1.253232
 C,0,-0.175224,-0.393919,-1.253232
 C,0,0.654344,-0.322824,0.
 H,0,-0.79328,0.403263,3.100778
 H,0,0.443638,1.401787,2.165483
 H,0,-0.79328,0.403263,-3.100778
 H,0,0.443638,1.401787,-2.165483
 H,0,-0.815578,-1.266462,1.348079
 H,0,-0.815578,-1.266462,-1.348079
 H,0,1.352792,-1.169518,0.
 H,0,1.256964,0.587167,0.
 Recover connectivity data from disk.
                    Distance matrix (angstroms):
                    1          2          3          4          5
     1  C    0.000000
     2  C    4.440078   0.000000
     3  C    1.326351   3.590000   0.000000
     4  C    3.590000   1.326351   2.506464   0.000000
     5  C    2.513402   2.513402   1.504602   1.504602   0.000000
     6  H    1.081655   5.357739   2.104975   4.469328   3.498234
     7  H    1.083495   4.517055   2.107072   3.910903   2.776328
     8  H    5.357739   1.081655   4.469328   2.104975   3.498234
     9  H    4.517055   1.083495   3.910903   2.107072   2.776328
    10  H    2.083448   4.038800   1.086453   2.817482   2.206454
    11  H    4.038800   2.083448   2.817482   1.086453   2.206454
    12  H    3.177729   3.177729   2.122964   2.122964   1.097598
    13  H    2.642929   2.642929   2.141094   2.141094   1.091437
                    6          7          8          9         10
     6  H    0.000000
     7  H    1.844395   0.000000
     8  H    6.201556   5.500956   0.000000
     9  H    5.500956   4.330966   1.844395   0.000000
    10  H    2.420833   3.061589   4.751927   4.588060   0.000000
    11  H    4.751927   4.588060   2.420833   3.061589   2.696158
    12  H    4.085840   3.482454   4.085840   3.482454   2.555101
    13  H    3.721847   2.452432   3.721847   2.452432   3.090095
                   11         12         13
    11  H    0.000000
    12  H    2.555101   0.000000
    13  H    3.090095   1.759297   0.000000
 Framework group  CS[SG(CH2),X(C4H6)]
 Deg. of freedom    18
                         Standard orientation:                         
 ---------------------------------------------------------------------
 Center     Atomic      Atomic             Coordinates (Angstroms)
 Number     Number       Type             X           Y           Z
 ---------------------------------------------------------------------
      1          6           0       -0.175224    0.514096    2.220039
      2          6           0       -0.175224    0.514096   -2.220039
      3          6           0       -0.175224   -0.393919    1.253232
      4          6           0       -0.175224   -0.393919   -1.253232
      5          6           0        0.654344   -0.322824    0.000000
      6          1           0       -0.793280    0.403263    3.100778
      7          1           0        0.443638    1.401787    2.165483
      8          1           0       -0.793280    0.403263   -3.100778
      9          1           0        0.443638    1.401787   -2.165483
     10          1           0       -0.815578   -1.266462    1.348079
     11          1           0       -0.815578   -1.266462   -1.348079
     12          1           0        1.352792   -1.169518    0.000000
     13          1           0        1.256964    0.587167    0.000000
 ---------------------------------------------------------------------
 Rotational constants (GHZ):          15.0343749           2.5100707           2.4154851
 ======================================================================================================
                                       Pseudopotential Parameters
 ======================================================================================================
  Center     Atomic      Valence      Angular      Power
  Number     Number     Electrons     Momentum     of R      Exponent        Coefficient   SO-Coeffient
 ======================================================================================================
    1          6            6
                                      G and up 
                                                     0        0.0000010       -0.00011185    0.00000000
                                                     2        0.1200000       -0.02301220    0.00000000
                                                     2        0.1400000        0.13317600    0.00000000
                                                     2        0.1600000       -0.19690668    0.00000000
                                                     2        0.2200000        0.23163694    0.00000000
                                                     2        0.3000000       -0.36920489    0.00000000
                                                     2        0.4000000        0.36389709    0.00000000
                                                     2        0.7000000       -0.38862160    0.00000000
                                                     2        1.3000000        0.80803421    0.00000000
                                      S - G
                                                     0        0.0000010        0.00312304    0.00000000
                                                     2        0.1200000       -0.00632892    0.00000000
                                                     2        0.2200000       -0.03780897    0.00000000
                                                     2        0.4000000        0.26269560    0.00000000
                                                     2        0.9000000       -0.28209514    0.00000000
                                                     2        1.5000000       -0.72686737    0.00000000
                                      P - G
                                                     0        0.0000010       -0.01465594    0.00000000
                                                     2        0.1200000        0.07908409    0.00000000
                                                     2        0.1800000       -0.30615861    0.00000000
                                                     2        0.2600000        0.41506950    0.00000000
                                                     2        0.5000000       -0.36252345    0.00000000
                                                     2        0.9000000        0.15124193    0.00000000
                                                     2        3.0000000       -0.80425677    0.00000000
                                      D - G
                                                     0        0.0000010        0.01149631    0.00000000
                                                     2        0.1200000       -0.04713561    0.00000000
                                                     2        0.1600000        0.10865096    0.00000000
                                                     2        0.2800000       -0.15816701    0.00000000
                                                     2        0.7000000        0.65478804    0.00000000
                                                     2        1.3000000       -1.73816624    0.00000000
                                      F - G
                                                     0        0.0000010        0.00481868    0.00000000
                                                     2        0.1200000       -0.04746842    0.00000000
                                                     2        0.1600000        0.09327889    0.00000000
                                                     2        0.4000000       -0.19693326    0.00000000
                                                     2        0.9000000        0.34938253    0.00000000
    2          6            6
                                      G and up 
                                                     0        0.0000010       -0.00011185    0.00000000
                                                     2        0.1200000       -0.02301220    0.00000000
                                                     2        0.1400000        0.13317600    0.00000000
                                                     2        0.1600000       -0.19690668    0.00000000
                                                     2        0.2200000        0.23163694    0.00000000
                                                     2        0.3000000       -0.36920489    0.00000000
                                                     2        0.4000000        0.36389709    0.00000000
                                                     2        0.7000000       -0.38862160    0.00000000
                                                     2        1.3000000        0.80803421    0.00000000
                                      S - G
                                                     0        0.0000010        0.00312304    0.00000000
                                                     2        0.1200000       -0.00632892    0.00000000
                                                     2        0.2200000       -0.03780897    0.00000000
                                                     2        0.4000000        0.26269560    0.00000000
                                                     2        0.9000000       -0.28209514    0.00000000
                                                     2        1.5000000       -0.72686737    0.00000000
                                      P - G
                                                     0        0.0000010       -0.01465594    0.00000000
                                                     2        0.1200000        0.07908409    0.00000000
                                                     2        0.1800000       -0.30615861    0.00000000
                                                     2        0.2600000        0.41506950    0.00000000
                                                     2        0.5000000       -0.36252345    0.00000000
                                                     2        0.9000000        0.15124193    0.00000000
                                                     2        3.0000000       -0.80425677    0.00000000
                                      D - G
                                                     0        0.0000010        0.01149631    0.00000000
                                                     2        0.1200000       -0.04713561    0.00000000
                                                     2        0.1600000        0.10865096    0.00000000
                                                     2        0.2800000       -0.15816701    0.00000000
                                                     2        0.7000000        0.65478804    0.00000000
                                                     2        1.3000000       -1.73816624    0.00000000
                                      F - G
                                                     0        0.0000010        0.00481868    0.00000000
                                                     2        0.1200000       -0.04746842    0.00000000
                                                     2        0.1600000        0.09327889    0.00000000
                                                     2        0.4000000       -0.19693326    0.00000000
                                                     2        0.9000000        0.34938253    0.00000000
    3          6            6
                                      G and up 
                                                     0        0.0000010       -0.00011185    0.00000000
                                                     2        0.1200000       -0.02301220    0.00000000
                                                     2        0.1400000        0.13317600    0.00000000
                                                     2        0.1600000       -0.19690668    0.00000000
                                                     2        0.2200000        0.23163694    0.00000000
                                                     2        0.3000000       -0.36920489    0.00000000
                                                     2        0.4000000        0.36389709    0.00000000
                                                     2        0.7000000       -0.38862160    0.00000000
                                                     2        1.3000000        0.80803421    0.00000000
                                      S - G
                                                     0        0.0000010        0.00312304    0.00000000
                                                     2        0.1200000       -0.00632892    0.00000000
                                                     2        0.2200000       -0.03780897    0.00000000
                                                     2        0.4000000        0.26269560    0.00000000
                                                     2        0.9000000       -0.28209514    0.00000000
                                                     2        1.5000000       -0.72686737    0.00000000
                                      P - G
                                                     0        0.0000010       -0.01465594    0.00000000
                                                     2        0.1200000        0.07908409    0.00000000
                                                     2        0.1800000       -0.30615861    0.00000000
                                                     2        0.2600000        0.41506950    0.00000000
                                                     2        0.5000000       -0.36252345    0.00000000
                                                     2        0.9000000        0.15124193    0.00000000
                                                     2        3.0000000       -0.80425677    0.00000000
                                      D - G
                                                     0        0.0000010        0.01149631    0.00000000
                                                     2        0.1200000       -0.04713561    0.00000000
                                                     2        0.1600000        0.10865096    0.00000000
                                                     2        0.2800000       -0.15816701    0.00000000
                                                     2        0.7000000        0.65478804    0.00000000
                                                     2        1.3000000       -1.73816624    0.00000000
                                      F - G
                                                     0        0.0000010        0.00481868    0.00000000
                                                     2        0.1200000       -0.04746842    0.00000000
                                                     2        0.1600000        0.09327889    0.00000000
                                                     2        0.4000000       -0.19693326    0.00000000
                                                     2        0.9000000        0.34938253    0.00000000
    4          6            6
                                      G and up 
                                                     0        0.0000010       -0.00011185    0.00000000
                                                     2        0.1200000       -0.02301220    0.00000000
                                                     2        0.1400000        0.13317600    0.00000000
                                                     2        0.1600000       -0.19690668    0.00000000
                                                     2        0.2200000        0.23163694    0.00000000
                                                     2        0.3000000       -0.36920489    0.00000000
                                                     2        0.4000000        0.36389709    0.00000000
                                                     2        0.7000000       -0.38862160    0.00000000
                                                     2        1.3000000        0.80803421    0.00000000
                                      S - G
                                                     0        0.0000010        0.00312304    0.00000000
                                                     2        0.1200000       -0.00632892    0.00000000
                                                     2        0.2200000       -0.03780897    0.00000000
                                                     2        0.4000000        0.26269560    0.00000000
                                                     2        0.9000000       -0.28209514    0.00000000
                                                     2        1.5000000       -0.72686737    0.00000000
                                      P - G
                                                     0        0.0000010       -0.01465594    0.00000000
                                                     2        0.1200000        0.07908409    0.00000000
                                                     2        0.1800000       -0.30615861    0.00000000
                                                     2        0.2600000        0.41506950    0.00000000
                                                     2        0.5000000       -0.36252345    0.00000000
                                                     2        0.9000000        0.15124193    0.00000000
                                                     2        3.0000000       -0.80425677    0.00000000
                                      D - G
                                                     0        0.0000010        0.01149631    0.00000000
                                                     2        0.1200000       -0.04713561    0.00000000
                                                     2        0.1600000        0.10865096    0.00000000
                                                     2        0.2800000       -0.15816701    0.00000000
                                                     2        0.7000000        0.65478804    0.00000000
                                                     2        1.3000000       -1.73816624    0.00000000
                                      F - G
                                                     0        0.0000010        0.00481868    0.00000000
                                                     2        0.1200000       -0.04746842    0.00000000
                                                     2        0.1600000        0.09327889    0.00000000
                                                     2        0.4000000       -0.19693326    0.00000000
                                                     2        0.9000000        0.34938253    0.00000000
    5          6            6
                                      G and up 
                                                     0        0.0000010       -0.00011185    0.00000000
                                                     2        0.1200000       -0.02301220    0.00000000
                                                     2        0.1400000        0.13317600    0.00000000
                                                     2        0.1600000       -0.19690668    0.00000000
                                                     2        0.2200000        0.23163694    0.00000000
                                                     2        0.3000000       -0.36920489    0.00000000
                                                     2        0.4000000        0.36389709    0.00000000
                                                     2        0.7000000       -0.38862160    0.00000000
                                                     2        1.3000000        0.80803421    0.00000000
                                      S - G
                                                     0        0.0000010        0.00312304    0.00000000
                                                     2        0.1200000       -0.00632892    0.00000000
                                                     2        0.2200000       -0.03780897    0.00000000
                                                     2        0.4000000        0.26269560    0.00000000
                                                     2        0.9000000       -0.28209514    0.00000000
                                                     2        1.5000000       -0.72686737    0.00000000
                                      P - G
                                                     0        0.0000010       -0.01465594    0.00000000
                                                     2        0.1200000        0.07908409    0.00000000
                                                     2        0.1800000       -0.30615861    0.00000000
                                                     2        0.2600000        0.41506950    0.00000000
                                                     2        0.5000000       -0.36252345    0.00000000
                                                     2        0.9000000        0.15124193    0.00000000
                                                     2        3.0000000       -0.80425677    0.00000000
                                      D - G
                                                     0        0.0000010        0.01149631    0.00000000
                                                     2        0.1200000       -0.04713561    0.00000000
                                                     2        0.1600000        0.10865096    0.00000000
                                                     2        0.2800000       -0.15816701    0.00000000
                                                     2        0.7000000        0.65478804    0.00000000
                                                     2        1.3000000       -1.73816624    0.00000000
                                      F - G
                                                     0        0.0000010        0.00481868    0.00000000
                                                     2        0.1200000       -0.04746842    0.00000000
                                                     2        0.1600000        0.09327889    0.00000000
                                                     2        0.4000000       -0.19693326    0.00000000
                                                     2        0.9000000        0.34938253    0.00000000
    6          1            1
                                      F and up 
                                                     0        0.0000010       -0.00000699    0.00000000
                                                     2        0.1200000        0.00123686    0.00000000
                                                     2        0.1800000       -0.00752022    0.00000000
                                                     2        0.2600000        0.02503380    0.00000000
                                                     2        0.4000000       -0.08702670    0.00000000
                                                     2        0.6000000        0.30134159    0.00000000
                                                     2        0.8000000       -0.50204959    0.00000000
                                                     2        1.2000000        0.52208372    0.00000000
                                      S - F
                                                     0        0.0000010       -0.01618346    0.00000000
                                                     2        0.1200000       -0.07880581    0.00000000
                                                     2        0.1600000        0.32040539    0.00000000
                                                     2        0.2400000       -0.47500956    0.00000000
                                                     2        0.5000000        0.54013668    0.00000000
                                                     2        1.5000000       -1.40434292    0.00000000
                                                     2        3.0000000        1.46283806    0.00000000
                                      P - F
                                                     0        0.0000010        0.00612970    0.00000000
                                                     2        0.1200000        0.02254406    0.00000000
                                                     2        0.1800000       -0.13874529    0.00000000
                                                     2        0.3000000        0.38299049    0.00000000
                                                     2        0.5000000       -0.57923512    0.00000000
                                                     2        1.0000000        0.63021625    0.00000000
                                                     2        2.0000000       -0.79201034    0.00000000
                                      D - F
                                                     0        0.0000010       -0.00296226    0.00000000
                                                     2        0.1200000       -0.00547344    0.00000000
                                                     2        0.1400000        0.01837884    0.00000000
                                                     2        0.2400000       -0.05565704    0.00000000
                                                     2        0.4000000        0.15376597    0.00000000
                                                     2        0.8000000       -0.32464795    0.00000000
    7          1            1
                                      F and up 
                                                     0        0.0000010       -0.00000699    0.00000000
                                                     2        0.1200000        0.00123686    0.00000000
                                                     2        0.1800000       -0.00752022    0.00000000
                                                     2        0.2600000        0.02503380    0.00000000
                                                     2        0.4000000       -0.08702670    0.00000000
                                                     2        0.6000000        0.30134159    0.00000000
                                                     2        0.8000000       -0.50204959    0.00000000
                                                     2        1.2000000        0.52208372    0.00000000
                                      S - F
                                                     0        0.0000010       -0.01618346    0.00000000
                                                     2        0.1200000       -0.07880581    0.00000000
                                                     2        0.1600000        0.32040539    0.00000000
                                                     2        0.2400000       -0.47500956    0.00000000
                                                     2        0.5000000        0.54013668    0.00000000
                                                     2        1.5000000       -1.40434292    0.00000000
                                                     2        3.0000000        1.46283806    0.00000000
                                      P - F
                                                     0        0.0000010        0.00612970    0.00000000
                                                     2        0.1200000        0.02254406    0.00000000
                                                     2        0.1800000       -0.13874529    0.00000000
                                                     2        0.3000000        0.38299049    0.00000000
                                                     2        0.5000000       -0.57923512    0.00000000
                                                     2        1.0000000        0.63021625    0.00000000
                                                     2        2.0000000       -0.79201034    0.00000000
                                      D - F
                                                     0        0.0000010       -0.00296226    0.00000000
                                                     2        0.1200000       -0.00547344    0.00000000
                                                     2        0.1400000        0.01837884    0.00000000
                                                     2        0.2400000       -0.05565704    0.00000000
                                                     2        0.4000000        0.15376597    0.00000000
                                                     2        0.8000000       -0.32464795    0.00000000
    8          1            1
                                      F and up 
                                                     0        0.0000010       -0.00000699    0.00000000
                                                     2        0.1200000        0.00123686    0.00000000
                                                     2        0.1800000       -0.00752022    0.00000000
                                                     2        0.2600000        0.02503380    0.00000000
                                                     2        0.4000000       -0.08702670    0.00000000
                                                     2        0.6000000        0.30134159    0.00000000
                                                     2        0.8000000       -0.50204959    0.00000000
                                                     2        1.2000000        0.52208372    0.00000000
                                      S - F
                                                     0        0.0000010       -0.01618346    0.00000000
                                                     2        0.1200000       -0.07880581    0.00000000
                                                     2        0.1600000        0.32040539    0.00000000
                                                     2        0.2400000       -0.47500956    0.00000000
                                                     2        0.5000000        0.54013668    0.00000000
                                                     2        1.5000000       -1.40434292    0.00000000
                                                     2        3.0000000        1.46283806    0.00000000
                                      P - F
                                                     0        0.0000010        0.00612970    0.00000000
                                                     2        0.1200000        0.02254406    0.00000000
                                                     2        0.1800000       -0.13874529    0.00000000
                                                     2        0.3000000        0.38299049    0.00000000
                                                     2        0.5000000       -0.57923512    0.00000000
                                                     2        1.0000000        0.63021625    0.00000000
                                                     2        2.0000000       -0.79201034    0.00000000
                                      D - F
                                                     0        0.0000010       -0.00296226    0.00000000
                                                     2        0.1200000       -0.00547344    0.00000000
                                                     2        0.1400000        0.01837884    0.00000000
                                                     2        0.2400000       -0.05565704    0.00000000
                                                     2        0.4000000        0.15376597    0.00000000
                                                     2        0.8000000       -0.32464795    0.00000000
    9          1            1
                                      F and up 
                                                     0        0.0000010       -0.00000699    0.00000000
                                                     2        0.1200000        0.00123686    0.00000000
                                                     2        0.1800000       -0.00752022    0.00000000
                                                     2        0.2600000        0.02503380    0.00000000
                                                     2        0.4000000       -0.08702670    0.00000000
                                                     2        0.6000000        0.30134159    0.00000000
                                                     2        0.8000000       -0.50204959    0.00000000
                                                     2        1.2000000        0.52208372    0.00000000
                                      S - F
                                                     0        0.0000010       -0.01618346    0.00000000
                                                     2        0.1200000       -0.07880581    0.00000000
                                                     2        0.1600000        0.32040539    0.00000000
                                                     2        0.2400000       -0.47500956    0.00000000
                                                     2        0.5000000        0.54013668    0.00000000
                                                     2        1.5000000       -1.40434292    0.00000000
                                                     2        3.0000000        1.46283806    0.00000000
                                      P - F
                                                     0        0.0000010        0.00612970    0.00000000
                                                     2        0.1200000        0.02254406    0.00000000
                                                     2        0.1800000       -0.13874529    0.00000000
                                                     2        0.3000000        0.38299049    0.00000000
                                                     2        0.5000000       -0.57923512    0.00000000
                                                     2        1.0000000        0.63021625    0.00000000
                                                     2        2.0000000       -0.79201034    0.00000000
                                      D - F
                                                     0        0.0000010       -0.00296226    0.00000000
                                                     2        0.1200000       -0.00547344    0.00000000
                                                     2        0.1400000        0.01837884    0.00000000
                                                     2        0.2400000       -0.05565704    0.00000000
                                                     2        0.4000000        0.15376597    0.00000000
                                                     2        0.8000000       -0.32464795    0.00000000
   10          1            1
                                      F and up 
                                                     0        0.0000010       -0.00000699    0.00000000
                                                     2        0.1200000        0.00123686    0.00000000
                                                     2        0.1800000       -0.00752022    0.00000000
                                                     2        0.2600000        0.02503380    0.00000000
                                                     2        0.4000000       -0.08702670    0.00000000
                                                     2        0.6000000        0.30134159    0.00000000
                                                     2        0.8000000       -0.50204959    0.00000000
                                                     2        1.2000000        0.52208372    0.00000000
                                      S - F
                                                     0        0.0000010       -0.01618346    0.00000000
                                                     2        0.1200000       -0.07880581    0.00000000
                                                     2        0.1600000        0.32040539    0.00000000
                                                     2        0.2400000       -0.47500956    0.00000000
                                                     2        0.5000000        0.54013668    0.00000000
                                                     2        1.5000000       -1.40434292    0.00000000
                                                     2        3.0000000        1.46283806    0.00000000
                                      P - F
                                                     0        0.0000010        0.00612970    0.00000000
                                                     2        0.1200000        0.02254406    0.00000000
                                                     2        0.1800000       -0.13874529    0.00000000
                                                     2        0.3000000        0.38299049    0.00000000
                                                     2        0.5000000       -0.57923512    0.00000000
                                                     2        1.0000000        0.63021625    0.00000000
                                                     2        2.0000000       -0.79201034    0.00000000
                                      D - F
                                                     0        0.0000010       -0.00296226    0.00000000
                                                     2        0.1200000       -0.00547344    0.00000000
                                                     2        0.1400000        0.01837884    0.00000000
                                                     2        0.2400000       -0.05565704    0.00000000
                                                     2        0.4000000        0.15376597    0.00000000
                                                     2        0.8000000       -0.32464795    0.00000000
   11          1            1
                                      F and up 
                                                     0        0.0000010       -0.00000699    0.00000000
                                                     2        0.1200000        0.00123686    0.00000000
                                                     2        0.1800000       -0.00752022    0.00000000
                                                     2        0.2600000        0.02503380    0.00000000
                                                     2        0.4000000       -0.08702670    0.00000000
                                                     2        0.6000000        0.30134159    0.00000000
                                                     2        0.8000000       -0.50204959    0.00000000
                                                     2        1.2000000        0.52208372    0.00000000
                                      S - F
                                                     0        0.0000010       -0.01618346    0.00000000
                                                     2        0.1200000       -0.07880581    0.00000000
                                                     2        0.1600000        0.32040539    0.00000000
                                                     2        0.2400000       -0.47500956    0.00000000
                                                     2        0.5000000        0.54013668    0.00000000
                                                     2        1.5000000       -1.40434292    0.00000000
                                                     2        3.0000000        1.46283806    0.00000000
                                      P - F
                                                     0        0.0000010        0.00612970    0.00000000
                                                     2        0.1200000        0.02254406    0.00000000
                                                     2        0.1800000       -0.13874529    0.00000000
                                                     2        0.3000000        0.38299049    0.00000000
                                                     2        0.5000000       -0.57923512    0.00000000
                                                     2        1.0000000        0.63021625    0.00000000
                                                     2        2.0000000       -0.79201034    0.00000000
                                      D - F
                                                     0        0.0000010       -0.00296226    0.00000000
                                                     2        0.1200000       -0.00547344    0.00000000
                                                     2        0.1400000        0.01837884    0.00000000
                                                     2        0.2400000       -0.05565704    0.00000000
                                                     2        0.4000000        0.15376597    0.00000000
                                                     2        0.8000000       -0.32464795    0.00000000
   12          1            1
                                      F and up 
                                                     0        0.0000010       -0.00000699    0.00000000
                                                     2        0.1200000        0.00123686    0.00000000
                                                     2        0.1800000       -0.00752022    0.00000000
                                                     2        0.2600000        0.02503380    0.00000000
                                                     2        0.4000000       -0.08702670    0.00000000
                                                     2        0.6000000        0.30134159    0.00000000
                                                     2        0.8000000       -0.50204959    0.00000000
                                                     2        1.2000000        0.52208372    0.00000000
                                      S - F
                                                     0        0.0000010       -0.01618346    0.00000000
                                                     2        0.1200000       -0.07880581    0.00000000
                                                     2        0.1600000        0.32040539    0.00000000
                                                     2        0.2400000       -0.47500956    0.00000000
                                                     2        0.5000000        0.54013668    0.00000000
                                                     2        1.5000000       -1.40434292    0.00000000
                                                     2        3.0000000        1.46283806    0.00000000
                                      P - F
                                                     0        0.0000010        0.00612970    0.00000000
                                                     2        0.1200000        0.02254406    0.00000000
                                                     2        0.1800000       -0.13874529    0.00000000
                                                     2        0.3000000        0.38299049    0.00000000
                                                     2        0.5000000       -0.57923512    0.00000000
                                                     2        1.0000000        0.63021625    0.00000000
                                                     2        2.0000000       -0.79201034    0.00000000
                                      D - F
                                                     0        0.0000010       -0.00296226    0.00000000
                                                     2        0.1200000       -0.00547344    0.00000000
                                                     2        0.1400000        0.01837884    0.00000000
                                                     2        0.2400000       -0.05565704    0.00000000
                                                     2        0.4000000        0.15376597    0.00000000
                                                     2        0.8000000       -0.32464795    0.00000000
   13          1            1
                                      F and up 
                                                     0        0.0000010       -0.00000699    0.00000000
                                                     2        0.1200000        0.00123686    0.00000000
                                                     2        0.1800000       -0.00752022    0.00000000
                                                     2        0.2600000        0.02503380    0.00000000
                                                     2        0.4000000       -0.08702670    0.00000000
                                                     2        0.6000000        0.30134159    0.00000000
                                                     2        0.8000000       -0.50204959    0.00000000
                                                     2        1.2000000        0.52208372    0.00000000
                                      S - F
                                                     0        0.0000010       -0.01618346    0.00000000
                                                     2        0.1200000       -0.07880581    0.00000000
                                                     2        0.1600000        0.32040539    0.00000000
                                                     2        0.2400000       -0.47500956    0.00000000
                                                     2        0.5000000        0.54013668    0.00000000
                                                     2        1.5000000       -1.40434292    0.00000000
                                                     2        3.0000000        1.46283806    0.00000000
                                      P - F
                                                     0        0.0000010        0.00612970    0.00000000
                                                     2        0.1200000        0.02254406    0.00000000
                                                     2        0.1800000       -0.13874529    0.00000000
                                                     2        0.3000000        0.38299049    0.00000000
                                                     2        0.5000000       -0.57923512    0.00000000
                                                     2        1.0000000        0.63021625    0.00000000
                                                     2        2.0000000       -0.79201034    0.00000000
                                      D - F
                                                     0        0.0000010       -0.00296226    0.00000000
                                                     2        0.1200000       -0.00547344    0.00000000
                                                     2        0.1400000        0.01837884    0.00000000
                                                     2        0.2400000       -0.05565704    0.00000000
                                                     2        0.4000000        0.15376597    0.00000000
                                                     2        0.8000000       -0.32464795    0.00000000
 ======================================================================================================
   187 basis functions,   303 primitive gaussians,   197 cartesian basis functions
    19 alpha electrons       19 beta electrons
       nuclear repulsion energy       155.7111708991 Hartrees.
 NAtoms=   13 NActive=   13 NUniq=    8 SFac= 2.64D+00 NAtFMM=   60 NAOKFM=F Big=F
   2 Symmetry operations used in ECPInt.
 ECPInt:  NShTT=    3655 NPrTT=   14955 LenC2=    3651 LenP2D=   12436.
 LDataN:  DoStor=T MaxTD1= 6 Len=  172
 Initial guess from the checkpoint file:  "1-4-pentadiene.chk"
 B after Tr=    -0.000000   -0.000000    0.000000
         Rot=    1.000000    0.000000   -0.000000    0.000000 Ang=   0.00 deg.
 Initial guess orbital symmetries:
       Occupied  (A') (A") (A') (A") (A') (A') (A") (A') (A") (A')
                 (A') (A") (A') (A") (A') (A") (A') (A') (A")
       Virtual   (A') (A') (A") (A') (A") (A') (A") (A') (A') (A")
                 (A') (A") (A') (A') (A") (A") (A') (A') (A') (A")
                 (A') (A') (A") (A") (A') (A") (A') (A") (A') (A")
                 (A') (A") (A') (A') (A") (A') (A') (A") (A") (A')
                 (A') (A") (A') (A") (A') (A") (A") (A') (A') (A")
                 (A') (A') (A") (A') (A") (A') (A') (A') (A") (A")
                 (A') (A") (A') (A") (A') (A") (A') (A") (A') (A")
                 (A') (A') (A") (A") (A') (A") (A') (A') (A') (A")
                 (A") (A') (A') (A") (A") (A") (A') (A') (A') (A")
                 (A") (A") (A') (A') (A') (A') (A') (A") (A') (A")
                 (A") (A") (A') (A") (A') (A') (A') (A") (A") (A')
                 (A') (A") (A') (A") (A") (A') (A') (A") (A') (A')
                 (A") (A') (A") (A") (A') (A") (A') (A") (A') (A")
                 (A') (A') (A') (A") (A') (A") (A") (A') (A') (A")
                 (A') (A") (A") (A') (A') (A") (A") (A') (A') (A")
                 (A") (A") (A') (A') (A') (A") (A") (A') (A") (A')
                 (A') (A") (A') (A') (A') (A") (A") (A')
 >>>>>>>>>> Convergence criterion not met.
 SCF Done:  E(RHF) =  -194.035479866     A.U. after    2 cycles
            NFock=  1  Conv=0.53D-02     -V/T= 2.0014

 **********************************************************************

            Population analysis using the SCF Density.

 **********************************************************************

 Orbital symmetries:
       Occupied  (A') (A") (A') (A") (A') (A') (A") (A') (A") (A')
                 (A') (A") (A') (A") (A') (A") (A') (A') (A")
       Virtual   (A') (A') (A") (A') (A") (A') (A") (A') (A') (A")
                 (A') (A") (A') (A') (A") (A") (A') (A') (A') (A")
                 (A') (A') (A") (A") (A') (A") (A') (A") (A') (A")
                 (A') (A") (A') (A') (A") (A') (A') (A") (A") (A')
                 (A') (A") (A') (A") (A') (A") (A") (A') (A') (A")
                 (A') (A') (A") (A') (A") (A') (A') (A') (A") (A")
                 (A') (A") (A') (A") (A") (A') (A') (A") (A') (A")
                 (A') (A') (A") (A") (A') (A") (A') (A') (A') (A")
                 (A") (A') (A') (A") (A") (A") (A') (A') (A') (A")
                 (A") (A") (A') (A') (A') (A') (A') (A") (A') (A")
                 (A") (A") (A') (A") (A') (A') (A") (A') (A") (A')
                 (A") (A') (A') (A") (A") (A') (A') (A") (A') (A')
                 (A") (A") (A') (A") (A') (A') (A") (A") (A') (A")
                 (A') (A') (A') (A") (A') (A") (A") (A') (A') (A")
                 (A') (A") (A") (A') (A') (A") (A") (A') (A') (A")
                 (A") (A") (A') (A') (A') (A") (A") (A') (A') (A")
                 (A') (A") (A') (A') (A') (A") (A") (A')
 The electronic state is 1-A'.
 Alpha  occ. eigenvalues --  -11.24625 -11.24622 -11.24366 -11.23145 -11.23144
 Alpha  occ. eigenvalues --   -1.08889  -1.02649  -0.92771  -0.77362  -0.76046
 Alpha  occ. eigenvalues --   -0.64671  -0.64317  -0.59859  -0.56962  -0.54847
 Alpha  occ. eigenvalues --   -0.49608  -0.49534  -0.36971  -0.36494
 Alpha virt. eigenvalues --    0.03665   0.04475   0.04506   0.05124   0.06529
 Alpha virt. eigenvalues --    0.06549   0.07778   0.08005   0.10471   0.12153
 Alpha virt. eigenvalues --    0.12793   0.13350   0.13860   0.15302   0.15551
 Alpha virt. eigenvalues --    0.16050   0.16808   0.17380   0.18532   0.18692
 Alpha virt. eigenvalues --    0.18749   0.19728   0.19810   0.20489   0.21516
 Alpha virt. eigenvalues --    0.22432   0.22837   0.27285   0.28235   0.28660
 Alpha virt. eigenvalues --    0.31286   0.31526   0.32894   0.34443   0.34847
 Alpha virt. eigenvalues --    0.35699   0.39842   0.40810   0.40889   0.41321
 Alpha virt. eigenvalues --    0.41999   0.43680   0.43772   0.45854   0.46395
 Alpha virt. eigenvalues --    0.46946   0.48386   0.48513   0.50319   0.50727
 Alpha virt. eigenvalues --    0.51340   0.51984   0.55092   0.56169   0.57025
 Alpha virt. eigenvalues --    0.57449   0.58710   0.60316   0.60916   0.62248
 Alpha virt. eigenvalues --    0.62965   0.63404   0.63811   0.64814   0.66533
 Alpha virt. eigenvalues --    0.66560   0.67130   0.68788   0.68988   0.71574
 Alpha virt. eigenvalues --    0.72080   0.72254   0.72670   0.75173   0.77212
 Alpha virt. eigenvalues --    0.77892   0.80715   0.81359   0.84167   0.84790
 Alpha virt. eigenvalues --    0.85639   0.86202   0.86934   0.88619   0.90872
 Alpha virt. eigenvalues --    0.91389   0.91837   0.93033   0.94619   0.98855
 Alpha virt. eigenvalues --    0.99426   1.02658   1.03146   1.08177   1.15630
 Alpha virt. eigenvalues --    1.20155   1.23903   1.24437   1.26267   1.26295
 Alpha virt. eigenvalues --    1.27445   1.32543   1.34832   1.39285   1.40631
 Alpha virt. eigenvalues --    1.46642   1.56601   1.56772   1.59436   1.61103
 Alpha virt. eigenvalues --    1.63199   1.63311   1.67115   1.68027   1.69252
 Alpha virt. eigenvalues --    1.70387   1.72759   1.76188   1.79747   1.81616
 Alpha virt. eigenvalues --    1.83933   1.87945   1.88060   1.94120   1.94443
 Alpha virt. eigenvalues --    1.96931   1.97197   2.02475   2.03873   2.05516
 Alpha virt. eigenvalues --    2.06100   2.08956   2.11516   2.12434   2.14602
 Alpha virt. eigenvalues --    2.15590   2.18574   2.20262   2.24313   2.26580
 Alpha virt. eigenvalues --    2.27790   2.29478   2.32813   2.35232   2.40644
 Alpha virt. eigenvalues --    2.42645   2.43319   2.48734   2.53709   2.54318
 Alpha virt. eigenvalues --    2.56826   2.60556   2.66644   2.69587   2.72238
 Alpha virt. eigenvalues --    2.76122   2.80385   2.83372   2.93773   2.94535
 Alpha virt. eigenvalues --    2.95416   2.99986   3.03902   3.17901   3.36314
 Alpha virt. eigenvalues --    3.39421   3.55746   3.68437
          Condensed to atoms (all electrons):
 Mulliken charges:
               1
     1  C    0.473343
     2  C    0.473343
     3  C    0.523066
     4  C    0.523066
     5  C    0.038808
     6  H   -0.299021
     7  H   -0.294908
     8  H   -0.299021
     9  H   -0.294908
    10  H   -0.416712
    11  H   -0.416712
    12  H    0.113157
    13  H   -0.123502
 Sum of Mulliken charges =   0.00000
 Mulliken charges with hydrogens summed into heavy atoms:
               1
     1  C   -0.120585
     2  C   -0.120585
     3  C    0.106354
     4  C    0.106354
     5  C    0.028463
 Electronic spatial extent (au):  <R**2>=            553.1294
 Charge=             -0.0000 electrons
 Dipole moment (field-independent basis, Debye):
    X=              0.1471    Y=             -0.2474    Z=             -0.0000  Tot=              0.2878

 Test job not archived.
 1\1\GINC-SE226\SP\RHF\Aug-CC-pVDZ\C5H8\OHZDE\05-Apr-2025\0\\#t hf aug-
 cc-pvdz iop(5/13=1,5/36=2,99/5=2) pseudo=read geom=check guess=(read,t
 check) scf=(maxcycle=1)\\title\\0,1\C,0,-0.175224,0.514096,2.220039\C,
 0,-0.175224,0.514096,-2.220039\C,0,-0.175224,-0.393919,1.253232\C,0,-0
 .175224,-0.393919,-1.253232\C,0,0.654344,-0.322824,0.\H,0,-0.79328,0.4
 03263,3.100778\H,0,0.443638,1.401787,2.165483\H,0,-0.79328,0.403263,-3
 .100778\H,0,0.443638,1.401787,-2.165483\H,0,-0.815578,-1.266462,1.3480
 79\H,0,-0.815578,-1.266462,-1.348079\H,0,1.352792,-1.169518,0.\H,0,1.2
 56964,0.587167,0.\\Version=ES64L-G16RevC.01\State=1-A'\HF=-194.0354799
 \RMSD=5.301e-03\Dipole=0.0578781,-0.0973325,0.\Quadrupole=-0.7930811,1
 .0620744,-0.2689933,1.7189679,0.,0.\PG=CS [SG(C1H2),X(C4H6)]\\@


 Discoveries are often made by not following instructions,
 by going off the main road, by trying the untried.
 -- Frank Tyger
 Job cpu time:       0 days  0 hours  0 minutes 22.9 seconds.
 Elapsed time:       0 days  0 hours  0 minutes  2.2 seconds.
 File lengths (MBytes):  RWF=     10 Int=      0 D2E=      0 Chk=      5 Scr=      1
 Normal termination of Gaussian 16 at Sat Apr  5 22:10:41 2025.
