 Entering Gaussian System, Link 0=g16
 Input=1-6-dimethylnaphthalene.gjf
 Output=1-6-dimethylnaphthalene.log
 Initial command:
 /arc/software/Gaussian/g16.c01/l1.exe "/tmp/slurm/4814275/Gau-918054.inp" -scrdir="/tmp/slurm/4814275/"
 Entering Link 1 = /arc/software/Gaussian/g16.c01/l1.exe PID=    918055.
  
 Copyright (c) 1988-2019, Gaussian, Inc.  All Rights Reserved.
  
 This is part of the Gaussian(R) 16 program.  It is based on
 the Gaussian(R) 09 system (copyright 2009, Gaussian, Inc.),
 the Gaussian(R) 03 system (copyright 2003, Gaussian, Inc.),
 the Gaussian(R) 98 system (copyright 1998, Gaussian, Inc.),
 the Gaussian(R) 94 system (copyright 1995, Gaussian, Inc.),
 the Gaussian 92(TM) system (copyright 1992, Gaussian, Inc.),
 the Gaussian 90(TM) system (copyright 1990, Gaussian, Inc.),
 the Gaussian 88(TM) system (copyright 1988, Gaussian, Inc.),
 the Gaussian 86(TM) system (copyright 1986, Carnegie Mellon
 University), and the Gaussian 82(TM) system (copyright 1983,
 Carnegie Mellon University). Gaussian is a federally registered
 trademark of Gaussian, Inc.
  
 This software contains proprietary and confidential information,
 including trade secrets, belonging to Gaussian, Inc.
  
 This software is provided under written license and may be
 used, copied, transmitted, or stored only in accord with that
 written license.
  
 The following legend is applicable only to US Government
 contracts under FAR:
  
                    RESTRICTED RIGHTS LEGEND
  
 Use, reproduction and disclosure by the US Government is
 subject to restrictions as set forth in subparagraphs (a)
 and (c) of the Commercial Computer Software - Restricted
 Rights clause in FAR 52.227-19.
  
 Gaussian, Inc.
 340 Quinnipiac St., Bldg. 40, Wallingford CT 06492
  
  
 ---------------------------------------------------------------
 Warning -- This program may not be used in any manner that
 competes with the business of Gaussian, Inc. or will provide
 assistance to any competitor of Gaussian, Inc.  The licensee
 of this program is prohibited from giving any competitor of
 Gaussian, Inc. access to this program.  By using this program,
 the user acknowledges that Gaussian, Inc. is engaged in the
 business of creating and licensing software in the field of
 computational chemistry and represents and warrants to the
 licensee that it is not a competitor of Gaussian, Inc. and that
 it will not use this program in any manner prohibited above.
 ---------------------------------------------------------------
  

 Cite this work as:
 Gaussian 16, Revision C.01,
 M. J. Frisch, G. W. Trucks, H. B. Schlegel, G. E. Scuseria, 
 M. A. Robb, J. R. Cheeseman, G. Scalmani, V. Barone, 
 G. A. Petersson, H. Nakatsuji, X. Li, M. Caricato, A. V. Marenich, 
 J. Bloino, B. G. Janesko, R. Gomperts, B. Mennucci, H. P. Hratchian, 
 J. V. Ortiz, A. F. Izmaylov, J. L. Sonnenberg, D. Williams-Young, 
 F. Ding, F. Lipparini, F. Egidi, J. Goings, B. Peng, A. Petrone, 
 T. Henderson, D. Ranasinghe, V. G. Zakrzewski, J. Gao, N. Rega, 
 G. Zheng, W. Liang, M. Hada, M. Ehara, K. Toyota, R. Fukuda, 
 J. Hasegawa, M. Ishida, T. Nakajima, Y. Honda, O. Kitao, H. Nakai, 
 T. Vreven, K. Throssell, J. A. Montgomery, Jr., J. E. Peralta, 
 F. Ogliaro, M. J. Bearpark, J. J. Heyd, E. N. Brothers, K. N. Kudin, 
 V. N. Staroverov, T. A. Keith, R. Kobayashi, J. Normand, 
 K. Raghavachari, A. P. Rendell, J. C. Burant, S. S. Iyengar, 
 J. Tomasi, M. Cossi, J. M. Millam, M. Klene, C. Adamo, R. Cammi, 
 J. W. Ochterski, R. L. Martin, K. Morokuma, O. Farkas, 
 J. B. Foresman, and D. J. Fox, Gaussian, Inc., Wallingford CT, 2019.
 
 ******************************************
 Gaussian 16:  ES64L-G16RevC.01  3-Jul-2019
                 5-Apr-2025 
 ******************************************
 %nprocs=16
 Will use up to   16 processors via shared memory.
 %mem=30GB
 %chk=1-6-dimethylnaphthalene.chk
 ----------------------------------------------------------------------
 #t hf aug-cc-pvdz symm=none int=(grid=ultrafine) guess=(read,tcheck) s
 table=(opt,rrhf)
 ----------------------------------------------------------------------
 -----
 title
 -----
 Symbolic Z-matrix:
 Charge =  0 Multiplicity = 1
 C                    -0.07226   1.82735  -0.34903 
 C                     0.07226  -1.82735   0.34903 
 C                    -1.37462   2.10896  -0.03407 
 C                     1.37462  -2.10896   0.03407 
 C                     1.77907   0.18274  -0.54468 
 C                    -1.77907  -0.18274   0.54468 
 C                     0.43857   0.51211  -0.22886 
 C                    -0.43857  -0.51211   0.22886 
 C                    -2.25906   1.09858   0.42251 
 C                     2.25906  -1.09858  -0.42251 
 C                    -3.68443   1.44726   0.75687 
 C                     3.68443  -1.44726  -0.75687 
 H                     0.58554   2.61456  -0.69602 
 H                    -0.58554  -2.61456   0.69602 
 H                    -1.74264   3.1228   -0.13403 
 H                     1.74264  -3.1228    0.13403 
 H                     2.43556   0.97229  -0.89164 
 H                    -2.43556  -0.97229   0.89164 
 H                    -4.23709   0.57474   1.10251 
 H                    -3.73171   2.20739   1.53986 
 H                    -4.20601   1.85227  -0.11332 
 H                     4.20601  -1.85227   0.11332 
 H                     3.73171  -2.20739  -1.53986 
 H                     4.23709  -0.57474  -1.10251 
 
                    Distance matrix (angstroms):
                    1          2          3          4          5
     1  C    0.000000
     2  C    3.723566   0.000000
     3  C    1.369171   4.211263   0.000000
     4  C    4.211263   1.369171   5.035254   0.000000
     5  C    2.484037   2.784309   3.730521   2.398009   0.000000
     6  C    2.784309   2.484037   2.398009   3.730521   3.739075
     7  C    1.416068   2.437451   2.423949   2.795586   1.416041
     8  C    2.437451   1.416068   2.795586   2.423949   2.449308
     9  C    2.430735   3.741858   1.418304   4.862387   4.252146
    10  C    3.741858   2.430735   4.862387   1.418304   1.373717
    11  C    3.796733   5.000208   2.529554   6.225997   5.756981
    12  C    5.000208   3.796733   6.225997   2.529554   2.516406
    13  H    1.082963   4.591960   2.129791   4.844308   2.713145
    14  H    4.591960   1.082963   4.844308   2.129791   3.867249
    15  H    2.124756   5.294449   1.083194   6.092363   4.605977
    16  H    5.294449   2.124756   6.092363   1.083194   3.374702
    17  H    2.704569   3.868125   4.067536   3.387722   1.083854
    18  H    3.868125   2.704569   3.387722   4.067536   4.600023
    19  H    4.584949   4.990815   3.440843   6.311498   6.249886
    20  H    4.135689   5.671631   2.835994   6.853676   6.230029
    21  H    4.140531   5.661883   2.844104   6.845174   6.228526
    22  H    5.661883   4.140531   6.845174   2.844104   3.234849
    23  H    5.671631   4.135689   6.853676   2.835994   3.242827
    24  H    4.990815   4.584949   6.311498   3.440843   2.631879
                    6          7          8          9         10
     6  C    0.000000
     7  C    2.449308   0.000000
     8  C    1.416041   1.424038   0.000000
     9  C    1.373717   2.836450   2.438441   0.000000
    10  C    4.252146   2.438441   2.836450   5.094605   0.000000
    11  C    2.516406   4.341111   3.827987   1.505002   6.572462
    12  C    5.756981   3.827987   4.341111   6.572462   1.505002
    13  H    3.867249   2.158738   3.417634   3.411900   4.082018
    14  H    2.713145   3.417634   2.158738   4.082018   3.411900
    15  H    3.374702   3.403292   3.878768   2.161926   5.823820
    16  H    4.605977   3.878768   3.403292   5.823820   2.161926
    17  H    4.600023   2.153836   3.423383   4.876718   2.130666
    18  H    1.083854   3.423383   2.153836   2.130666   4.876718
    19  H    2.631879   4.861916   4.046385   2.156244   6.879362
    20  H    3.242827   4.836693   4.467571   2.155607   7.118266
    21  H    3.234849   4.835438   4.461045   2.155401   7.113381
    22  H    6.228526   4.461045   4.835438   7.113381   2.155401
    23  H    6.230029   4.467571   4.836693   7.118266   2.155607
    24  H    6.249886   4.046385   4.861916   6.879362   2.156244
                   11         12         13         14         15
    11  C    0.000000
    12  C    8.060371   0.000000
    13  H    4.658974   5.109323   0.000000
    14  H    5.109323   4.658974   5.536503   0.000000
    15  H    2.715083   7.122248   2.448376   5.911446   0.000000
    16  H    7.122248   2.715083   5.911446   2.448376   7.157276
    17  H    6.355889   2.726184   2.481506   4.951078   4.759828
    18  H    2.726184   6.355889   4.951078   2.481506   4.278078
    19  H    1.089129   8.384277   5.536541   4.865250   3.774116
    20  H    1.092300   8.580823   4.878892   5.819080   2.756141
    21  H    1.092386   8.576708   4.886667   5.806493   2.771798
    22  H    8.576708   1.092386   5.806493   4.886667   7.758794
    23  H    8.580823   1.092300   5.819080   4.878892   7.768902
    24  H    8.384277   1.089129   4.865250   5.536541   7.096962
                   16         17         18         19         20
    16  H    0.000000
    17  H    4.278078   0.000000
    18  H    4.759828   5.539786   0.000000
    19  H    7.096962   6.975589   2.383964   0.000000
    20  H    7.768902   6.743357   3.494367   1.764154   0.000000
    21  H    7.758794   6.744661   3.481752   1.763890   1.756158
    22  H    2.771798   3.481752   6.744661   8.840512   9.029020
    23  H    2.756141   3.494367   6.743357   8.844440   9.202049
    24  H    3.774116   2.383964   6.975589   8.831479   8.844440
                   21         22         23         24
    21  H    0.000000
    22  H    9.194394   0.000000
    23  H    9.029020   1.756158   0.000000
    24  H    8.840512   1.763890   1.764154   0.000000
 Symmetry turned off by external request.
 Rotational constants (GHZ):           2.6961116           0.5783236           0.4789869
   384 basis functions,   648 primitive gaussians,   408 cartesian basis functions
    42 alpha electrons       42 beta electrons
       nuclear repulsion energy       629.7381066771 Hartrees.
 NAtoms=   24 NActive=   24 NUniq=   24 SFac= 1.00D+00 NAtFMM=   60 NAOKFM=F Big=F
 ExpMin= 2.97D-02 ExpMax= 6.67D+03 ExpMxC= 2.28D+02 IAcc=3 IRadAn=         5 AccDes= 0.00D+00
 Harris functional with IExCor=  205 and IRadAn=       5 diagonalized for initial guess.
 HarFok:  IExCor=  205 AccDes= 0.00D+00 IRadAn=         5 IDoV= 1 UseB2=F ITyADJ=14
 ICtDFT=  3500011 ScaDFX=  1.000000  1.000000  1.000000  1.000000
 FoFCou: FMM=F IPFlag=           0 FMFlag=      100000 FMFlg1=           0
         NFxFlg=           0 DoJE=T BraDBF=F KetDBF=T FulRan=T
         wScrn=  0.000000 ICntrl=       500 IOpCl=  0 I1Cent=   200000004 NGrid=           0
         NMat0=    1 NMatS0=      1 NMatT0=    0 NMatD0=    1 NMtDS0=    0 NMtDT0=    0
 Symmetry not used in FoFCou.
 SCF Done:  E(RHF) =  -461.476556854     A.U. after   15 cycles
            NFock= 15  Conv=0.50D-08     -V/T= 2.0004

 **********************************************************************

            Population analysis using the SCF Density.

 **********************************************************************

 Alpha  occ. eigenvalues --  -11.24377 -11.24377 -11.24180 -11.24079 -11.23818
 Alpha  occ. eigenvalues --  -11.23814 -11.23490 -11.23489 -11.23226 -11.23226
 Alpha  occ. eigenvalues --  -11.22967 -11.22967  -1.17868  -1.12278  -1.05311
 Alpha  occ. eigenvalues --   -1.04722  -0.98798  -0.96658  -0.90758  -0.84900
 Alpha  occ. eigenvalues --   -0.81152  -0.79882  -0.69602  -0.68759  -0.66196
 Alpha  occ. eigenvalues --   -0.61914  -0.59874  -0.59754  -0.57776  -0.57741
 Alpha  occ. eigenvalues --   -0.57311  -0.55067  -0.53705  -0.53061  -0.51635
 Alpha  occ. eigenvalues --   -0.50541  -0.48000  -0.46883  -0.42987  -0.37940
 Alpha  occ. eigenvalues --   -0.30714  -0.28239
 Alpha virt. eigenvalues --    0.03567   0.03581   0.03868   0.04823   0.05249
 Alpha virt. eigenvalues --    0.05823   0.06099   0.06567   0.07085   0.08134
 Alpha virt. eigenvalues --    0.08569   0.08938   0.09738   0.10829   0.10840
 Alpha virt. eigenvalues --    0.10865   0.11998   0.12434   0.12989   0.14019
 Alpha virt. eigenvalues --    0.14506   0.14552   0.14698   0.14960   0.15810
 Alpha virt. eigenvalues --    0.16421   0.16584   0.16711   0.16791   0.17339
 Alpha virt. eigenvalues --    0.17609   0.17885   0.17982   0.18469   0.19065
 Alpha virt. eigenvalues --    0.19690   0.20322   0.21427   0.21591   0.21813
 Alpha virt. eigenvalues --    0.22348   0.22627   0.23058   0.23909   0.24679
 Alpha virt. eigenvalues --    0.25271   0.25303   0.26608   0.27579   0.27774
 Alpha virt. eigenvalues --    0.27851   0.28542   0.28691   0.29809   0.31482
 Alpha virt. eigenvalues --    0.31633   0.32697   0.32934   0.33029   0.33475
 Alpha virt. eigenvalues --    0.33979   0.34563   0.34622   0.35169   0.35513
 Alpha virt. eigenvalues --    0.36800   0.36959   0.37104   0.37696   0.39033
 Alpha virt. eigenvalues --    0.39696   0.40353   0.40619   0.41010   0.41629
 Alpha virt. eigenvalues --    0.42934   0.43239   0.43542   0.44371   0.44835
 Alpha virt. eigenvalues --    0.44915   0.46108   0.46423   0.46815   0.46961
 Alpha virt. eigenvalues --    0.48064   0.48252   0.49071   0.49474   0.49928
 Alpha virt. eigenvalues --    0.50760   0.51507   0.52430   0.52958   0.53778
 Alpha virt. eigenvalues --    0.54236   0.55017   0.55053   0.55374   0.55428
 Alpha virt. eigenvalues --    0.56886   0.57097   0.58239   0.58263   0.59418
 Alpha virt. eigenvalues --    0.61055   0.61985   0.62077   0.62431   0.63256
 Alpha virt. eigenvalues --    0.63938   0.64640   0.66026   0.66327   0.66495
 Alpha virt. eigenvalues --    0.66520   0.67322   0.68055   0.68458   0.68536
 Alpha virt. eigenvalues --    0.68625   0.69254   0.69565   0.70505   0.70567
 Alpha virt. eigenvalues --    0.70953   0.71528   0.71992   0.73020   0.73253
 Alpha virt. eigenvalues --    0.74696   0.74749   0.75583   0.76124   0.77260
 Alpha virt. eigenvalues --    0.77330   0.78271   0.78738   0.78879   0.79151
 Alpha virt. eigenvalues --    0.79312   0.79861   0.79889   0.81572   0.82091
 Alpha virt. eigenvalues --    0.82429   0.82700   0.83886   0.84809   0.85820
 Alpha virt. eigenvalues --    0.86215   0.89612   0.91062   0.91301   0.92611
 Alpha virt. eigenvalues --    0.92744   0.92946   0.93084   0.93653   0.94348
 Alpha virt. eigenvalues --    0.95433   0.95657   0.95778   0.96642   0.98525
 Alpha virt. eigenvalues --    0.99863   1.00414   1.01117   1.01181   1.01845
 Alpha virt. eigenvalues --    1.03204   1.05550   1.06300   1.07988   1.08265
 Alpha virt. eigenvalues --    1.08346   1.08593   1.10937   1.12117   1.12194
 Alpha virt. eigenvalues --    1.13435   1.13886   1.14689   1.16067   1.16733
 Alpha virt. eigenvalues --    1.17453   1.18317   1.18569   1.19666   1.23673
 Alpha virt. eigenvalues --    1.23867   1.24221   1.26442   1.30111   1.31232
 Alpha virt. eigenvalues --    1.32974   1.33299   1.34759   1.37315   1.37864
 Alpha virt. eigenvalues --    1.38297   1.47403   1.49595   1.49643   1.50757
 Alpha virt. eigenvalues --    1.50993   1.54981   1.55373   1.55395   1.55661
 Alpha virt. eigenvalues --    1.58053   1.58231   1.59660   1.60419   1.61366
 Alpha virt. eigenvalues --    1.63901   1.64760   1.65330   1.66412   1.67222
 Alpha virt. eigenvalues --    1.69684   1.70139   1.70621   1.70870   1.72132
 Alpha virt. eigenvalues --    1.73610   1.74068   1.74551   1.76354   1.77415
 Alpha virt. eigenvalues --    1.78911   1.79826   1.80050   1.81716   1.82475
 Alpha virt. eigenvalues --    1.82880   1.84641   1.84664   1.85298   1.86626
 Alpha virt. eigenvalues --    1.88665   1.89084   1.91346   1.91557   1.91681
 Alpha virt. eigenvalues --    1.91769   1.92867   1.94107   1.95218   1.98273
 Alpha virt. eigenvalues --    2.00264   2.00746   2.02092   2.02622   2.04748
 Alpha virt. eigenvalues --    2.04958   2.07050   2.07581   2.10007   2.10672
 Alpha virt. eigenvalues --    2.11705   2.13221   2.15522   2.16290   2.18809
 Alpha virt. eigenvalues --    2.20039   2.20507   2.20757   2.21761   2.21932
 Alpha virt. eigenvalues --    2.23376   2.24028   2.25863   2.27430   2.27448
 Alpha virt. eigenvalues --    2.27929   2.29887   2.29912   2.30777   2.32415
 Alpha virt. eigenvalues --    2.33657   2.33834   2.36979   2.37038   2.37891
 Alpha virt. eigenvalues --    2.38977   2.40275   2.41805   2.42970   2.43502
 Alpha virt. eigenvalues --    2.43766   2.44518   2.47761   2.50161   2.51354
 Alpha virt. eigenvalues --    2.51753   2.51799   2.51958   2.55563   2.55879
 Alpha virt. eigenvalues --    2.60362   2.60879   2.61541   2.66619   2.69752
 Alpha virt. eigenvalues --    2.70130   2.74277   2.75311   2.78037   2.78563
 Alpha virt. eigenvalues --    2.81560   2.84057   2.84488   2.92112   2.92382
 Alpha virt. eigenvalues --    2.93004   2.96287   2.96466   3.01011   3.01794
 Alpha virt. eigenvalues --    3.02410   3.06101   3.07215   3.08599   3.14235
 Alpha virt. eigenvalues --    3.16572   3.24729   3.25890   3.27137   3.29221
 Alpha virt. eigenvalues --    3.46446   3.47861   3.61356   3.73503   3.74814
 Alpha virt. eigenvalues --    3.78652   3.85342   3.88543   4.51539   4.72722
          Condensed to atoms (all electrons):
 Mulliken charges:
               1
     1  C    0.414295
     2  C    0.414295
     3  C    0.223986
     4  C    0.223986
     5  C    1.085147
     6  C    1.085147
     7  C    0.092836
     8  C    0.092836
     9  C   -0.435529
    10  C   -0.435529
    11  C    0.496433
    12  C    0.496433
    13  H   -0.662930
    14  H   -0.662930
    15  H   -0.652716
    16  H   -0.652716
    17  H   -0.608865
    18  H   -0.608865
    19  H   -0.205296
    20  H    0.124206
    21  H    0.128434
    22  H    0.128434
    23  H    0.124206
    24  H   -0.205296
 Sum of Mulliken charges =  -0.00000
 Mulliken charges with hydrogens summed into heavy atoms:
               1
     1  C   -0.248635
     2  C   -0.248635
     3  C   -0.428730
     4  C   -0.428730
     5  C    0.476281
     6  C    0.476281
     7  C    0.092836
     8  C    0.092836
     9  C   -0.435529
    10  C   -0.435529
    11  C    0.543777
    12  C    0.543777
 Electronic spatial extent (au):  <R**2>=           2362.2317
 Charge=             -0.0000 electrons
 Dipole moment (field-independent basis, Debye):
    X=              0.0000    Y=              0.0000    Z=             -0.0000  Tot=              0.0000
 NROrb=    382 NOA=    42 NOB=    42 NVA=   340 NVB=   340

 **** Warning!!: The largest alpha MO coefficient is  0.11260404D+03

    12 initial guesses have been made.
 Iteration     1 Dimension    12 NMult     0 NNew     12
 New state      1 was old state      2
 Iteration     2 Dimension    24 NMult    12 NNew     12
 Iteration     3 Dimension    27 NMult    24 NNew      3
 Iteration     4 Dimension    30 NMult    27 NNew      3
 Iteration     5 Dimension    33 NMult    30 NNew      3
 Iteration     6 Dimension    36 NMult    33 NNew      3
 ***********************************************************************
 Stability analysis using <AA,BB:AA,BB> singles matrix:
 ***********************************************************************
 Ground to excited state transition densities written to RWF  633

 Eigenvectors of the stability matrix:
 
 Excited state symmetry could not be determined.
 Eigenvector   1:      Singlet-?Sym  Eigenvalue= 0.1396783  <S**2>=0.000
      41 -> 53         0.36265
      41 -> 56        -0.15091
      41 -> 58         0.20182
      41 -> 59         0.11101
      42 -> 53         0.33476
      42 -> 56         0.13581
      42 -> 58        -0.18849
      42 -> 59        -0.24331
 The wavefunction is stable under the perturbations considered.
 The wavefunction is already stable.

 **********************************************************************

            Population analysis using the SCF Density.

 **********************************************************************

 Alpha  occ. eigenvalues --  -11.24377 -11.24377 -11.24180 -11.24079 -11.23818
 Alpha  occ. eigenvalues --  -11.23814 -11.23490 -11.23489 -11.23226 -11.23226
 Alpha  occ. eigenvalues --  -11.22967 -11.22967  -1.17868  -1.12278  -1.05311
 Alpha  occ. eigenvalues --   -1.04722  -0.98798  -0.96658  -0.90758  -0.84900
 Alpha  occ. eigenvalues --   -0.81152  -0.79882  -0.69602  -0.68759  -0.66196
 Alpha  occ. eigenvalues --   -0.61914  -0.59874  -0.59754  -0.57776  -0.57741
 Alpha  occ. eigenvalues --   -0.57311  -0.55067  -0.53705  -0.53061  -0.51635
 Alpha  occ. eigenvalues --   -0.50541  -0.48000  -0.46883  -0.42987  -0.37940
 Alpha  occ. eigenvalues --   -0.30714  -0.28239
 Alpha virt. eigenvalues --    0.03567   0.03581   0.03868   0.04823   0.05249
 Alpha virt. eigenvalues --    0.05823   0.06099   0.06567   0.07085   0.08134
 Alpha virt. eigenvalues --    0.08569   0.08938   0.09738   0.10829   0.10840
 Alpha virt. eigenvalues --    0.10865   0.11998   0.12434   0.12989   0.14019
 Alpha virt. eigenvalues --    0.14506   0.14552   0.14698   0.14960   0.15810
 Alpha virt. eigenvalues --    0.16421   0.16584   0.16711   0.16791   0.17339
 Alpha virt. eigenvalues --    0.17609   0.17885   0.17982   0.18469   0.19065
 Alpha virt. eigenvalues --    0.19690   0.20322   0.21427   0.21591   0.21813
 Alpha virt. eigenvalues --    0.22348   0.22627   0.23058   0.23909   0.24679
 Alpha virt. eigenvalues --    0.25271   0.25303   0.26608   0.27579   0.27774
 Alpha virt. eigenvalues --    0.27851   0.28542   0.28691   0.29809   0.31482
 Alpha virt. eigenvalues --    0.31633   0.32697   0.32934   0.33029   0.33475
 Alpha virt. eigenvalues --    0.33979   0.34563   0.34622   0.35169   0.35513
 Alpha virt. eigenvalues --    0.36800   0.36959   0.37104   0.37696   0.39033
 Alpha virt. eigenvalues --    0.39696   0.40353   0.40619   0.41010   0.41629
 Alpha virt. eigenvalues --    0.42934   0.43239   0.43542   0.44371   0.44835
 Alpha virt. eigenvalues --    0.44915   0.46108   0.46423   0.46815   0.46961
 Alpha virt. eigenvalues --    0.48064   0.48252   0.49071   0.49474   0.49928
 Alpha virt. eigenvalues --    0.50760   0.51507   0.52430   0.52958   0.53778
 Alpha virt. eigenvalues --    0.54236   0.55017   0.55053   0.55374   0.55428
 Alpha virt. eigenvalues --    0.56886   0.57097   0.58239   0.58263   0.59418
 Alpha virt. eigenvalues --    0.61055   0.61985   0.62077   0.62431   0.63256
 Alpha virt. eigenvalues --    0.63938   0.64640   0.66026   0.66327   0.66495
 Alpha virt. eigenvalues --    0.66520   0.67322   0.68055   0.68458   0.68536
 Alpha virt. eigenvalues --    0.68625   0.69254   0.69565   0.70505   0.70567
 Alpha virt. eigenvalues --    0.70953   0.71528   0.71992   0.73020   0.73253
 Alpha virt. eigenvalues --    0.74696   0.74749   0.75583   0.76124   0.77260
 Alpha virt. eigenvalues --    0.77330   0.78271   0.78738   0.78879   0.79151
 Alpha virt. eigenvalues --    0.79312   0.79861   0.79889   0.81572   0.82091
 Alpha virt. eigenvalues --    0.82429   0.82700   0.83886   0.84809   0.85820
 Alpha virt. eigenvalues --    0.86215   0.89612   0.91062   0.91301   0.92611
 Alpha virt. eigenvalues --    0.92744   0.92946   0.93084   0.93653   0.94348
 Alpha virt. eigenvalues --    0.95433   0.95657   0.95778   0.96642   0.98525
 Alpha virt. eigenvalues --    0.99863   1.00414   1.01117   1.01181   1.01845
 Alpha virt. eigenvalues --    1.03204   1.05550   1.06300   1.07988   1.08265
 Alpha virt. eigenvalues --    1.08346   1.08593   1.10937   1.12117   1.12194
 Alpha virt. eigenvalues --    1.13435   1.13886   1.14689   1.16067   1.16733
 Alpha virt. eigenvalues --    1.17453   1.18317   1.18569   1.19666   1.23673
 Alpha virt. eigenvalues --    1.23867   1.24221   1.26442   1.30111   1.31232
 Alpha virt. eigenvalues --    1.32974   1.33299   1.34759   1.37315   1.37864
 Alpha virt. eigenvalues --    1.38297   1.47403   1.49595   1.49643   1.50757
 Alpha virt. eigenvalues --    1.50993   1.54981   1.55373   1.55395   1.55661
 Alpha virt. eigenvalues --    1.58053   1.58231   1.59660   1.60419   1.61366
 Alpha virt. eigenvalues --    1.63901   1.64760   1.65330   1.66412   1.67222
 Alpha virt. eigenvalues --    1.69684   1.70139   1.70621   1.70870   1.72132
 Alpha virt. eigenvalues --    1.73610   1.74068   1.74551   1.76354   1.77415
 Alpha virt. eigenvalues --    1.78911   1.79826   1.80050   1.81716   1.82475
 Alpha virt. eigenvalues --    1.82880   1.84641   1.84664   1.85298   1.86626
 Alpha virt. eigenvalues --    1.88665   1.89084   1.91346   1.91557   1.91681
 Alpha virt. eigenvalues --    1.91769   1.92867   1.94107   1.95218   1.98273
 Alpha virt. eigenvalues --    2.00264   2.00746   2.02092   2.02622   2.04748
 Alpha virt. eigenvalues --    2.04958   2.07050   2.07581   2.10007   2.10672
 Alpha virt. eigenvalues --    2.11705   2.13221   2.15522   2.16290   2.18809
 Alpha virt. eigenvalues --    2.20039   2.20507   2.20757   2.21761   2.21932
 Alpha virt. eigenvalues --    2.23376   2.24028   2.25863   2.27430   2.27448
 Alpha virt. eigenvalues --    2.27929   2.29887   2.29912   2.30777   2.32415
 Alpha virt. eigenvalues --    2.33657   2.33834   2.36979   2.37038   2.37891
 Alpha virt. eigenvalues --    2.38977   2.40275   2.41805   2.42970   2.43502
 Alpha virt. eigenvalues --    2.43766   2.44518   2.47761   2.50161   2.51354
 Alpha virt. eigenvalues --    2.51753   2.51799   2.51958   2.55563   2.55879
 Alpha virt. eigenvalues --    2.60362   2.60879   2.61541   2.66619   2.69752
 Alpha virt. eigenvalues --    2.70130   2.74277   2.75311   2.78037   2.78563
 Alpha virt. eigenvalues --    2.81560   2.84057   2.84488   2.92112   2.92382
 Alpha virt. eigenvalues --    2.93004   2.96287   2.96466   3.01011   3.01794
 Alpha virt. eigenvalues --    3.02410   3.06101   3.07215   3.08599   3.14235
 Alpha virt. eigenvalues --    3.16572   3.24729   3.25890   3.27137   3.29221
 Alpha virt. eigenvalues --    3.46446   3.47861   3.61356   3.73503   3.74814
 Alpha virt. eigenvalues --    3.78652   3.85342   3.88543   4.51539   4.72722
          Condensed to atoms (all electrons):
 Mulliken charges:
               1
     1  C    0.414295
     2  C    0.414295
     3  C    0.223986
     4  C    0.223986
     5  C    1.085147
     6  C    1.085147
     7  C    0.092836
     8  C    0.092836
     9  C   -0.435529
    10  C   -0.435529
    11  C    0.496433
    12  C    0.496433
    13  H   -0.662930
    14  H   -0.662930
    15  H   -0.652716
    16  H   -0.652716
    17  H   -0.608865
    18  H   -0.608865
    19  H   -0.205296
    20  H    0.124206
    21  H    0.128434
    22  H    0.128434
    23  H    0.124206
    24  H   -0.205296
 Sum of Mulliken charges =  -0.00000
 Mulliken charges with hydrogens summed into heavy atoms:
               1
     1  C   -0.248635
     2  C   -0.248635
     3  C   -0.428730
     4  C   -0.428730
     5  C    0.476281
     6  C    0.476281
     7  C    0.092836
     8  C    0.092836
     9  C   -0.435529
    10  C   -0.435529
    11  C    0.543777
    12  C    0.543777
 Electronic spatial extent (au):  <R**2>=           2362.2317
 Charge=             -0.0000 electrons
 Dipole moment (field-independent basis, Debye):
    X=              0.0000    Y=              0.0000    Z=             -0.0000  Tot=              0.0000
 Unable to Open any file for archive entry.
 1\1\GINC-SE232\Stability\RHF\Aug-CC-pVDZ\C12H12\OHZDE\05-Apr-2025\0\\#
 t hf aug-cc-pvdz symm=none int=(grid=ultrafine) guess=(read,tcheck) st
 able=(opt,rrhf)\\title\\0,1\C,0,-0.072264,1.827345,-0.349034\C,0,0.072
 264,-1.827345,0.349034\C,0,-1.374617,2.10896,-0.034074\C,0,1.374617,-2
 .10896,0.034074\C,0,1.779072,0.182743,-0.544682\C,0,-1.779072,-0.18274
 3,0.544682\C,0,0.43857,0.512106,-0.228855\C,0,-0.43857,-0.512106,0.228
 855\C,0,-2.259063,1.098577,0.422509\C,0,2.259063,-1.098577,-0.422509\C
 ,0,-3.684425,1.44726,0.756865\C,0,3.684425,-1.44726,-0.756865\H,0,0.58
 5539,2.61456,-0.696015\H,0,-0.585539,-2.61456,0.696015\H,0,-1.742638,3
 .122803,-0.134031\H,0,1.742638,-3.122803,0.134031\H,0,2.435555,0.97229
 3,-0.891642\H,0,-2.435555,-0.972293,0.891642\H,0,-4.237087,0.574737,1.
 10251\H,0,-3.731712,2.207391,1.539862\H,0,-4.206005,1.852269,-0.113324
 \H,0,4.206005,-1.852269,0.113324\H,0,3.731712,-2.207391,-1.539862\H,0,
 4.237087,-0.574737,-1.10251\\Version=ES64L-G16RevC.01\HF=-461.4765569\
 RMSD=4.957e-09\Dipole=0.,0.,0.\Quadrupole=3.5021598,2.4464192,-5.94857
 9,-1.3017943,-2.7377363,-1.5506612\PG=Unknown\\@
 The archive entry for this job was punched.


 KNOWLEDGE IS EXPERIMENT'S DAUGHTER.
 -- LEONARDO DA VINCI, IN "PENSIERI" CA. 1492
 Job cpu time:       0 days  0 hours 59 minutes 32.1 seconds.
 Elapsed time:       0 days  0 hours  4 minutes 13.0 seconds.
 File lengths (MBytes):  RWF=    580 Int=      0 D2E=      0 Chk=     19 Scr=      1
 Normal termination of Gaussian 16 at Sat Apr  5 22:14:51 2025.
 Initial command:
 /arc/software/Gaussian/g16.c01/l1.exe "/tmp/slurm/4814275/Gau-918054.inp" -scrdir="/tmp/slurm/4814275/"
 Entering Link 1 = /arc/software/Gaussian/g16.c01/l1.exe PID=    918957.
  
 Copyright (c) 1988-2019, Gaussian, Inc.  All Rights Reserved.
  
 This is part of the Gaussian(R) 16 program.  It is based on
 the Gaussian(R) 09 system (copyright 2009, Gaussian, Inc.),
 the Gaussian(R) 03 system (copyright 2003, Gaussian, Inc.),
 the Gaussian(R) 98 system (copyright 1998, Gaussian, Inc.),
 the Gaussian(R) 94 system (copyright 1995, Gaussian, Inc.),
 the Gaussian 92(TM) system (copyright 1992, Gaussian, Inc.),
 the Gaussian 90(TM) system (copyright 1990, Gaussian, Inc.),
 the Gaussian 88(TM) system (copyright 1988, Gaussian, Inc.),
 the Gaussian 86(TM) system (copyright 1986, Carnegie Mellon
 University), and the Gaussian 82(TM) system (copyright 1983,
 Carnegie Mellon University). Gaussian is a federally registered
 trademark of Gaussian, Inc.
  
 This software contains proprietary and confidential information,
 including trade secrets, belonging to Gaussian, Inc.
  
 This software is provided under written license and may be
 used, copied, transmitted, or stored only in accord with that
 written license.
  
 The following legend is applicable only to US Government
 contracts under FAR:
  
                    RESTRICTED RIGHTS LEGEND
  
 Use, reproduction and disclosure by the US Government is
 subject to restrictions as set forth in subparagraphs (a)
 and (c) of the Commercial Computer Software - Restricted
 Rights clause in FAR 52.227-19.
  
 Gaussian, Inc.
 340 Quinnipiac St., Bldg. 40, Wallingford CT 06492
  
  
 ---------------------------------------------------------------
 Warning -- This program may not be used in any manner that
 competes with the business of Gaussian, Inc. or will provide
 assistance to any competitor of Gaussian, Inc.  The licensee
 of this program is prohibited from giving any competitor of
 Gaussian, Inc. access to this program.  By using this program,
 the user acknowledges that Gaussian, Inc. is engaged in the
 business of creating and licensing software in the field of
 computational chemistry and represents and warrants to the
 licensee that it is not a competitor of Gaussian, Inc. and that
 it will not use this program in any manner prohibited above.
 ---------------------------------------------------------------
  

 Cite this work as:
 Gaussian 16, Revision C.01,
 M. J. Frisch, G. W. Trucks, H. B. Schlegel, G. E. Scuseria, 
 M. A. Robb, J. R. Cheeseman, G. Scalmani, V. Barone, 
 G. A. Petersson, H. Nakatsuji, X. Li, M. Caricato, A. V. Marenich, 
 J. Bloino, B. G. Janesko, R. Gomperts, B. Mennucci, H. P. Hratchian, 
 J. V. Ortiz, A. F. Izmaylov, J. L. Sonnenberg, D. Williams-Young, 
 F. Ding, F. Lipparini, F. Egidi, J. Goings, B. Peng, A. Petrone, 
 T. Henderson, D. Ranasinghe, V. G. Zakrzewski, J. Gao, N. Rega, 
 G. Zheng, W. Liang, M. Hada, M. Ehara, K. Toyota, R. Fukuda, 
 J. Hasegawa, M. Ishida, T. Nakajima, Y. Honda, O. Kitao, H. Nakai, 
 T. Vreven, K. Throssell, J. A. Montgomery, Jr., J. E. Peralta, 
 F. Ogliaro, M. J. Bearpark, J. J. Heyd, E. N. Brothers, K. N. Kudin, 
 V. N. Staroverov, T. A. Keith, R. Kobayashi, J. Normand, 
 K. Raghavachari, A. P. Rendell, J. C. Burant, S. S. Iyengar, 
 J. Tomasi, M. Cossi, J. M. Millam, M. Klene, C. Adamo, R. Cammi, 
 J. W. Ochterski, R. L. Martin, K. Morokuma, O. Farkas, 
 J. B. Foresman, and D. J. Fox, Gaussian, Inc., Wallingford CT, 2019.
 
 ******************************************
 Gaussian 16:  ES64L-G16RevC.01  3-Jul-2019
                 5-Apr-2025 
 ******************************************
 %nprocs=16
 Will use up to   16 processors via shared memory.
 %mem=30GB
 %chk=1-6-dimethylnaphthalene.chk
 ----------------------------------------------------------------------
 #t hf aug-cc-pvdz iop(5/13=1,5/36=2,99/5=2) pseudo=read geom=check gue
 ss=(read,tcheck) scf=(maxcycle=1)
 ----------------------------------------------------------------------
 -----
 title
 -----
 Structure from the checkpoint file:  "1-6-dimethylnaphthalene.chk"
 Charge =  0 Multiplicity = 1
 Z-Matrix found in chk file.
 C,0,-0.072264,1.827345,-0.349034
 C,0,0.072264,-1.827345,0.349034
 C,0,-1.374617,2.10896,-0.034074
 C,0,1.374617,-2.10896,0.034074
 C,0,1.779072,0.182743,-0.544682
 C,0,-1.779072,-0.182743,0.544682
 C,0,0.43857,0.512106,-0.228855
 C,0,-0.43857,-0.512106,0.228855
 C,0,-2.259063,1.098577,0.422509
 C,0,2.259063,-1.098577,-0.422509
 C,0,-3.684425,1.44726,0.756865
 C,0,3.684425,-1.44726,-0.756865
 H,0,0.585539,2.61456,-0.696015
 H,0,-0.585539,-2.61456,0.696015
 H,0,-1.742638,3.122803,-0.134031
 H,0,1.742638,-3.122803,0.134031
 H,0,2.435555,0.972293,-0.891642
 H,0,-2.435555,-0.972293,0.891642
 H,0,-4.237087,0.574737,1.10251
 H,0,-3.731712,2.207391,1.539862
 H,0,-4.206005,1.852269,-0.113324
 H,0,4.206005,-1.852269,0.113324
 H,0,3.731712,-2.207391,-1.539862
 H,0,4.237087,-0.574737,-1.10251
 Recover connectivity data from disk.
                    Distance matrix (angstroms):
                    1          2          3          4          5
     1  C    0.000000
     2  C    3.723566   0.000000
     3  C    1.369171   4.211263   0.000000
     4  C    4.211263   1.369171   5.035254   0.000000
     5  C    2.484037   2.784309   3.730521   2.398009   0.000000
     6  C    2.784309   2.484037   2.398009   3.730521   3.739075
     7  C    1.416068   2.437451   2.423949   2.795586   1.416041
     8  C    2.437451   1.416068   2.795586   2.423949   2.449308
     9  C    2.430735   3.741858   1.418304   4.862387   4.252146
    10  C    3.741858   2.430735   4.862387   1.418304   1.373717
    11  C    3.796733   5.000208   2.529554   6.225997   5.756981
    12  C    5.000208   3.796733   6.225997   2.529554   2.516406
    13  H    1.082963   4.591960   2.129791   4.844308   2.713145
    14  H    4.591960   1.082963   4.844308   2.129791   3.867249
    15  H    2.124756   5.294449   1.083194   6.092363   4.605977
    16  H    5.294449   2.124756   6.092363   1.083194   3.374702
    17  H    2.704569   3.868125   4.067536   3.387722   1.083854
    18  H    3.868125   2.704569   3.387722   4.067536   4.600023
    19  H    4.584949   4.990815   3.440843   6.311498   6.249886
    20  H    4.135689   5.671631   2.835994   6.853676   6.230029
    21  H    4.140531   5.661883   2.844104   6.845174   6.228526
    22  H    5.661883   4.140531   6.845174   2.844104   3.234849
    23  H    5.671631   4.135689   6.853676   2.835994   3.242827
    24  H    4.990815   4.584949   6.311498   3.440843   2.631879
                    6          7          8          9         10
     6  C    0.000000
     7  C    2.449308   0.000000
     8  C    1.416041   1.424038   0.000000
     9  C    1.373717   2.836450   2.438441   0.000000
    10  C    4.252146   2.438441   2.836450   5.094605   0.000000
    11  C    2.516406   4.341111   3.827987   1.505002   6.572462
    12  C    5.756981   3.827987   4.341111   6.572462   1.505002
    13  H    3.867249   2.158738   3.417634   3.411900   4.082018
    14  H    2.713145   3.417634   2.158738   4.082018   3.411900
    15  H    3.374702   3.403292   3.878768   2.161926   5.823820
    16  H    4.605977   3.878768   3.403292   5.823820   2.161926
    17  H    4.600023   2.153836   3.423383   4.876718   2.130666
    18  H    1.083854   3.423383   2.153836   2.130666   4.876718
    19  H    2.631879   4.861916   4.046385   2.156244   6.879362
    20  H    3.242827   4.836693   4.467571   2.155607   7.118266
    21  H    3.234849   4.835438   4.461045   2.155401   7.113381
    22  H    6.228526   4.461045   4.835438   7.113381   2.155401
    23  H    6.230029   4.467571   4.836693   7.118266   2.155607
    24  H    6.249886   4.046385   4.861916   6.879362   2.156244
                   11         12         13         14         15
    11  C    0.000000
    12  C    8.060371   0.000000
    13  H    4.658974   5.109323   0.000000
    14  H    5.109323   4.658974   5.536503   0.000000
    15  H    2.715083   7.122248   2.448376   5.911446   0.000000
    16  H    7.122248   2.715083   5.911446   2.448376   7.157276
    17  H    6.355889   2.726184   2.481506   4.951078   4.759828
    18  H    2.726184   6.355889   4.951078   2.481506   4.278078
    19  H    1.089129   8.384277   5.536541   4.865250   3.774116
    20  H    1.092300   8.580823   4.878892   5.819080   2.756141
    21  H    1.092386   8.576708   4.886667   5.806493   2.771798
    22  H    8.576708   1.092386   5.806493   4.886667   7.758794
    23  H    8.580823   1.092300   5.819080   4.878892   7.768902
    24  H    8.384277   1.089129   4.865250   5.536541   7.096962
                   16         17         18         19         20
    16  H    0.000000
    17  H    4.278078   0.000000
    18  H    4.759828   5.539786   0.000000
    19  H    7.096962   6.975589   2.383964   0.000000
    20  H    7.768902   6.743357   3.494367   1.764154   0.000000
    21  H    7.758794   6.744661   3.481752   1.763890   1.756158
    22  H    2.771798   3.481752   6.744661   8.840512   9.029020
    23  H    2.756141   3.494367   6.743357   8.844440   9.202049
    24  H    3.774116   2.383964   6.975589   8.831479   8.844440
                   21         22         23         24
    21  H    0.000000
    22  H    9.194394   0.000000
    23  H    9.029020   1.756158   0.000000
    24  H    8.840512   1.763890   1.764154   0.000000
 Framework group  CI[X(C12H12)]
 Deg. of freedom    33
                         Standard orientation:                         
 ---------------------------------------------------------------------
 Center     Atomic      Atomic             Coordinates (Angstroms)
 Number     Number       Type             X           Y           Z
 ---------------------------------------------------------------------
      1          6           0       -0.072264    1.827345   -0.349034
      2          6           0        0.072264   -1.827345    0.349034
      3          6           0       -1.374617    2.108960   -0.034074
      4          6           0        1.374617   -2.108960    0.034074
      5          6           0        1.779072    0.182743   -0.544682
      6          6           0       -1.779072   -0.182743    0.544682
      7          6           0        0.438570    0.512106   -0.228855
      8          6           0       -0.438570   -0.512106    0.228855
      9          6           0       -2.259063    1.098577    0.422509
     10          6           0        2.259063   -1.098577   -0.422509
     11          6           0       -3.684425    1.447260    0.756865
     12          6           0        3.684425   -1.447260   -0.756865
     13          1           0        0.585539    2.614560   -0.696015
     14          1           0       -0.585539   -2.614560    0.696015
     15          1           0       -1.742638    3.122803   -0.134031
     16          1           0        1.742638   -3.122803    0.134031
     17          1           0        2.435555    0.972293   -0.891642
     18          1           0       -2.435555   -0.972293    0.891642
     19          1           0       -4.237087    0.574737    1.102510
     20          1           0       -3.731712    2.207391    1.539862
     21          1           0       -4.206005    1.852269   -0.113324
     22          1           0        4.206005   -1.852269    0.113324
     23          1           0        3.731712   -2.207391   -1.539862
     24          1           0        4.237087   -0.574737   -1.102510
 ---------------------------------------------------------------------
 Rotational constants (GHZ):           2.6961116           0.5783236           0.4789869
 ======================================================================================================
                                       Pseudopotential Parameters
 ======================================================================================================
  Center     Atomic      Valence      Angular      Power
  Number     Number     Electrons     Momentum     of R      Exponent        Coefficient   SO-Coeffient
 ======================================================================================================
    1          6            6
                                      G and up 
                                                     0        0.0000010       -0.00011185    0.00000000
                                                     2        0.1200000       -0.02301220    0.00000000
                                                     2        0.1400000        0.13317600    0.00000000
                                                     2        0.1600000       -0.19690668    0.00000000
                                                     2        0.2200000        0.23163694    0.00000000
                                                     2        0.3000000       -0.36920489    0.00000000
                                                     2        0.4000000        0.36389709    0.00000000
                                                     2        0.7000000       -0.38862160    0.00000000
                                                     2        1.3000000        0.80803421    0.00000000
                                      S - G
                                                     0        0.0000010        0.00312304    0.00000000
                                                     2        0.1200000       -0.00632892    0.00000000
                                                     2        0.2200000       -0.03780897    0.00000000
                                                     2        0.4000000        0.26269560    0.00000000
                                                     2        0.9000000       -0.28209514    0.00000000
                                                     2        1.5000000       -0.72686737    0.00000000
                                      P - G
                                                     0        0.0000010       -0.01465594    0.00000000
                                                     2        0.1200000        0.07908409    0.00000000
                                                     2        0.1800000       -0.30615861    0.00000000
                                                     2        0.2600000        0.41506950    0.00000000
                                                     2        0.5000000       -0.36252345    0.00000000
                                                     2        0.9000000        0.15124193    0.00000000
                                                     2        3.0000000       -0.80425677    0.00000000
                                      D - G
                                                     0        0.0000010        0.01149631    0.00000000
                                                     2        0.1200000       -0.04713561    0.00000000
                                                     2        0.1600000        0.10865096    0.00000000
                                                     2        0.2800000       -0.15816701    0.00000000
                                                     2        0.7000000        0.65478804    0.00000000
                                                     2        1.3000000       -1.73816624    0.00000000
                                      F - G
                                                     0        0.0000010        0.00481868    0.00000000
                                                     2        0.1200000       -0.04746842    0.00000000
                                                     2        0.1600000        0.09327889    0.00000000
                                                     2        0.4000000       -0.19693326    0.00000000
                                                     2        0.9000000        0.34938253    0.00000000
    2          6            6
                                      G and up 
                                                     0        0.0000010       -0.00011185    0.00000000
                                                     2        0.1200000       -0.02301220    0.00000000
                                                     2        0.1400000        0.13317600    0.00000000
                                                     2        0.1600000       -0.19690668    0.00000000
                                                     2        0.2200000        0.23163694    0.00000000
                                                     2        0.3000000       -0.36920489    0.00000000
                                                     2        0.4000000        0.36389709    0.00000000
                                                     2        0.7000000       -0.38862160    0.00000000
                                                     2        1.3000000        0.80803421    0.00000000
                                      S - G
                                                     0        0.0000010        0.00312304    0.00000000
                                                     2        0.1200000       -0.00632892    0.00000000
                                                     2        0.2200000       -0.03780897    0.00000000
                                                     2        0.4000000        0.26269560    0.00000000
                                                     2        0.9000000       -0.28209514    0.00000000
                                                     2        1.5000000       -0.72686737    0.00000000
                                      P - G
                                                     0        0.0000010       -0.01465594    0.00000000
                                                     2        0.1200000        0.07908409    0.00000000
                                                     2        0.1800000       -0.30615861    0.00000000
                                                     2        0.2600000        0.41506950    0.00000000
                                                     2        0.5000000       -0.36252345    0.00000000
                                                     2        0.9000000        0.15124193    0.00000000
                                                     2        3.0000000       -0.80425677    0.00000000
                                      D - G
                                                     0        0.0000010        0.01149631    0.00000000
                                                     2        0.1200000       -0.04713561    0.00000000
                                                     2        0.1600000        0.10865096    0.00000000
                                                     2        0.2800000       -0.15816701    0.00000000
                                                     2        0.7000000        0.65478804    0.00000000
                                                     2        1.3000000       -1.73816624    0.00000000
                                      F - G
                                                     0        0.0000010        0.00481868    0.00000000
                                                     2        0.1200000       -0.04746842    0.00000000
                                                     2        0.1600000        0.09327889    0.00000000
                                                     2        0.4000000       -0.19693326    0.00000000
                                                     2        0.9000000        0.34938253    0.00000000
    3          6            6
                                      G and up 
                                                     0        0.0000010       -0.00011185    0.00000000
                                                     2        0.1200000       -0.02301220    0.00000000
                                                     2        0.1400000        0.13317600    0.00000000
                                                     2        0.1600000       -0.19690668    0.00000000
                                                     2        0.2200000        0.23163694    0.00000000
                                                     2        0.3000000       -0.36920489    0.00000000
                                                     2        0.4000000        0.36389709    0.00000000
                                                     2        0.7000000       -0.38862160    0.00000000
                                                     2        1.3000000        0.80803421    0.00000000
                                      S - G
                                                     0        0.0000010        0.00312304    0.00000000
                                                     2        0.1200000       -0.00632892    0.00000000
                                                     2        0.2200000       -0.03780897    0.00000000
                                                     2        0.4000000        0.26269560    0.00000000
                                                     2        0.9000000       -0.28209514    0.00000000
                                                     2        1.5000000       -0.72686737    0.00000000
                                      P - G
                                                     0        0.0000010       -0.01465594    0.00000000
                                                     2        0.1200000        0.07908409    0.00000000
                                                     2        0.1800000       -0.30615861    0.00000000
                                                     2        0.2600000        0.41506950    0.00000000
                                                     2        0.5000000       -0.36252345    0.00000000
                                                     2        0.9000000        0.15124193    0.00000000
                                                     2        3.0000000       -0.80425677    0.00000000
                                      D - G
                                                     0        0.0000010        0.01149631    0.00000000
                                                     2        0.1200000       -0.04713561    0.00000000
                                                     2        0.1600000        0.10865096    0.00000000
                                                     2        0.2800000       -0.15816701    0.00000000
                                                     2        0.7000000        0.65478804    0.00000000
                                                     2        1.3000000       -1.73816624    0.00000000
                                      F - G
                                                     0        0.0000010        0.00481868    0.00000000
                                                     2        0.1200000       -0.04746842    0.00000000
                                                     2        0.1600000        0.09327889    0.00000000
                                                     2        0.4000000       -0.19693326    0.00000000
                                                     2        0.9000000        0.34938253    0.00000000
    4          6            6
                                      G and up 
                                                     0        0.0000010       -0.00011185    0.00000000
                                                     2        0.1200000       -0.02301220    0.00000000
                                                     2        0.1400000        0.13317600    0.00000000
                                                     2        0.1600000       -0.19690668    0.00000000
                                                     2        0.2200000        0.23163694    0.00000000
                                                     2        0.3000000       -0.36920489    0.00000000
                                                     2        0.4000000        0.36389709    0.00000000
                                                     2        0.7000000       -0.38862160    0.00000000
                                                     2        1.3000000        0.80803421    0.00000000
                                      S - G
                                                     0        0.0000010        0.00312304    0.00000000
                                                     2        0.1200000       -0.00632892    0.00000000
                                                     2        0.2200000       -0.03780897    0.00000000
                                                     2        0.4000000        0.26269560    0.00000000
                                                     2        0.9000000       -0.28209514    0.00000000
                                                     2        1.5000000       -0.72686737    0.00000000
                                      P - G
                                                     0        0.0000010       -0.01465594    0.00000000
                                                     2        0.1200000        0.07908409    0.00000000
                                                     2        0.1800000       -0.30615861    0.00000000
                                                     2        0.2600000        0.41506950    0.00000000
                                                     2        0.5000000       -0.36252345    0.00000000
                                                     2        0.9000000        0.15124193    0.00000000
                                                     2        3.0000000       -0.80425677    0.00000000
                                      D - G
                                                     0        0.0000010        0.01149631    0.00000000
                                                     2        0.1200000       -0.04713561    0.00000000
                                                     2        0.1600000        0.10865096    0.00000000
                                                     2        0.2800000       -0.15816701    0.00000000
                                                     2        0.7000000        0.65478804    0.00000000
                                                     2        1.3000000       -1.73816624    0.00000000
                                      F - G
                                                     0        0.0000010        0.00481868    0.00000000
                                                     2        0.1200000       -0.04746842    0.00000000
                                                     2        0.1600000        0.09327889    0.00000000
                                                     2        0.4000000       -0.19693326    0.00000000
                                                     2        0.9000000        0.34938253    0.00000000
    5          6            6
                                      G and up 
                                                     0        0.0000010       -0.00011185    0.00000000
                                                     2        0.1200000       -0.02301220    0.00000000
                                                     2        0.1400000        0.13317600    0.00000000
                                                     2        0.1600000       -0.19690668    0.00000000
                                                     2        0.2200000        0.23163694    0.00000000
                                                     2        0.3000000       -0.36920489    0.00000000
                                                     2        0.4000000        0.36389709    0.00000000
                                                     2        0.7000000       -0.38862160    0.00000000
                                                     2        1.3000000        0.80803421    0.00000000
                                      S - G
                                                     0        0.0000010        0.00312304    0.00000000
                                                     2        0.1200000       -0.00632892    0.00000000
                                                     2        0.2200000       -0.03780897    0.00000000
                                                     2        0.4000000        0.26269560    0.00000000
                                                     2        0.9000000       -0.28209514    0.00000000
                                                     2        1.5000000       -0.72686737    0.00000000
                                      P - G
                                                     0        0.0000010       -0.01465594    0.00000000
                                                     2        0.1200000        0.07908409    0.00000000
                                                     2        0.1800000       -0.30615861    0.00000000
                                                     2        0.2600000        0.41506950    0.00000000
                                                     2        0.5000000       -0.36252345    0.00000000
                                                     2        0.9000000        0.15124193    0.00000000
                                                     2        3.0000000       -0.80425677    0.00000000
                                      D - G
                                                     0        0.0000010        0.01149631    0.00000000
                                                     2        0.1200000       -0.04713561    0.00000000
                                                     2        0.1600000        0.10865096    0.00000000
                                                     2        0.2800000       -0.15816701    0.00000000
                                                     2        0.7000000        0.65478804    0.00000000
                                                     2        1.3000000       -1.73816624    0.00000000
                                      F - G
                                                     0        0.0000010        0.00481868    0.00000000
                                                     2        0.1200000       -0.04746842    0.00000000
                                                     2        0.1600000        0.09327889    0.00000000
                                                     2        0.4000000       -0.19693326    0.00000000
                                                     2        0.9000000        0.34938253    0.00000000
    6          6            6
                                      G and up 
                                                     0        0.0000010       -0.00011185    0.00000000
                                                     2        0.1200000       -0.02301220    0.00000000
                                                     2        0.1400000        0.13317600    0.00000000
                                                     2        0.1600000       -0.19690668    0.00000000
                                                     2        0.2200000        0.23163694    0.00000000
                                                     2        0.3000000       -0.36920489    0.00000000
                                                     2        0.4000000        0.36389709    0.00000000
                                                     2        0.7000000       -0.38862160    0.00000000
                                                     2        1.3000000        0.80803421    0.00000000
                                      S - G
                                                     0        0.0000010        0.00312304    0.00000000
                                                     2        0.1200000       -0.00632892    0.00000000
                                                     2        0.2200000       -0.03780897    0.00000000
                                                     2        0.4000000        0.26269560    0.00000000
                                                     2        0.9000000       -0.28209514    0.00000000
                                                     2        1.5000000       -0.72686737    0.00000000
                                      P - G
                                                     0        0.0000010       -0.01465594    0.00000000
                                                     2        0.1200000        0.07908409    0.00000000
                                                     2        0.1800000       -0.30615861    0.00000000
                                                     2        0.2600000        0.41506950    0.00000000
                                                     2        0.5000000       -0.36252345    0.00000000
                                                     2        0.9000000        0.15124193    0.00000000
                                                     2        3.0000000       -0.80425677    0.00000000
                                      D - G
                                                     0        0.0000010        0.01149631    0.00000000
                                                     2        0.1200000       -0.04713561    0.00000000
                                                     2        0.1600000        0.10865096    0.00000000
                                                     2        0.2800000       -0.15816701    0.00000000
                                                     2        0.7000000        0.65478804    0.00000000
                                                     2        1.3000000       -1.73816624    0.00000000
                                      F - G
                                                     0        0.0000010        0.00481868    0.00000000
                                                     2        0.1200000       -0.04746842    0.00000000
                                                     2        0.1600000        0.09327889    0.00000000
                                                     2        0.4000000       -0.19693326    0.00000000
                                                     2        0.9000000        0.34938253    0.00000000
    7          6            6
                                      G and up 
                                                     0        0.0000010       -0.00011185    0.00000000
                                                     2        0.1200000       -0.02301220    0.00000000
                                                     2        0.1400000        0.13317600    0.00000000
                                                     2        0.1600000       -0.19690668    0.00000000
                                                     2        0.2200000        0.23163694    0.00000000
                                                     2        0.3000000       -0.36920489    0.00000000
                                                     2        0.4000000        0.36389709    0.00000000
                                                     2        0.7000000       -0.38862160    0.00000000
                                                     2        1.3000000        0.80803421    0.00000000
                                      S - G
                                                     0        0.0000010        0.00312304    0.00000000
                                                     2        0.1200000       -0.00632892    0.00000000
                                                     2        0.2200000       -0.03780897    0.00000000
                                                     2        0.4000000        0.26269560    0.00000000
                                                     2        0.9000000       -0.28209514    0.00000000
                                                     2        1.5000000       -0.72686737    0.00000000
                                      P - G
                                                     0        0.0000010       -0.01465594    0.00000000
                                                     2        0.1200000        0.07908409    0.00000000
                                                     2        0.1800000       -0.30615861    0.00000000
                                                     2        0.2600000        0.41506950    0.00000000
                                                     2        0.5000000       -0.36252345    0.00000000
                                                     2        0.9000000        0.15124193    0.00000000
                                                     2        3.0000000       -0.80425677    0.00000000
                                      D - G
                                                     0        0.0000010        0.01149631    0.00000000
                                                     2        0.1200000       -0.04713561    0.00000000
                                                     2        0.1600000        0.10865096    0.00000000
                                                     2        0.2800000       -0.15816701    0.00000000
                                                     2        0.7000000        0.65478804    0.00000000
                                                     2        1.3000000       -1.73816624    0.00000000
                                      F - G
                                                     0        0.0000010        0.00481868    0.00000000
                                                     2        0.1200000       -0.04746842    0.00000000
                                                     2        0.1600000        0.09327889    0.00000000
                                                     2        0.4000000       -0.19693326    0.00000000
                                                     2        0.9000000        0.34938253    0.00000000
    8          6            6
                                      G and up 
                                                     0        0.0000010       -0.00011185    0.00000000
                                                     2        0.1200000       -0.02301220    0.00000000
                                                     2        0.1400000        0.13317600    0.00000000
                                                     2        0.1600000       -0.19690668    0.00000000
                                                     2        0.2200000        0.23163694    0.00000000
                                                     2        0.3000000       -0.36920489    0.00000000
                                                     2        0.4000000        0.36389709    0.00000000
                                                     2        0.7000000       -0.38862160    0.00000000
                                                     2        1.3000000        0.80803421    0.00000000
                                      S - G
                                                     0        0.0000010        0.00312304    0.00000000
                                                     2        0.1200000       -0.00632892    0.00000000
                                                     2        0.2200000       -0.03780897    0.00000000
                                                     2        0.4000000        0.26269560    0.00000000
                                                     2        0.9000000       -0.28209514    0.00000000
                                                     2        1.5000000       -0.72686737    0.00000000
                                      P - G
                                                     0        0.0000010       -0.01465594    0.00000000
                                                     2        0.1200000        0.07908409    0.00000000
                                                     2        0.1800000       -0.30615861    0.00000000
                                                     2        0.2600000        0.41506950    0.00000000
                                                     2        0.5000000       -0.36252345    0.00000000
                                                     2        0.9000000        0.15124193    0.00000000
                                                     2        3.0000000       -0.80425677    0.00000000
                                      D - G
                                                     0        0.0000010        0.01149631    0.00000000
                                                     2        0.1200000       -0.04713561    0.00000000
                                                     2        0.1600000        0.10865096    0.00000000
                                                     2        0.2800000       -0.15816701    0.00000000
                                                     2        0.7000000        0.65478804    0.00000000
                                                     2        1.3000000       -1.73816624    0.00000000
                                      F - G
                                                     0        0.0000010        0.00481868    0.00000000
                                                     2        0.1200000       -0.04746842    0.00000000
                                                     2        0.1600000        0.09327889    0.00000000
                                                     2        0.4000000       -0.19693326    0.00000000
                                                     2        0.9000000        0.34938253    0.00000000
    9          6            6
                                      G and up 
                                                     0        0.0000010       -0.00011185    0.00000000
                                                     2        0.1200000       -0.02301220    0.00000000
                                                     2        0.1400000        0.13317600    0.00000000
                                                     2        0.1600000       -0.19690668    0.00000000
                                                     2        0.2200000        0.23163694    0.00000000
                                                     2        0.3000000       -0.36920489    0.00000000
                                                     2        0.4000000        0.36389709    0.00000000
                                                     2        0.7000000       -0.38862160    0.00000000
                                                     2        1.3000000        0.80803421    0.00000000
                                      S - G
                                                     0        0.0000010        0.00312304    0.00000000
                                                     2        0.1200000       -0.00632892    0.00000000
                                                     2        0.2200000       -0.03780897    0.00000000
                                                     2        0.4000000        0.26269560    0.00000000
                                                     2        0.9000000       -0.28209514    0.00000000
                                                     2        1.5000000       -0.72686737    0.00000000
                                      P - G
                                                     0        0.0000010       -0.01465594    0.00000000
                                                     2        0.1200000        0.07908409    0.00000000
                                                     2        0.1800000       -0.30615861    0.00000000
                                                     2        0.2600000        0.41506950    0.00000000
                                                     2        0.5000000       -0.36252345    0.00000000
                                                     2        0.9000000        0.15124193    0.00000000
                                                     2        3.0000000       -0.80425677    0.00000000
                                      D - G
                                                     0        0.0000010        0.01149631    0.00000000
                                                     2        0.1200000       -0.04713561    0.00000000
                                                     2        0.1600000        0.10865096    0.00000000
                                                     2        0.2800000       -0.15816701    0.00000000
                                                     2        0.7000000        0.65478804    0.00000000
                                                     2        1.3000000       -1.73816624    0.00000000
                                      F - G
                                                     0        0.0000010        0.00481868    0.00000000
                                                     2        0.1200000       -0.04746842    0.00000000
                                                     2        0.1600000        0.09327889    0.00000000
                                                     2        0.4000000       -0.19693326    0.00000000
                                                     2        0.9000000        0.34938253    0.00000000
   10          6            6
                                      G and up 
                                                     0        0.0000010       -0.00011185    0.00000000
                                                     2        0.1200000       -0.02301220    0.00000000
                                                     2        0.1400000        0.13317600    0.00000000
                                                     2        0.1600000       -0.19690668    0.00000000
                                                     2        0.2200000        0.23163694    0.00000000
                                                     2        0.3000000       -0.36920489    0.00000000
                                                     2        0.4000000        0.36389709    0.00000000
                                                     2        0.7000000       -0.38862160    0.00000000
                                                     2        1.3000000        0.80803421    0.00000000
                                      S - G
                                                     0        0.0000010        0.00312304    0.00000000
                                                     2        0.1200000       -0.00632892    0.00000000
                                                     2        0.2200000       -0.03780897    0.00000000
                                                     2        0.4000000        0.26269560    0.00000000
                                                     2        0.9000000       -0.28209514    0.00000000
                                                     2        1.5000000       -0.72686737    0.00000000
                                      P - G
                                                     0        0.0000010       -0.01465594    0.00000000
                                                     2        0.1200000        0.07908409    0.00000000
                                                     2        0.1800000       -0.30615861    0.00000000
                                                     2        0.2600000        0.41506950    0.00000000
                                                     2        0.5000000       -0.36252345    0.00000000
                                                     2        0.9000000        0.15124193    0.00000000
                                                     2        3.0000000       -0.80425677    0.00000000
                                      D - G
                                                     0        0.0000010        0.01149631    0.00000000
                                                     2        0.1200000       -0.04713561    0.00000000
                                                     2        0.1600000        0.10865096    0.00000000
                                                     2        0.2800000       -0.15816701    0.00000000
                                                     2        0.7000000        0.65478804    0.00000000
                                                     2        1.3000000       -1.73816624    0.00000000
                                      F - G
                                                     0        0.0000010        0.00481868    0.00000000
                                                     2        0.1200000       -0.04746842    0.00000000
                                                     2        0.1600000        0.09327889    0.00000000
                                                     2        0.4000000       -0.19693326    0.00000000
                                                     2        0.9000000        0.34938253    0.00000000
   11          6            6
                                      G and up 
                                                     0        0.0000010       -0.00011185    0.00000000
                                                     2        0.1200000       -0.02301220    0.00000000
                                                     2        0.1400000        0.13317600    0.00000000
                                                     2        0.1600000       -0.19690668    0.00000000
                                                     2        0.2200000        0.23163694    0.00000000
                                                     2        0.3000000       -0.36920489    0.00000000
                                                     2        0.4000000        0.36389709    0.00000000
                                                     2        0.7000000       -0.38862160    0.00000000
                                                     2        1.3000000        0.80803421    0.00000000
                                      S - G
                                                     0        0.0000010        0.00312304    0.00000000
                                                     2        0.1200000       -0.00632892    0.00000000
                                                     2        0.2200000       -0.03780897    0.00000000
                                                     2        0.4000000        0.26269560    0.00000000
                                                     2        0.9000000       -0.28209514    0.00000000
                                                     2        1.5000000       -0.72686737    0.00000000
                                      P - G
                                                     0        0.0000010       -0.01465594    0.00000000
[...]
                                                     2        3.0000000        1.46283806    0.00000000
                                      P - F
                                                     0        0.0000010        0.00612970    0.00000000
                                                     2        0.1200000        0.02254406    0.00000000
                                                     2        0.1800000       -0.13874529    0.00000000
                                                     2        0.3000000        0.38299049    0.00000000
                                                     2        0.5000000       -0.57923512    0.00000000
                                                     2        1.0000000        0.63021625    0.00000000
                                                     2        2.0000000       -0.79201034    0.00000000
                                      D - F
                                                     0        0.0000010       -0.00296226    0.00000000
                                                     2        0.1200000       -0.00547344    0.00000000
                                                     2        0.1400000        0.01837884    0.00000000
                                                     2        0.2400000       -0.05565704    0.00000000
                                                     2        0.4000000        0.15376597    0.00000000
                                                     2        0.8000000       -0.32464795    0.00000000
   24          1            1
                                      F and up 
                                                     0        0.0000010       -0.00000699    0.00000000
                                                     2        0.1200000        0.00123686    0.00000000
                                                     2        0.1800000       -0.00752022    0.00000000
                                                     2        0.2600000        0.02503380    0.00000000
                                                     2        0.4000000       -0.08702670    0.00000000
                                                     2        0.6000000        0.30134159    0.00000000
                                                     2        0.8000000       -0.50204959    0.00000000
                                                     2        1.2000000        0.52208372    0.00000000
                                      S - F
                                                     0        0.0000010       -0.01618346    0.00000000
                                                     2        0.1200000       -0.07880581    0.00000000
                                                     2        0.1600000        0.32040539    0.00000000
                                                     2        0.2400000       -0.47500956    0.00000000
                                                     2        0.5000000        0.54013668    0.00000000
                                                     2        1.5000000       -1.40434292    0.00000000
                                                     2        3.0000000        1.46283806    0.00000000
                                      P - F
                                                     0        0.0000010        0.00612970    0.00000000
                                                     2        0.1200000        0.02254406    0.00000000
                                                     2        0.1800000       -0.13874529    0.00000000
                                                     2        0.3000000        0.38299049    0.00000000
                                                     2        0.5000000       -0.57923512    0.00000000
                                                     2        1.0000000        0.63021625    0.00000000
                                                     2        2.0000000       -0.79201034    0.00000000
                                      D - F
                                                     0        0.0000010       -0.00296226    0.00000000
                                                     2        0.1200000       -0.00547344    0.00000000
                                                     2        0.1400000        0.01837884    0.00000000
                                                     2        0.2400000       -0.05565704    0.00000000
                                                     2        0.4000000        0.15376597    0.00000000
                                                     2        0.8000000       -0.32464795    0.00000000
 ======================================================================================================
   384 basis functions,   648 primitive gaussians,   408 cartesian basis functions
    42 alpha electrons       42 beta electrons
       nuclear repulsion energy       629.7381066771 Hartrees.
 NAtoms=   24 NActive=   24 NUniq=   12 SFac= 4.00D+00 NAtFMM=   60 NAOKFM=F Big=F
   2 Symmetry operations used in ECPInt.
 ECPInt:  NShTT=   14196 NPrTT=   65556 LenC2=   13966 LenP2D=   46864.
 LDataN:  DoStor=T MaxTD1= 6 Len=  172
 Initial guess from the checkpoint file:  "1-6-dimethylnaphthalene.chk"
 B after Tr=     0.000000   -0.000000    0.000000
         Rot=    1.000000   -0.000000    0.000000    0.000000 Ang=   0.00 deg.
 Initial guess orbital symmetries:
       Occupied  (AU) (AG) (AG) (AU) (AG) (AU) (AU) (AG) (AG) (AU)
                 (AU) (AG) (AG) (AU) (AU) (AG) (AG) (AU) (AG) (AU)
                 (AG) (AU) (AG) (AU) (AG) (AU) (AG) (AU) (AU) (AG)
                 (AG) (AU) (AG) (AU) (AU) (AU) (AG) (AG) (AG) (AG)
                 (AU) (AU)
       Virtual   (AG) (AU) (AU) (AG) (AG) (AU) (AG) (AU) (AU) (AG)
                 (AG) (AG) (AU) (AG) (AU) (AG) (AG) (AU) (AU) (AU)
                 (AU) (AG) (AG) (AU) (AG) (AU) (AG) (AG) (AU) (AU)
                 (AU) (AG) (AG) (AU) (AG) (AU) (AG) (AG) (AU) (AG)
                 (AU) (AG) (AU) (AG) (AU) (AG) (AU) (AG) (AG) (AU)
                 (AG) (AU) (AU) (AU) (AU) (AG) (AU) (AU) (AG) (AG)
                 (AU) (AG) (AU) (AU) (AG) (AG) (AU) (AG) (AU) (AG)
                 (AG) (AU) (AU) (AG) (AG) (AU) (AG) (AU) (AG) (AU)
                 (AG) (AU) (AG) (AG) (AU) (AG) (AU) (AG) (AU) (AU)
                 (AU) (AG) (AU) (AG) (AG) (AU) (AG) (AU) (AG) (AG)
                 (AU) (AU) (AU) (AG) (AU) (AG) (AU) (AU) (AG) (AG)
                 (AG) (AU) (AU) (AG) (AU) (AG) (AU) (AG) (AU) (AU)
                 (AG) (AU) (AG) (AG) (AG) (AU) (AG) (AU) (AU) (AG)
                 (AU) (AG) (AU) (AU) (AG) (AG) (AG) (AG) (AU) (AG)
                 (AU) (AU) (AG) (AG) (AU) (AG) (AU) (AG) (AU) (AU)
                 (AG) (AU) (AU) (AU) (AU) (AU) (AG) (AG) (AG) (AG)
                 (AG) (AU) (AU) (AG) (AU) (AU) (AU) (AG) (AG) (AU)
                 (AU) (AG) (AG) (AU) (AU) (AG) (AG) (AU) (AG) (AG)
                 (AG) (AU) (AG) (AU) (AG) (AG) (AU) (AU) (AG) (AU)
                 (AG) (AU) (AU) (AG) (AU) (AU) (AG) (AU) (AG) (AU)
                 (AG) (AG) (AG) (AU) (AU) (AG) (AU) (AG) (AG) (AU)
                 (AU) (AG) (AU) (AU) (AG) (AU) (AG) (AG) (AG) (AU)
                 (AU) (AG) (AU) (AG) (AG) (AU) (AG) (AG) (AU) (AG)
                 (AG) (AU) (AU) (AU) (AG) (AG) (AU) (AG) (AU) (AU)
                 (AG) (AU) (AG) (AG) (AU) (AU) (AU) (AG) (AU) (AG)
                 (AU) (AG) (AG) (AU) (AU) (AG) (AU) (AG) (AG) (AU)
                 (AG) (AU) (AG) (AG) (AU) (AG) (AU) (AG) (AU) (AU)
                 (AU) (AG) (AG) (AG) (AU) (AU) (AG) (AG) (AG) (AU)
                 (AU) (AU) (AU) (AG) (AG) (AG) (AU) (AU) (AG) (AG)
                 (AU) (AU) (AU) (AG) (AG) (AU) (AG) (AU) (AU) (AG)
                 (AG) (AU) (AG) (AU) (AG) (AU) (AU) (AG) (AU) (AG)
                 (AG) (AU) (AG) (AU) (AG) (AU) (AG) (AU) (AU) (AG)
                 (AU) (AG) (AG) (AU) (AG) (AU) (AU) (AU) (AG) (AG)
                 (AU) (AG) (AU) (AG) (AU) (AG) (AU) (AG) (AG) (AU)
 >>>>>>>>>> Convergence criterion not met.
 SCF Done:  E(RHF) =  -461.612081931     A.U. after    2 cycles
            NFock=  1  Conv=0.30D-01     -V/T= 2.0015

 **********************************************************************

            Population analysis using the SCF Density.

 **********************************************************************

 Orbital symmetries:
       Occupied  (AG) (AU) (AG) (AU) (AG) (AU) (AU) (AG) (AG) (AU)
                 (AU) (AG) (AG) (AU) (AU) (AG) (AG) (AU) (AG) (AU)
                 (AG) (AU) (AG) (AU) (AG) (AU) (AG) (AU) (AG) (AU)
                 (AG) (AU) (AG) (AU) (AU) (AU) (AG) (AG) (AG) (AG)
                 (AU) (AU)
       Virtual   (AG) (AU) (AU) (AG) (AG) (AU) (AG) (AU) (AU) (AG)
                 (AG) (AG) (AU) (AG) (AU) (AG) (AG) (AU) (AU) (AU)
                 (AU) (AG) (AG) (AU) (AG) (AU) (AG) (AG) (AU) (AU)
                 (AU) (AG) (AG) (AU) (AG) (AU) (AG) (AG) (AU) (AG)
                 (AU) (AG) (AU) (AG) (AU) (AG) (AU) (AG) (AG) (AU)
                 (AG) (AU) (AU) (AU) (AU) (AG) (AU) (AU) (AG) (AG)
                 (AU) (AG) (AU) (AU) (AG) (AG) (AU) (AG) (AU) (AG)
                 (AG) (AU) (AU) (AG) (AG) (AU) (AG) (AU) (AG) (AU)
                 (AG) (AU) (AG) (AG) (AU) (AG) (AU) (AG) (AU) (AU)
                 (AU) (AG) (AU) (AG) (AG) (AU) (AU) (AG) (AG) (AG)
                 (AU) (AU) (AG) (AU) (AU) (AG) (AU) (AU) (AG) (AG)
                 (AG) (AU) (AU) (AG) (AU) (AG) (AU) (AG) (AU) (AU)
                 (AG) (AU) (AG) (AG) (AG) (AU) (AG) (AU) (AU) (AG)
                 (AU) (AG) (AU) (AU) (AG) (AG) (AG) (AG) (AU) (AG)
                 (AU) (AG) (AU) (AG) (AU) (AG) (AU) (AG) (AU) (AU)
                 (AG) (AU) (AU) (AU) (AU) (AU) (AG) (AG) (AG) (AG)
                 (AG) (AU) (AU) (AG) (AU) (AU) (AU) (AG) (AG) (AU)
                 (AU) (AG) (AG) (AG) (AU) (AU) (AG) (AU) (AG) (AG)
                 (AG) (AU) (AG) (AU) (AG) (AG) (AU) (AU) (AG) (AG)
                 (AU) (AU) (AU) (AG) (AU) (AU) (AG) (AU) (AG) (AU)
                 (AG) (AG) (AG) (AU) (AU) (AG) (AU) (AG) (AG) (AU)
                 (AU) (AG) (AU) (AU) (AG) (AU) (AG) (AG) (AG) (AU)
                 (AU) (AG) (AG) (AU) (AG) (AU) (AG) (AG) (AU) (AG)
                 (AG) (AU) (AU) (AU) (AG) (AG) (AU) (AG) (AU) (AU)
                 (AG) (AU) (AG) (AU) (AG) (AU) (AU) (AG) (AU) (AG)
                 (AU) (AG) (AG) (AU) (AU) (AG) (AU) (AG) (AG) (AU)
                 (AG) (AU) (AG) (AG) (AU) (AG) (AU) (AU) (AG) (AU)
                 (AU) (AG) (AG) (AG) (AU) (AU) (AG) (AG) (AG) (AU)
                 (AU) (AU) (AU) (AG) (AG) (AG) (AU) (AU) (AG) (AG)
                 (AU) (AU) (AU) (AG) (AG) (AU) (AG) (AU) (AU) (AG)
                 (AG) (AG) (AU) (AU) (AU) (AG) (AU) (AG) (AG) (AU)
                 (AG) (AU) (AG) (AU) (AG) (AU) (AU) (AG) (AU) (AG)
                 (AU) (AG) (AG) (AU) (AG) (AU) (AU) (AU) (AG) (AG)
                 (AU) (AG) (AU) (AG) (AU) (AG) (AU) (AG) (AG) (AU)
 The electronic state is 1-AG.
 Alpha  occ. eigenvalues --  -11.24762 -11.24762 -11.24563 -11.24467 -11.24199
 Alpha  occ. eigenvalues --  -11.24195 -11.23870 -11.23870 -11.23604 -11.23604
 Alpha  occ. eigenvalues --  -11.23320 -11.23319  -1.16566  -1.11185  -1.04416
 Alpha  occ. eigenvalues --   -1.03888  -0.98206  -0.96262  -0.90467  -0.84897
 Alpha  occ. eigenvalues --   -0.81309  -0.80000  -0.69892  -0.69210  -0.66640
 Alpha  occ. eigenvalues --   -0.62225  -0.60333  -0.60208  -0.58189  -0.58127
 Alpha  occ. eigenvalues --   -0.57649  -0.55464  -0.54072  -0.53478  -0.51991
 Alpha  occ. eigenvalues --   -0.50953  -0.48447  -0.47274  -0.43338  -0.38319
 Alpha  occ. eigenvalues --   -0.31089  -0.28598
 Alpha virt. eigenvalues --    0.03477   0.03483   0.03786   0.04844   0.05280
 Alpha virt. eigenvalues --    0.05811   0.06138   0.06599   0.07124   0.08149
 Alpha virt. eigenvalues --    0.08306   0.08952   0.09752   0.10711   0.10810
 Alpha virt. eigenvalues --    0.10861   0.11953   0.12433   0.12962   0.14029
 Alpha virt. eigenvalues --    0.14514   0.14567   0.14686   0.14945   0.15813
 Alpha virt. eigenvalues --    0.16406   0.16550   0.16722   0.16783   0.17330
 Alpha virt. eigenvalues --    0.17575   0.17869   0.17973   0.18466   0.19041
 Alpha virt. eigenvalues --    0.19681   0.20301   0.21421   0.21446   0.21789
 Alpha virt. eigenvalues --    0.22322   0.22578   0.23029   0.23878   0.24627
 Alpha virt. eigenvalues --    0.25230   0.25240   0.26588   0.27558   0.27636
 Alpha virt. eigenvalues --    0.27828   0.28508   0.28635   0.29773   0.31459
 Alpha virt. eigenvalues --    0.31586   0.32523   0.32852   0.32923   0.33403
 Alpha virt. eigenvalues --    0.33892   0.34489   0.34557   0.35057   0.35469
 Alpha virt. eigenvalues --    0.36635   0.36883   0.37054   0.37607   0.38989
 Alpha virt. eigenvalues --    0.39592   0.40285   0.40579   0.40876   0.41524
 Alpha virt. eigenvalues --    0.42850   0.43190   0.43439   0.44280   0.44736
 Alpha virt. eigenvalues --    0.44852   0.46014   0.46328   0.46660   0.46849
 Alpha virt. eigenvalues --    0.47958   0.48222   0.48943   0.49452   0.49879
 Alpha virt. eigenvalues --    0.50534   0.51388   0.52295   0.52852   0.53615
 Alpha virt. eigenvalues --    0.54230   0.54933   0.54995   0.55280   0.55326
 Alpha virt. eigenvalues --    0.56866   0.56958   0.58207   0.58225   0.59165
 Alpha virt. eigenvalues --    0.60993   0.61869   0.62013   0.62345   0.63175
 Alpha virt. eigenvalues --    0.63867   0.64505   0.65962   0.66143   0.66403
 Alpha virt. eigenvalues --    0.66474   0.67195   0.67926   0.68164   0.68471
 Alpha virt. eigenvalues --    0.68571   0.69188   0.69436   0.70411   0.70487
 Alpha virt. eigenvalues --    0.70866   0.71444   0.71817   0.72969   0.73178
 Alpha virt. eigenvalues --    0.74589   0.74629   0.75472   0.76028   0.77110
 Alpha virt. eigenvalues --    0.77240   0.78147   0.78596   0.78761   0.78964
 Alpha virt. eigenvalues --    0.79288   0.79620   0.79734   0.81475   0.81914
 Alpha virt. eigenvalues --    0.82345   0.82388   0.83641   0.84529   0.85596
 Alpha virt. eigenvalues --    0.85896   0.89360   0.90848   0.90930   0.92088
 Alpha virt. eigenvalues --    0.92553   0.92756   0.92845   0.93469   0.94006
 Alpha virt. eigenvalues --    0.95269   0.95281   0.95574   0.96050   0.97942
 Alpha virt. eigenvalues --    0.99313   0.99855   1.00604   1.00944   1.01460
 Alpha virt. eigenvalues --    1.02863   1.05008   1.06137   1.07566   1.07654
 Alpha virt. eigenvalues --    1.07889   1.08024   1.10480   1.11773   1.11957
 Alpha virt. eigenvalues --    1.12943   1.13324   1.13777   1.15551   1.16261
 Alpha virt. eigenvalues --    1.16825   1.17951   1.17997   1.19381   1.23481
 Alpha virt. eigenvalues --    1.23677   1.23921   1.26131   1.29717   1.30557
 Alpha virt. eigenvalues --    1.32336   1.32765   1.34018   1.36862   1.37389
 Alpha virt. eigenvalues --    1.37873   1.46611   1.48972   1.49045   1.49896
 Alpha virt. eigenvalues --    1.50185   1.54019   1.54512   1.54678   1.55003
 Alpha virt. eigenvalues --    1.57129   1.57328   1.58887   1.59638   1.60348
 Alpha virt. eigenvalues --    1.62832   1.64038   1.64535   1.65567   1.66240
 Alpha virt. eigenvalues --    1.68698   1.69067   1.69833   1.69919   1.70972
 Alpha virt. eigenvalues --    1.72762   1.73013   1.73432   1.75392   1.76303
 Alpha virt. eigenvalues --    1.77588   1.78503   1.78710   1.80596   1.81082
 Alpha virt. eigenvalues --    1.81863   1.83594   1.83752   1.84384   1.85575
 Alpha virt. eigenvalues --    1.87476   1.88138   1.90063   1.90338   1.91490
 Alpha virt. eigenvalues --    1.91536   1.91870   1.92810   1.93632   1.96827
 Alpha virt. eigenvalues --    1.98966   1.99353   2.01102   2.01560   2.03994
 Alpha virt. eigenvalues --    2.04059   2.05944   2.06602   2.08870   2.09710
 Alpha virt. eigenvalues --    2.10819   2.12558   2.14475   2.15485   2.17382
 Alpha virt. eigenvalues --    2.18772   2.19166   2.20069   2.20462   2.21153
 Alpha virt. eigenvalues --    2.22460   2.22779   2.24776   2.25662   2.26277
 Alpha virt. eigenvalues --    2.26414   2.28172   2.28540   2.29848   2.31243
 Alpha virt. eigenvalues --    2.32348   2.32637   2.35704   2.35875   2.36606
 Alpha virt. eigenvalues --    2.37781   2.38929   2.40770   2.41868   2.42015
 Alpha virt. eigenvalues --    2.42229   2.43061   2.46310   2.48624   2.49992
 Alpha virt. eigenvalues --    2.50216   2.50395   2.50588   2.54141   2.54525
 Alpha virt. eigenvalues --    2.59069   2.59680   2.59692   2.65425   2.68064
 Alpha virt. eigenvalues --    2.68385   2.72522   2.74274   2.76515   2.77060
 Alpha virt. eigenvalues --    2.80257   2.82658   2.83007   2.90730   2.91914
 Alpha virt. eigenvalues --    2.92125   2.95194   2.95456   2.99132   2.99969
 Alpha virt. eigenvalues --    3.01236   3.03063   3.05252   3.07358   3.12234
 Alpha virt. eigenvalues --    3.15304   3.21911   3.23244   3.24194   3.26570
 Alpha virt. eigenvalues --    3.44444   3.46958   3.60374   3.72699   3.74397
 Alpha virt. eigenvalues --    3.78298   3.82344   3.85127   4.51655   4.73497
          Condensed to atoms (all electrons):
 Mulliken charges:
               1
     1  C    0.577717
     2  C    0.577717
     3  C    0.510408
     4  C    0.510408
     5  C    0.787272
     6  C    0.787272
     7  C   -0.225029
     8  C   -0.225029
     9  C   -0.446002
    10  C   -0.446002
    11  C    0.596077
    12  C    0.596077
    13  H   -0.641748
    14  H   -0.641748
    15  H   -0.625118
    16  H   -0.625118
    17  H   -0.583421
    18  H   -0.583421
    19  H   -0.193149
    20  H    0.119343
    21  H    0.123650
    22  H    0.123650
    23  H    0.119343
    24  H   -0.193149
 Sum of Mulliken charges =   0.00000
 Mulliken charges with hydrogens summed into heavy atoms:
               1
     1  C   -0.064031
     2  C   -0.064031
     3  C   -0.114710
     4  C   -0.114710
     5  C    0.203851
     6  C    0.203851
     7  C   -0.225029
     8  C   -0.225029
     9  C   -0.446002
    10  C   -0.446002
    11  C    0.645921
    12  C    0.645921
 Electronic spatial extent (au):  <R**2>=           2360.8373
 Charge=             -0.0000 electrons
 Dipole moment (field-independent basis, Debye):
    X=             -0.0000    Y=              0.0000    Z=              0.0000  Tot=              0.0000

 Test job not archived.
 1\1\GINC-SE232\SP\RHF\Aug-CC-pVDZ\C12H12\OHZDE\05-Apr-2025\0\\#t hf au
 g-cc-pvdz iop(5/13=1,5/36=2,99/5=2) pseudo=read geom=check guess=(read
 ,tcheck) scf=(maxcycle=1)\\title\\0,1\C,0,-0.072264,1.827345,-0.349034
 \C,0,0.072264,-1.827345,0.349034\C,0,-1.374617,2.10896,-0.034074\C,0,1
 .374617,-2.10896,0.034074\C,0,1.779072,0.182743,-0.544682\C,0,-1.77907
 2,-0.182743,0.544682\C,0,0.43857,0.512106,-0.228855\C,0,-0.43857,-0.51
 2106,0.228855\C,0,-2.259063,1.098577,0.422509\C,0,2.259063,-1.098577,-
 0.422509\C,0,-3.684425,1.44726,0.756865\C,0,3.684425,-1.44726,-0.75686
 5\H,0,0.585539,2.61456,-0.696015\H,0,-0.585539,-2.61456,0.696015\H,0,-
 1.742638,3.122803,-0.134031\H,0,1.742638,-3.122803,0.134031\H,0,2.4355
 55,0.972293,-0.891642\H,0,-2.435555,-0.972293,0.891642\H,0,-4.237087,0
 .574737,1.10251\H,0,-3.731712,2.207391,1.539862\H,0,-4.206005,1.852269
 ,-0.113324\H,0,4.206005,-1.852269,0.113324\H,0,3.731712,-2.207391,-1.5
 39862\H,0,4.237087,-0.574737,-1.10251\\Version=ES64L-G16RevC.01\State=
 1-AG\HF=-461.6120819\RMSD=2.976e-02\Dipole=0.,0.,0.\Quadrupole=3.55681
 42,2.4600023,-6.0168164,-1.3304714,-2.7701419,-1.5613651\PG=CI [X(C12H
 12)]\\@


 WE TEND TO MEET ANY NEW SITUATION BY REORGANIZING. IT CAN BE A
 WONDERFUL METHOD FOR CREATING THE ILLUSION OF PROGRESS WHILE PRODUCING
 CONFUSION, INEFFICIENCY, AND DEMORALIZATION.
     -- PETRONIUS ARBITER, 210 B.C.
 Job cpu time:       0 days  0 hours  2 minutes 23.6 seconds.
 Elapsed time:       0 days  0 hours  0 minutes 10.8 seconds.
 File lengths (MBytes):  RWF=     25 Int=      0 D2E=      0 Chk=     19 Scr=      1
 Normal termination of Gaussian 16 at Sat Apr  5 22:15:54 2025.
