 Entering Gaussian System, Link 0=g16
 Input=1-butanamine.gjf
 Output=1-butanamine.log
 Initial command:
 /arc/software/Gaussian/g16.c01/l1.exe "/tmp/slurm/4814280/Gau-3207330.inp" -scrdir="/tmp/slurm/4814280/"
 Entering Link 1 = /arc/software/Gaussian/g16.c01/l1.exe PID=   3207333.
  
 Copyright (c) 1988-2019, Gaussian, Inc.  All Rights Reserved.
  
 This is part of the Gaussian(R) 16 program.  It is based on
 the Gaussian(R) 09 system (copyright 2009, Gaussian, Inc.),
 the Gaussian(R) 03 system (copyright 2003, Gaussian, Inc.),
 the Gaussian(R) 98 system (copyright 1998, Gaussian, Inc.),
 the Gaussian(R) 94 system (copyright 1995, Gaussian, Inc.),
 the Gaussian 92(TM) system (copyright 1992, Gaussian, Inc.),
 the Gaussian 90(TM) system (copyright 1990, Gaussian, Inc.),
 the Gaussian 88(TM) system (copyright 1988, Gaussian, Inc.),
 the Gaussian 86(TM) system (copyright 1986, Carnegie Mellon
 University), and the Gaussian 82(TM) system (copyright 1983,
 Carnegie Mellon University). Gaussian is a federally registered
 trademark of Gaussian, Inc.
  
 This software contains proprietary and confidential information,
 including trade secrets, belonging to Gaussian, Inc.
  
 This software is provided under written license and may be
 used, copied, transmitted, or stored only in accord with that
 written license.
  
 The following legend is applicable only to US Government
 contracts under FAR:
  
                    RESTRICTED RIGHTS LEGEND
  
 Use, reproduction and disclosure by the US Government is
 subject to restrictions as set forth in subparagraphs (a)
 and (c) of the Commercial Computer Software - Restricted
 Rights clause in FAR 52.227-19.
  
 Gaussian, Inc.
 340 Quinnipiac St., Bldg. 40, Wallingford CT 06492
  
  
 ---------------------------------------------------------------
 Warning -- This program may not be used in any manner that
 competes with the business of Gaussian, Inc. or will provide
 assistance to any competitor of Gaussian, Inc.  The licensee
 of this program is prohibited from giving any competitor of
 Gaussian, Inc. access to this program.  By using this program,
 the user acknowledges that Gaussian, Inc. is engaged in the
 business of creating and licensing software in the field of
 computational chemistry and represents and warrants to the
 licensee that it is not a competitor of Gaussian, Inc. and that
 it will not use this program in any manner prohibited above.
 ---------------------------------------------------------------
  

 Cite this work as:
 Gaussian 16, Revision C.01,
 M. J. Frisch, G. W. Trucks, H. B. Schlegel, G. E. Scuseria, 
 M. A. Robb, J. R. Cheeseman, G. Scalmani, V. Barone, 
 G. A. Petersson, H. Nakatsuji, X. Li, M. Caricato, A. V. Marenich, 
 J. Bloino, B. G. Janesko, R. Gomperts, B. Mennucci, H. P. Hratchian, 
 J. V. Ortiz, A. F. Izmaylov, J. L. Sonnenberg, D. Williams-Young, 
 F. Ding, F. Lipparini, F. Egidi, J. Goings, B. Peng, A. Petrone, 
 T. Henderson, D. Ranasinghe, V. G. Zakrzewski, J. Gao, N. Rega, 
 G. Zheng, W. Liang, M. Hada, M. Ehara, K. Toyota, R. Fukuda, 
 J. Hasegawa, M. Ishida, T. Nakajima, Y. Honda, O. Kitao, H. Nakai, 
 T. Vreven, K. Throssell, J. A. Montgomery, Jr., J. E. Peralta, 
 F. Ogliaro, M. J. Bearpark, J. J. Heyd, E. N. Brothers, K. N. Kudin, 
 V. N. Staroverov, T. A. Keith, R. Kobayashi, J. Normand, 
 K. Raghavachari, A. P. Rendell, J. C. Burant, S. S. Iyengar, 
 J. Tomasi, M. Cossi, J. M. Millam, M. Klene, C. Adamo, R. Cammi, 
 J. W. Ochterski, R. L. Martin, K. Morokuma, O. Farkas, 
 J. B. Foresman, and D. J. Fox, Gaussian, Inc., Wallingford CT, 2019.
 
 ******************************************
 Gaussian 16:  ES64L-G16RevC.01  3-Jul-2019
                 5-Apr-2025 
 ******************************************
 %nprocs=16
 Will use up to   16 processors via shared memory.
 %mem=30GB
 %chk=1-butanamine.chk
 ----------------------------------------------------------------------
 #t hf aug-cc-pvdz symm=none int=(grid=ultrafine) guess=(read,tcheck) s
 table=(opt,rrhf)
 ----------------------------------------------------------------------
 -----
 title
 -----
 Symbolic Z-matrix:
 Charge =  0 Multiplicity = 1
 C                     2.53376  -0.30622  -0.01419 
 C                     1.25122   0.52234   0.03982 
 C                    -0.01672  -0.32779  -0.0394 
 C                    -1.30013   0.49342   0.01585 
 N                    -2.48079  -0.37008  -0.09034 
 H                     3.42032   0.32659   0.0452 
 H                     2.57819  -1.01775   0.81293 
 H                     2.5949   -0.87728  -0.94269 
 H                     1.23754   1.11106   0.96199 
 H                     1.25152   1.24545  -0.78134 
 H                    -0.0171   -0.91552  -0.96102 
 H                    -0.0189   -1.04986   0.78514 
 H                    -1.29303   1.10919   0.92692 
 H                    -1.32185   1.186    -0.82922 
 H                    -3.33266   0.17643  -0.10351 
 H                    -2.54221  -0.99424   0.70546 
 
                    Distance matrix (angstroms):
                    1          2          3          4          5
     1  C    0.000000
     2  C    1.527851   0.000000
     3  C    2.550689   1.528617   0.000000
     4  C    3.916509   2.551632   1.524665   0.000000
     5  N    5.015527   3.839432   2.464958   1.466580   0.000000
     6  H    1.090855   2.177914   3.499794   4.723486   5.943628
     7  H    1.091959   2.174956   2.817101   4.237969   5.179633
     8  H    1.091768   2.174795   2.817516   4.238973   5.171685
     9  H    2.154473   1.094146   2.155511   2.777849   4.138493
    10  H    2.154144   1.094163   2.152669   2.777048   4.125232
    11  H    2.788298   2.162819   1.093076   2.141400   2.669338
    12  H    2.776325   2.154190   1.096021   2.148276   2.699896
    13  H    4.187290   2.757639   2.151207   1.099671   2.152633
    14  H    4.213865   2.795773   2.149123   1.092829   2.076169
    15  H    5.886920   4.599153   3.354677   2.060562   1.012198
    16  H    5.172691   4.139231   2.716082   2.057048   1.013226
                    6          7          8          9         10
     6  H    0.000000
     7  H    1.762344   0.000000
     8  H    1.762536   1.761303   0.000000
     9  H    2.494068   2.520197   3.069800   0.000000
    10  H    2.496223   3.069827   2.517279   1.748551   0.000000
    11  H    3.790928   3.145293   2.612340   3.062534   2.512269
    12  H    3.777611   2.597437   3.138011   2.505892   3.055534
    13  H    4.858554   4.418514   4.749477   2.530820   3.067812
    14  H    4.898088   4.771106   4.428418   3.124820   2.574498
    15  H    6.756285   6.099518   6.078695   4.784935   4.755735
    16  H    6.142661   5.121586   5.396294   4.334124   4.649643
                   11         12         13         14         15
    11  H    0.000000
    12  H    1.751325   0.000000
    13  H    3.048251   2.510983   0.000000
    14  H    2.477123   3.050065   1.758057   0.000000
    15  H    3.594535   3.643421   2.468184   2.364166   0.000000
    16  H    3.026478   2.525185   2.456403   2.932226   1.627787
                   16
    16  H    0.000000
 Symmetry turned off by external request.
 Rotational constants (GHZ):          18.2019332           1.9539893           1.8533551
   214 basis functions,   336 primitive gaussians,   224 cartesian basis functions
    21 alpha electrons       21 beta electrons
       nuclear repulsion energy       185.6333152294 Hartrees.
 NAtoms=   16 NActive=   16 NUniq=   16 SFac= 1.00D+00 NAtFMM=   60 NAOKFM=F Big=F
 ExpMin= 2.97D-02 ExpMax= 9.05D+03 ExpMxC= 3.09D+02 IAcc=3 IRadAn=         5 AccDes= 0.00D+00
 Harris functional with IExCor=  205 and IRadAn=       5 diagonalized for initial guess.
 HarFok:  IExCor=  205 AccDes= 0.00D+00 IRadAn=         5 IDoV= 1 UseB2=F ITyADJ=14
 ICtDFT=  3500011 ScaDFX=  1.000000  1.000000  1.000000  1.000000
 FoFCou: FMM=F IPFlag=           0 FMFlag=      100000 FMFlg1=           0
         NFxFlg=           0 DoJE=T BraDBF=F KetDBF=T FulRan=T
         wScrn=  0.000000 ICntrl=       500 IOpCl=  0 I1Cent=   200000004 NGrid=           0
         NMat0=    1 NMatS0=      1 NMatT0=    0 NMatD0=    1 NMtDS0=    0 NMtDT0=    0
 Symmetry not used in FoFCou.
 SCF Done:  E(RHF) =  -212.350192265     A.U. after   12 cycles
            NFock= 12  Conv=0.49D-08     -V/T= 2.0012

 **********************************************************************

            Population analysis using the SCF Density.

 **********************************************************************

 Alpha  occ. eigenvalues --  -15.54465 -11.24945 -11.22245 -11.21776 -11.21672
 Alpha  occ. eigenvalues --   -1.17579  -1.06069  -0.95969  -0.84371  -0.79091
 Alpha  occ. eigenvalues --   -0.66205  -0.63617  -0.60460  -0.57526  -0.56350
 Alpha  occ. eigenvalues --   -0.52439  -0.49890  -0.46949  -0.46479  -0.46204
 Alpha  occ. eigenvalues --   -0.38532
 Alpha virt. eigenvalues --    0.03631   0.04247   0.04657   0.05093   0.06347
 Alpha virt. eigenvalues --    0.06613   0.06861   0.07638   0.09136   0.09684
 Alpha virt. eigenvalues --    0.10120   0.11282   0.13675   0.15125   0.15461
 Alpha virt. eigenvalues --    0.16636   0.16796   0.17115   0.17803   0.18050
 Alpha virt. eigenvalues --    0.19139   0.19539   0.20838   0.21414   0.21800
 Alpha virt. eigenvalues --    0.23015   0.23751   0.24624   0.25477   0.26053
 Alpha virt. eigenvalues --    0.29205   0.30275   0.31359   0.31963   0.33540
 Alpha virt. eigenvalues --    0.34226   0.35372   0.36460   0.37727   0.38765
 Alpha virt. eigenvalues --    0.39829   0.40106   0.41880   0.42958   0.44356
 Alpha virt. eigenvalues --    0.45429   0.46795   0.46923   0.47884   0.48376
 Alpha virt. eigenvalues --    0.48624   0.49420   0.49807   0.50087   0.51674
 Alpha virt. eigenvalues --    0.52138   0.52970   0.53631   0.55574   0.56321
 Alpha virt. eigenvalues --    0.56571   0.57479   0.58476   0.59091   0.59432
 Alpha virt. eigenvalues --    0.61773   0.62026   0.63511   0.64122   0.65080
 Alpha virt. eigenvalues --    0.65554   0.66085   0.67870   0.68796   0.69397
 Alpha virt. eigenvalues --    0.70144   0.72270   0.73135   0.74323   0.75066
 Alpha virt. eigenvalues --    0.76200   0.76957   0.78453   0.80037   0.81057
 Alpha virt. eigenvalues --    0.81908   0.83168   0.83387   0.84495   0.86130
 Alpha virt. eigenvalues --    0.87586   0.87994   0.90222   0.91264   0.93033
 Alpha virt. eigenvalues --    0.94219   0.96692   0.97139   1.00418   1.00743
 Alpha virt. eigenvalues --    1.02590   1.05805   1.11567   1.13438   1.13842
 Alpha virt. eigenvalues --    1.15696   1.16292   1.20205   1.21096   1.23944
 Alpha virt. eigenvalues --    1.26607   1.28873   1.31250   1.31547   1.34937
 Alpha virt. eigenvalues --    1.36644   1.43769   1.46942   1.52925   1.55954
 Alpha virt. eigenvalues --    1.57974   1.59342   1.59958   1.63332   1.67750
 Alpha virt. eigenvalues --    1.70383   1.73143   1.79911   1.82909   1.83812
 Alpha virt. eigenvalues --    1.86354   1.87183   1.88644   1.91587   1.95348
 Alpha virt. eigenvalues --    1.96676   1.99550   2.01925   2.05429   2.08292
 Alpha virt. eigenvalues --    2.09550   2.10493   2.11196   2.13875   2.15199
 Alpha virt. eigenvalues --    2.15379   2.17247   2.20734   2.23179   2.24205
 Alpha virt. eigenvalues --    2.27423   2.28541   2.30573   2.31328   2.32871
 Alpha virt. eigenvalues --    2.34693   2.36175   2.38853   2.42383   2.42719
 Alpha virt. eigenvalues --    2.44734   2.47201   2.50530   2.51338   2.55612
 Alpha virt. eigenvalues --    2.57636   2.61853   2.66318   2.67211   2.69234
 Alpha virt. eigenvalues --    2.70952   2.73139   2.75393   2.77069   2.78137
 Alpha virt. eigenvalues --    2.86759   2.89154   2.90072   2.92435   2.94967
 Alpha virt. eigenvalues --    2.97565   3.00962   3.05643   3.07430   3.11464
 Alpha virt. eigenvalues --    3.13589   3.19680   3.23846   3.28260   3.39243
 Alpha virt. eigenvalues --    3.40784   3.50437   3.72148
          Condensed to atoms (all electrons):
 Mulliken charges:
               1
     1  C    0.396504
     2  C    0.260324
     3  C    0.108537
     4  C    0.881102
     5  N   -0.379781
     6  H   -0.074761
     7  H   -0.083236
     8  H   -0.079529
     9  H   -0.163510
    10  H   -0.161824
    11  H   -0.127247
    12  H   -0.182474
    13  H   -0.154334
    14  H   -0.203402
    15  H   -0.041747
    16  H    0.005377
 Sum of Mulliken charges =  -0.00000
 Mulliken charges with hydrogens summed into heavy atoms:
               1
     1  C    0.158979
     2  C   -0.065010
     3  C   -0.201184
     4  C    0.523367
     5  N   -0.416152
 Electronic spatial extent (au):  <R**2>=            692.8389
 Charge=             -0.0000 electrons
 Dipole moment (field-independent basis, Debye):
    X=             -0.0846    Y=              0.7289    Z=              1.0775  Tot=              1.3036
 NROrb=    214 NOA=    21 NOB=    21 NVA=   193 NVB=   193

 **** Warning!!: The largest alpha MO coefficient is  0.50069758D+02

    12 initial guesses have been made.
 Iteration     1 Dimension    12 NMult     0 NNew     12
 Iteration     2 Dimension    24 NMult    12 NNew     12
 Iteration     3 Dimension    27 NMult    24 NNew      3
 Iteration     4 Dimension    30 NMult    27 NNew      3
 Iteration     5 Dimension    33 NMult    30 NNew      3
 Iteration     6 Dimension    36 NMult    33 NNew      3
 ***********************************************************************
 Stability analysis using <AA,BB:AA,BB> singles matrix:
 ***********************************************************************
 Ground to excited state transition densities written to RWF  633

 Eigenvectors of the stability matrix:
 
 Excited state symmetry could not be determined.
 Eigenvector   1:      Singlet-?Sym  Eigenvalue= 0.2566772  <S**2>=0.000
      21 -> 22         0.52803
      21 -> 23        -0.27307
      21 -> 35        -0.26325
 The wavefunction is stable under the perturbations considered.
 The wavefunction is already stable.

 **********************************************************************

            Population analysis using the SCF Density.

 **********************************************************************

 Alpha  occ. eigenvalues --  -15.54465 -11.24945 -11.22245 -11.21776 -11.21672
 Alpha  occ. eigenvalues --   -1.17579  -1.06069  -0.95969  -0.84371  -0.79091
 Alpha  occ. eigenvalues --   -0.66205  -0.63617  -0.60460  -0.57526  -0.56350
 Alpha  occ. eigenvalues --   -0.52439  -0.49890  -0.46949  -0.46479  -0.46204
 Alpha  occ. eigenvalues --   -0.38532
 Alpha virt. eigenvalues --    0.03631   0.04247   0.04657   0.05093   0.06347
 Alpha virt. eigenvalues --    0.06613   0.06861   0.07638   0.09136   0.09684
 Alpha virt. eigenvalues --    0.10120   0.11282   0.13675   0.15125   0.15461
 Alpha virt. eigenvalues --    0.16636   0.16796   0.17115   0.17803   0.18050
 Alpha virt. eigenvalues --    0.19139   0.19539   0.20838   0.21414   0.21800
 Alpha virt. eigenvalues --    0.23015   0.23751   0.24624   0.25477   0.26053
 Alpha virt. eigenvalues --    0.29205   0.30275   0.31359   0.31963   0.33540
 Alpha virt. eigenvalues --    0.34226   0.35372   0.36460   0.37727   0.38765
 Alpha virt. eigenvalues --    0.39829   0.40106   0.41880   0.42958   0.44356
 Alpha virt. eigenvalues --    0.45429   0.46795   0.46923   0.47884   0.48376
 Alpha virt. eigenvalues --    0.48624   0.49420   0.49807   0.50087   0.51674
 Alpha virt. eigenvalues --    0.52138   0.52970   0.53631   0.55574   0.56321
 Alpha virt. eigenvalues --    0.56571   0.57479   0.58476   0.59091   0.59432
 Alpha virt. eigenvalues --    0.61773   0.62026   0.63511   0.64122   0.65080
 Alpha virt. eigenvalues --    0.65554   0.66085   0.67870   0.68796   0.69397
 Alpha virt. eigenvalues --    0.70144   0.72270   0.73135   0.74323   0.75066
 Alpha virt. eigenvalues --    0.76200   0.76957   0.78453   0.80037   0.81057
 Alpha virt. eigenvalues --    0.81908   0.83168   0.83387   0.84495   0.86130
 Alpha virt. eigenvalues --    0.87586   0.87994   0.90222   0.91264   0.93033
 Alpha virt. eigenvalues --    0.94219   0.96692   0.97139   1.00418   1.00743
 Alpha virt. eigenvalues --    1.02590   1.05805   1.11567   1.13438   1.13842
 Alpha virt. eigenvalues --    1.15696   1.16292   1.20205   1.21096   1.23944
 Alpha virt. eigenvalues --    1.26607   1.28873   1.31250   1.31547   1.34937
 Alpha virt. eigenvalues --    1.36644   1.43769   1.46942   1.52925   1.55954
 Alpha virt. eigenvalues --    1.57974   1.59342   1.59958   1.63332   1.67750
 Alpha virt. eigenvalues --    1.70383   1.73143   1.79911   1.82909   1.83812
 Alpha virt. eigenvalues --    1.86354   1.87183   1.88644   1.91587   1.95348
 Alpha virt. eigenvalues --    1.96676   1.99550   2.01925   2.05429   2.08292
 Alpha virt. eigenvalues --    2.09550   2.10493   2.11196   2.13875   2.15199
 Alpha virt. eigenvalues --    2.15379   2.17247   2.20734   2.23179   2.24205
 Alpha virt. eigenvalues --    2.27423   2.28541   2.30573   2.31328   2.32871
 Alpha virt. eigenvalues --    2.34693   2.36175   2.38853   2.42383   2.42719
 Alpha virt. eigenvalues --    2.44734   2.47201   2.50530   2.51338   2.55612
 Alpha virt. eigenvalues --    2.57636   2.61853   2.66318   2.67211   2.69234
 Alpha virt. eigenvalues --    2.70952   2.73139   2.75393   2.77069   2.78137
 Alpha virt. eigenvalues --    2.86759   2.89154   2.90072   2.92435   2.94967
 Alpha virt. eigenvalues --    2.97565   3.00962   3.05643   3.07430   3.11464
 Alpha virt. eigenvalues --    3.13589   3.19680   3.23846   3.28260   3.39243
 Alpha virt. eigenvalues --    3.40784   3.50437   3.72148
          Condensed to atoms (all electrons):
 Mulliken charges:
               1
     1  C    0.396504
     2  C    0.260324
     3  C    0.108537
     4  C    0.881102
     5  N   -0.379781
     6  H   -0.074761
     7  H   -0.083236
     8  H   -0.079529
     9  H   -0.163510
    10  H   -0.161824
    11  H   -0.127247
    12  H   -0.182474
    13  H   -0.154334
    14  H   -0.203402
    15  H   -0.041747
    16  H    0.005377
 Sum of Mulliken charges =  -0.00000
 Mulliken charges with hydrogens summed into heavy atoms:
               1
     1  C    0.158979
     2  C   -0.065010
     3  C   -0.201184
     4  C    0.523367
     5  N   -0.416152
 Electronic spatial extent (au):  <R**2>=            692.8389
 Charge=             -0.0000 electrons
 Dipole moment (field-independent basis, Debye):
    X=             -0.0846    Y=              0.7289    Z=              1.0775  Tot=              1.3036
 Unable to Open any file for archive entry.
 1\1\GINC-SE012\Stability\RHF\Aug-CC-pVDZ\C4H11N1\OHZDE\05-Apr-2025\0\\
 #t hf aug-cc-pvdz symm=none int=(grid=ultrafine) guess=(read,tcheck) s
 table=(opt,rrhf)\\title\\0,1\C,0,2.533757,-0.30622,-0.014186\C,0,1.251
 222,0.522342,0.039823\C,0,-0.016716,-0.327791,-0.039403\C,0,-1.300133,
 0.493422,0.01585\N,0,-2.480785,-0.370083,-0.090337\H,0,3.420315,0.3265
 93,0.045198\H,0,2.57819,-1.017755,0.812928\H,0,2.5949,-0.87728,-0.9426
 85\H,0,1.237543,1.111057,0.961985\H,0,1.251521,1.245452,-0.781337\H,0,
 -0.017096,-0.915524,-0.961024\H,0,-0.0189,-1.049862,0.78514\H,0,-1.293
 033,1.109193,0.926922\H,0,-1.321845,1.185998,-0.82922\H,0,-3.332664,0.
 176428,-0.103509\H,0,-2.542214,-0.994236,0.705456\\Version=ES64L-G16Re
 vC.01\HF=-212.3501923\RMSD=4.876e-09\Dipole=-0.0332706,0.2867703,0.423
 9087\Quadrupole=0.6799027,-0.5297072,-0.1501954,-1.3183027,-2.2230252,
 -1.4053061\PG=Unknown\\@
 The archive entry for this job was punched.


 THERE'S A SUCKER BORN EVERY MINUTE

              -- PHINEAS TAYLOR (P.T.) BARNUM
 Job cpu time:       0 days  0 hours  4 minutes 50.7 seconds.
 Elapsed time:       0 days  0 hours  0 minutes 24.6 seconds.
 File lengths (MBytes):  RWF=    190 Int=      0 D2E=      0 Chk=      6 Scr=      1
 Normal termination of Gaussian 16 at Sat Apr  5 22:11:02 2025.
 Initial command:
 /arc/software/Gaussian/g16.c01/l1.exe "/tmp/slurm/4814280/Gau-3207330.inp" -scrdir="/tmp/slurm/4814280/"
 Entering Link 1 = /arc/software/Gaussian/g16.c01/l1.exe PID=   3207570.
  
 Copyright (c) 1988-2019, Gaussian, Inc.  All Rights Reserved.
  
 This is part of the Gaussian(R) 16 program.  It is based on
 the Gaussian(R) 09 system (copyright 2009, Gaussian, Inc.),
 the Gaussian(R) 03 system (copyright 2003, Gaussian, Inc.),
 the Gaussian(R) 98 system (copyright 1998, Gaussian, Inc.),
 the Gaussian(R) 94 system (copyright 1995, Gaussian, Inc.),
 the Gaussian 92(TM) system (copyright 1992, Gaussian, Inc.),
 the Gaussian 90(TM) system (copyright 1990, Gaussian, Inc.),
 the Gaussian 88(TM) system (copyright 1988, Gaussian, Inc.),
 the Gaussian 86(TM) system (copyright 1986, Carnegie Mellon
 University), and the Gaussian 82(TM) system (copyright 1983,
 Carnegie Mellon University). Gaussian is a federally registered
 trademark of Gaussian, Inc.
  
 This software contains proprietary and confidential information,
 including trade secrets, belonging to Gaussian, Inc.
  
 This software is provided under written license and may be
 used, copied, transmitted, or stored only in accord with that
 written license.
  
 The following legend is applicable only to US Government
 contracts under FAR:
  
                    RESTRICTED RIGHTS LEGEND
  
 Use, reproduction and disclosure by the US Government is
 subject to restrictions as set forth in subparagraphs (a)
 and (c) of the Commercial Computer Software - Restricted
 Rights clause in FAR 52.227-19.
  
 Gaussian, Inc.
 340 Quinnipiac St., Bldg. 40, Wallingford CT 06492
  
  
 ---------------------------------------------------------------
 Warning -- This program may not be used in any manner that
 competes with the business of Gaussian, Inc. or will provide
 assistance to any competitor of Gaussian, Inc.  The licensee
 of this program is prohibited from giving any competitor of
 Gaussian, Inc. access to this program.  By using this program,
 the user acknowledges that Gaussian, Inc. is engaged in the
 business of creating and licensing software in the field of
 computational chemistry and represents and warrants to the
 licensee that it is not a competitor of Gaussian, Inc. and that
 it will not use this program in any manner prohibited above.
 ---------------------------------------------------------------
  

 Cite this work as:
 Gaussian 16, Revision C.01,
 M. J. Frisch, G. W. Trucks, H. B. Schlegel, G. E. Scuseria, 
 M. A. Robb, J. R. Cheeseman, G. Scalmani, V. Barone, 
 G. A. Petersson, H. Nakatsuji, X. Li, M. Caricato, A. V. Marenich, 
 J. Bloino, B. G. Janesko, R. Gomperts, B. Mennucci, H. P. Hratchian, 
 J. V. Ortiz, A. F. Izmaylov, J. L. Sonnenberg, D. Williams-Young, 
 F. Ding, F. Lipparini, F. Egidi, J. Goings, B. Peng, A. Petrone, 
 T. Henderson, D. Ranasinghe, V. G. Zakrzewski, J. Gao, N. Rega, 
 G. Zheng, W. Liang, M. Hada, M. Ehara, K. Toyota, R. Fukuda, 
 J. Hasegawa, M. Ishida, T. Nakajima, Y. Honda, O. Kitao, H. Nakai, 
 T. Vreven, K. Throssell, J. A. Montgomery, Jr., J. E. Peralta, 
 F. Ogliaro, M. J. Bearpark, J. J. Heyd, E. N. Brothers, K. N. Kudin, 
 V. N. Staroverov, T. A. Keith, R. Kobayashi, J. Normand, 
 K. Raghavachari, A. P. Rendell, J. C. Burant, S. S. Iyengar, 
 J. Tomasi, M. Cossi, J. M. Millam, M. Klene, C. Adamo, R. Cammi, 
 J. W. Ochterski, R. L. Martin, K. Morokuma, O. Farkas, 
 J. B. Foresman, and D. J. Fox, Gaussian, Inc., Wallingford CT, 2019.
 
 ******************************************
 Gaussian 16:  ES64L-G16RevC.01  3-Jul-2019
                 5-Apr-2025 
 ******************************************
 %nprocs=16
 Will use up to   16 processors via shared memory.
 %mem=30GB
 %chk=1-butanamine.chk
 ----------------------------------------------------------------------
 #t hf aug-cc-pvdz iop(5/13=1,5/36=2,99/5=2) pseudo=read geom=check gue
 ss=(read,tcheck) scf=(maxcycle=1)
 ----------------------------------------------------------------------
 -----
 title
 -----
 Structure from the checkpoint file:  "1-butanamine.chk"
 Charge =  0 Multiplicity = 1
 Z-Matrix found in chk file.
 C,0,2.533757,-0.30622,-0.014186
 C,0,1.251222,0.522342,0.039823
 C,0,-0.016716,-0.327791,-0.039403
 C,0,-1.300133,0.493422,0.01585
 N,0,-2.480785,-0.370083,-0.090337
 H,0,3.420315,0.326593,0.045198
 H,0,2.57819,-1.017755,0.812928
 H,0,2.5949,-0.87728,-0.942685
 H,0,1.237543,1.111057,0.961985
 H,0,1.251521,1.245452,-0.781337
 H,0,-0.017096,-0.915524,-0.961024
 H,0,-0.0189,-1.049862,0.78514
 H,0,-1.293033,1.109193,0.926922
 H,0,-1.321845,1.185998,-0.82922
 H,0,-3.332664,0.176428,-0.103509
 H,0,-2.542214,-0.994236,0.705456
 Recover connectivity data from disk.
                    Distance matrix (angstroms):
                    1          2          3          4          5
     1  C    0.000000
     2  C    1.527851   0.000000
     3  C    2.550689   1.528617   0.000000
     4  C    3.916509   2.551632   1.524665   0.000000
     5  N    5.015527   3.839432   2.464958   1.466580   0.000000
     6  H    1.090855   2.177914   3.499794   4.723486   5.943628
     7  H    1.091959   2.174956   2.817101   4.237969   5.179633
     8  H    1.091768   2.174795   2.817516   4.238973   5.171685
     9  H    2.154473   1.094146   2.155511   2.777849   4.138493
    10  H    2.154144   1.094163   2.152669   2.777048   4.125232
    11  H    2.788298   2.162819   1.093076   2.141400   2.669338
    12  H    2.776325   2.154190   1.096021   2.148276   2.699896
    13  H    4.187290   2.757639   2.151207   1.099671   2.152633
    14  H    4.213865   2.795773   2.149123   1.092829   2.076169
    15  H    5.886920   4.599153   3.354677   2.060562   1.012198
    16  H    5.172691   4.139231   2.716082   2.057048   1.013226
                    6          7          8          9         10
     6  H    0.000000
     7  H    1.762344   0.000000
     8  H    1.762536   1.761303   0.000000
     9  H    2.494068   2.520197   3.069800   0.000000
    10  H    2.496223   3.069827   2.517279   1.748551   0.000000
    11  H    3.790928   3.145293   2.612340   3.062534   2.512269
    12  H    3.777611   2.597437   3.138011   2.505892   3.055534
    13  H    4.858554   4.418514   4.749477   2.530820   3.067812
    14  H    4.898088   4.771106   4.428418   3.124820   2.574498
    15  H    6.756285   6.099518   6.078695   4.784935   4.755735
    16  H    6.142661   5.121586   5.396294   4.334124   4.649643
                   11         12         13         14         15
    11  H    0.000000
    12  H    1.751325   0.000000
    13  H    3.048251   2.510983   0.000000
    14  H    2.477123   3.050065   1.758057   0.000000
    15  H    3.594535   3.643421   2.468184   2.364166   0.000000
    16  H    3.026478   2.525185   2.456403   2.932226   1.627787
                   16
    16  H    0.000000
 Framework group  C1[X(C4H11N)]
 Deg. of freedom    42
                         Standard orientation:                         
 ---------------------------------------------------------------------
 Center     Atomic      Atomic             Coordinates (Angstroms)
 Number     Number       Type             X           Y           Z
 ---------------------------------------------------------------------
      1          6           0        2.533757   -0.306220   -0.014186
      2          6           0        1.251222    0.522342    0.039823
      3          6           0       -0.016716   -0.327791   -0.039403
      4          6           0       -1.300133    0.493422    0.015850
      5          7           0       -2.480785   -0.370083   -0.090337
      6          1           0        3.420315    0.326593    0.045198
      7          1           0        2.578190   -1.017755    0.812928
      8          1           0        2.594900   -0.877280   -0.942685
      9          1           0        1.237543    1.111057    0.961985
     10          1           0        1.251521    1.245452   -0.781337
     11          1           0       -0.017096   -0.915524   -0.961024
     12          1           0       -0.018900   -1.049862    0.785140
     13          1           0       -1.293033    1.109193    0.926922
     14          1           0       -1.321845    1.185998   -0.829220
     15          1           0       -3.332664    0.176428   -0.103509
     16          1           0       -2.542214   -0.994236    0.705456
 ---------------------------------------------------------------------
 Rotational constants (GHZ):          18.2019332           1.9539893           1.8533551
 ======================================================================================================
                                       Pseudopotential Parameters
 ======================================================================================================
  Center     Atomic      Valence      Angular      Power
  Number     Number     Electrons     Momentum     of R      Exponent        Coefficient   SO-Coeffient
 ======================================================================================================
    1          6            6
                                      G and up 
                                                     0        0.0000010       -0.00011185    0.00000000
                                                     2        0.1200000       -0.02301220    0.00000000
                                                     2        0.1400000        0.13317600    0.00000000
                                                     2        0.1600000       -0.19690668    0.00000000
                                                     2        0.2200000        0.23163694    0.00000000
                                                     2        0.3000000       -0.36920489    0.00000000
                                                     2        0.4000000        0.36389709    0.00000000
                                                     2        0.7000000       -0.38862160    0.00000000
                                                     2        1.3000000        0.80803421    0.00000000
                                      S - G
                                                     0        0.0000010        0.00312304    0.00000000
                                                     2        0.1200000       -0.00632892    0.00000000
                                                     2        0.2200000       -0.03780897    0.00000000
                                                     2        0.4000000        0.26269560    0.00000000
                                                     2        0.9000000       -0.28209514    0.00000000
                                                     2        1.5000000       -0.72686737    0.00000000
                                      P - G
                                                     0        0.0000010       -0.01465594    0.00000000
                                                     2        0.1200000        0.07908409    0.00000000
                                                     2        0.1800000       -0.30615861    0.00000000
                                                     2        0.2600000        0.41506950    0.00000000
                                                     2        0.5000000       -0.36252345    0.00000000
                                                     2        0.9000000        0.15124193    0.00000000
                                                     2        3.0000000       -0.80425677    0.00000000
                                      D - G
                                                     0        0.0000010        0.01149631    0.00000000
                                                     2        0.1200000       -0.04713561    0.00000000
                                                     2        0.1600000        0.10865096    0.00000000
                                                     2        0.2800000       -0.15816701    0.00000000
                                                     2        0.7000000        0.65478804    0.00000000
                                                     2        1.3000000       -1.73816624    0.00000000
                                      F - G
                                                     0        0.0000010        0.00481868    0.00000000
                                                     2        0.1200000       -0.04746842    0.00000000
                                                     2        0.1600000        0.09327889    0.00000000
                                                     2        0.4000000       -0.19693326    0.00000000
                                                     2        0.9000000        0.34938253    0.00000000
    2          6            6
                                      G and up 
                                                     0        0.0000010       -0.00011185    0.00000000
                                                     2        0.1200000       -0.02301220    0.00000000
                                                     2        0.1400000        0.13317600    0.00000000
                                                     2        0.1600000       -0.19690668    0.00000000
                                                     2        0.2200000        0.23163694    0.00000000
                                                     2        0.3000000       -0.36920489    0.00000000
                                                     2        0.4000000        0.36389709    0.00000000
                                                     2        0.7000000       -0.38862160    0.00000000
                                                     2        1.3000000        0.80803421    0.00000000
                                      S - G
                                                     0        0.0000010        0.00312304    0.00000000
                                                     2        0.1200000       -0.00632892    0.00000000
                                                     2        0.2200000       -0.03780897    0.00000000
                                                     2        0.4000000        0.26269560    0.00000000
                                                     2        0.9000000       -0.28209514    0.00000000
                                                     2        1.5000000       -0.72686737    0.00000000
                                      P - G
                                                     0        0.0000010       -0.01465594    0.00000000
                                                     2        0.1200000        0.07908409    0.00000000
                                                     2        0.1800000       -0.30615861    0.00000000
                                                     2        0.2600000        0.41506950    0.00000000
                                                     2        0.5000000       -0.36252345    0.00000000
                                                     2        0.9000000        0.15124193    0.00000000
                                                     2        3.0000000       -0.80425677    0.00000000
                                      D - G
                                                     0        0.0000010        0.01149631    0.00000000
                                                     2        0.1200000       -0.04713561    0.00000000
                                                     2        0.1600000        0.10865096    0.00000000
                                                     2        0.2800000       -0.15816701    0.00000000
                                                     2        0.7000000        0.65478804    0.00000000
                                                     2        1.3000000       -1.73816624    0.00000000
                                      F - G
                                                     0        0.0000010        0.00481868    0.00000000
                                                     2        0.1200000       -0.04746842    0.00000000
                                                     2        0.1600000        0.09327889    0.00000000
                                                     2        0.4000000       -0.19693326    0.00000000
                                                     2        0.9000000        0.34938253    0.00000000
    3          6            6
                                      G and up 
                                                     0        0.0000010       -0.00011185    0.00000000
                                                     2        0.1200000       -0.02301220    0.00000000
                                                     2        0.1400000        0.13317600    0.00000000
                                                     2        0.1600000       -0.19690668    0.00000000
                                                     2        0.2200000        0.23163694    0.00000000
                                                     2        0.3000000       -0.36920489    0.00000000
                                                     2        0.4000000        0.36389709    0.00000000
                                                     2        0.7000000       -0.38862160    0.00000000
                                                     2        1.3000000        0.80803421    0.00000000
                                      S - G
                                                     0        0.0000010        0.00312304    0.00000000
                                                     2        0.1200000       -0.00632892    0.00000000
                                                     2        0.2200000       -0.03780897    0.00000000
                                                     2        0.4000000        0.26269560    0.00000000
                                                     2        0.9000000       -0.28209514    0.00000000
                                                     2        1.5000000       -0.72686737    0.00000000
                                      P - G
                                                     0        0.0000010       -0.01465594    0.00000000
                                                     2        0.1200000        0.07908409    0.00000000
                                                     2        0.1800000       -0.30615861    0.00000000
                                                     2        0.2600000        0.41506950    0.00000000
                                                     2        0.5000000       -0.36252345    0.00000000
                                                     2        0.9000000        0.15124193    0.00000000
                                                     2        3.0000000       -0.80425677    0.00000000
                                      D - G
                                                     0        0.0000010        0.01149631    0.00000000
                                                     2        0.1200000       -0.04713561    0.00000000
                                                     2        0.1600000        0.10865096    0.00000000
                                                     2        0.2800000       -0.15816701    0.00000000
                                                     2        0.7000000        0.65478804    0.00000000
                                                     2        1.3000000       -1.73816624    0.00000000
                                      F - G
                                                     0        0.0000010        0.00481868    0.00000000
                                                     2        0.1200000       -0.04746842    0.00000000
                                                     2        0.1600000        0.09327889    0.00000000
                                                     2        0.4000000       -0.19693326    0.00000000
                                                     2        0.9000000        0.34938253    0.00000000
    4          6            6
                                      G and up 
                                                     0        0.0000010       -0.00011185    0.00000000
                                                     2        0.1200000       -0.02301220    0.00000000
                                                     2        0.1400000        0.13317600    0.00000000
                                                     2        0.1600000       -0.19690668    0.00000000
                                                     2        0.2200000        0.23163694    0.00000000
                                                     2        0.3000000       -0.36920489    0.00000000
                                                     2        0.4000000        0.36389709    0.00000000
                                                     2        0.7000000       -0.38862160    0.00000000
                                                     2        1.3000000        0.80803421    0.00000000
                                      S - G
                                                     0        0.0000010        0.00312304    0.00000000
                                                     2        0.1200000       -0.00632892    0.00000000
                                                     2        0.2200000       -0.03780897    0.00000000
                                                     2        0.4000000        0.26269560    0.00000000
                                                     2        0.9000000       -0.28209514    0.00000000
                                                     2        1.5000000       -0.72686737    0.00000000
                                      P - G
                                                     0        0.0000010       -0.01465594    0.00000000
                                                     2        0.1200000        0.07908409    0.00000000
                                                     2        0.1800000       -0.30615861    0.00000000
                                                     2        0.2600000        0.41506950    0.00000000
                                                     2        0.5000000       -0.36252345    0.00000000
                                                     2        0.9000000        0.15124193    0.00000000
                                                     2        3.0000000       -0.80425677    0.00000000
                                      D - G
                                                     0        0.0000010        0.01149631    0.00000000
                                                     2        0.1200000       -0.04713561    0.00000000
                                                     2        0.1600000        0.10865096    0.00000000
                                                     2        0.2800000       -0.15816701    0.00000000
                                                     2        0.7000000        0.65478804    0.00000000
                                                     2        1.3000000       -1.73816624    0.00000000
                                      F - G
                                                     0        0.0000010        0.00481868    0.00000000
                                                     2        0.1200000       -0.04746842    0.00000000
                                                     2        0.1600000        0.09327889    0.00000000
                                                     2        0.4000000       -0.19693326    0.00000000
                                                     2        0.9000000        0.34938253    0.00000000
    5          7            7
                                      G and up 
                                                     0        0.0000010       -0.00000022    0.00000000
                                                     2        0.1200000       -0.00992020    0.00000000
                                                     2        0.1400000        0.02578711    0.00000000
                                                     2        0.2200000       -0.10543517    0.00000000
                                                     2        0.3000000        0.23013665    0.00000000
                                                     2        0.5000000       -0.60834094    0.00000000
                                                     2        0.8000000        1.81436815    0.00000000
                                                     2        1.2000000       -3.87539738    0.00000000
                                                     2        2.0000000        2.94656640    0.00000000
                                      S - G
                                                     0        0.0000010       -0.00223566    0.00000000
                                                     2        0.1200000        0.45247937    0.00000000
                                                     2        0.1600000       -0.78978304    0.00000000
                                                     2        0.4000000        0.84956595    0.00000000
                                                     2        3.0000000       -0.75910174    0.00000000
                                      P - G
                                                     0        0.0000010       -0.25576737    0.00000000
                                                     2        0.1200000       -0.19992277    0.00000000
                                                     2        0.1600000        0.88518512    0.00000000
                                                     2        0.2400000       -1.33293917    0.00000000
                                                     2        0.4000000        1.33451776    0.00000000
                                                     2        0.9000000       -0.55709210    0.00000000
                                                     2        2.5000000        2.48506502    0.00000000
                                      D - G
                                                     0        0.0000010        0.26143746    0.00000000
                                                     2        0.1200000       -0.04492212    0.00000000
                                                     2        0.1400000       -0.18274021    0.00000000
                                                     2        0.2400000        0.53490004    0.00000000
                                                     2        0.4000000       -0.74136473    0.00000000
                                                     2        1.3000000        1.71401021    0.00000000
                                      F - G
                                                     0        0.0000010       -0.07169988    0.00000000
                                                     2        0.1200000        0.04480029    0.00000000
                                                     2        0.2600000       -0.08050831    0.00000000
                                                     2        0.5000000        0.31290809    0.00000000
                                                     2        1.0000000       -0.45253098    0.00000000
    6          1            1
                                      F and up 
                                                     0        0.0000010       -0.00000699    0.00000000
                                                     2        0.1200000        0.00123686    0.00000000
                                                     2        0.1800000       -0.00752022    0.00000000
                                                     2        0.2600000        0.02503380    0.00000000
                                                     2        0.4000000       -0.08702670    0.00000000
                                                     2        0.6000000        0.30134159    0.00000000
                                                     2        0.8000000       -0.50204959    0.00000000
                                                     2        1.2000000        0.52208372    0.00000000
                                      S - F
                                                     0        0.0000010       -0.01618346    0.00000000
                                                     2        0.1200000       -0.07880581    0.00000000
                                                     2        0.1600000        0.32040539    0.00000000
                                                     2        0.2400000       -0.47500956    0.00000000
                                                     2        0.5000000        0.54013668    0.00000000
                                                     2        1.5000000       -1.40434292    0.00000000
                                                     2        3.0000000        1.46283806    0.00000000
                                      P - F
                                                     0        0.0000010        0.00612970    0.00000000
                                                     2        0.1200000        0.02254406    0.00000000
                                                     2        0.1800000       -0.13874529    0.00000000
                                                     2        0.3000000        0.38299049    0.00000000
                                                     2        0.5000000       -0.57923512    0.00000000
                                                     2        1.0000000        0.63021625    0.00000000
                                                     2        2.0000000       -0.79201034    0.00000000
                                      D - F
                                                     0        0.0000010       -0.00296226    0.00000000
                                                     2        0.1200000       -0.00547344    0.00000000
                                                     2        0.1400000        0.01837884    0.00000000
                                                     2        0.2400000       -0.05565704    0.00000000
                                                     2        0.4000000        0.15376597    0.00000000
                                                     2        0.8000000       -0.32464795    0.00000000
    7          1            1
                                      F and up 
                                                     0        0.0000010       -0.00000699    0.00000000
                                                     2        0.1200000        0.00123686    0.00000000
                                                     2        0.1800000       -0.00752022    0.00000000
                                                     2        0.2600000        0.02503380    0.00000000
                                                     2        0.4000000       -0.08702670    0.00000000
                                                     2        0.6000000        0.30134159    0.00000000
                                                     2        0.8000000       -0.50204959    0.00000000
                                                     2        1.2000000        0.52208372    0.00000000
                                      S - F
                                                     0        0.0000010       -0.01618346    0.00000000
                                                     2        0.1200000       -0.07880581    0.00000000
                                                     2        0.1600000        0.32040539    0.00000000
                                                     2        0.2400000       -0.47500956    0.00000000
                                                     2        0.5000000        0.54013668    0.00000000
                                                     2        1.5000000       -1.40434292    0.00000000
                                                     2        3.0000000        1.46283806    0.00000000
                                      P - F
                                                     0        0.0000010        0.00612970    0.00000000
                                                     2        0.1200000        0.02254406    0.00000000
                                                     2        0.1800000       -0.13874529    0.00000000
                                                     2        0.3000000        0.38299049    0.00000000
                                                     2        0.5000000       -0.57923512    0.00000000
                                                     2        1.0000000        0.63021625    0.00000000
                                                     2        2.0000000       -0.79201034    0.00000000
                                      D - F
                                                     0        0.0000010       -0.00296226    0.00000000
                                                     2        0.1200000       -0.00547344    0.00000000
                                                     2        0.1400000        0.01837884    0.00000000
                                                     2        0.2400000       -0.05565704    0.00000000
                                                     2        0.4000000        0.15376597    0.00000000
                                                     2        0.8000000       -0.32464795    0.00000000
    8          1            1
                                      F and up 
                                                     0        0.0000010       -0.00000699    0.00000000
                                                     2        0.1200000        0.00123686    0.00000000
                                                     2        0.1800000       -0.00752022    0.00000000
                                                     2        0.2600000        0.02503380    0.00000000
                                                     2        0.4000000       -0.08702670    0.00000000
                                                     2        0.6000000        0.30134159    0.00000000
                                                     2        0.8000000       -0.50204959    0.00000000
                                                     2        1.2000000        0.52208372    0.00000000
                                      S - F
                                                     0        0.0000010       -0.01618346    0.00000000
                                                     2        0.1200000       -0.07880581    0.00000000
                                                     2        0.1600000        0.32040539    0.00000000
                                                     2        0.2400000       -0.47500956    0.00000000
                                                     2        0.5000000        0.54013668    0.00000000
                                                     2        1.5000000       -1.40434292    0.00000000
                                                     2        3.0000000        1.46283806    0.00000000
                                      P - F
                                                     0        0.0000010        0.00612970    0.00000000
                                                     2        0.1200000        0.02254406    0.00000000
                                                     2        0.1800000       -0.13874529    0.00000000
                                                     2        0.3000000        0.38299049    0.00000000
                                                     2        0.5000000       -0.57923512    0.00000000
                                                     2        1.0000000        0.63021625    0.00000000
                                                     2        2.0000000       -0.79201034    0.00000000
                                      D - F
                                                     0        0.0000010       -0.00296226    0.00000000
                                                     2        0.1200000       -0.00547344    0.00000000
                                                     2        0.1400000        0.01837884    0.00000000
                                                     2        0.2400000       -0.05565704    0.00000000
                                                     2        0.4000000        0.15376597    0.00000000
                                                     2        0.8000000       -0.32464795    0.00000000
    9          1            1
                                      F and up 
                                                     0        0.0000010       -0.00000699    0.00000000
                                                     2        0.1200000        0.00123686    0.00000000
                                                     2        0.1800000       -0.00752022    0.00000000
                                                     2        0.2600000        0.02503380    0.00000000
                                                     2        0.4000000       -0.08702670    0.00000000
                                                     2        0.6000000        0.30134159    0.00000000
                                                     2        0.8000000       -0.50204959    0.00000000
                                                     2        1.2000000        0.52208372    0.00000000
                                      S - F
                                                     0        0.0000010       -0.01618346    0.00000000
                                                     2        0.1200000       -0.07880581    0.00000000
                                                     2        0.1600000        0.32040539    0.00000000
                                                     2        0.2400000       -0.47500956    0.00000000
                                                     2        0.5000000        0.54013668    0.00000000
                                                     2        1.5000000       -1.40434292    0.00000000
                                                     2        3.0000000        1.46283806    0.00000000
                                      P - F
                                                     0        0.0000010        0.00612970    0.00000000
                                                     2        0.1200000        0.02254406    0.00000000
                                                     2        0.1800000       -0.13874529    0.00000000
                                                     2        0.3000000        0.38299049    0.00000000
                                                     2        0.5000000       -0.57923512    0.00000000
                                                     2        1.0000000        0.63021625    0.00000000
                                                     2        2.0000000       -0.79201034    0.00000000
                                      D - F
                                                     0        0.0000010       -0.00296226    0.00000000
                                                     2        0.1200000       -0.00547344    0.00000000
                                                     2        0.1400000        0.01837884    0.00000000
                                                     2        0.2400000       -0.05565704    0.00000000
                                                     2        0.4000000        0.15376597    0.00000000
                                                     2        0.8000000       -0.32464795    0.00000000
   10          1            1
                                      F and up 
                                                     0        0.0000010       -0.00000699    0.00000000
                                                     2        0.1200000        0.00123686    0.00000000
                                                     2        0.1800000       -0.00752022    0.00000000
                                                     2        0.2600000        0.02503380    0.00000000
                                                     2        0.4000000       -0.08702670    0.00000000
                                                     2        0.6000000        0.30134159    0.00000000
                                                     2        0.8000000       -0.50204959    0.00000000
                                                     2        1.2000000        0.52208372    0.00000000
                                      S - F
                                                     0        0.0000010       -0.01618346    0.00000000
                                                     2        0.1200000       -0.07880581    0.00000000
                                                     2        0.1600000        0.32040539    0.00000000
                                                     2        0.2400000       -0.47500956    0.00000000
                                                     2        0.5000000        0.54013668    0.00000000
                                                     2        1.5000000       -1.40434292    0.00000000
                                                     2        3.0000000        1.46283806    0.00000000
                                      P - F
                                                     0        0.0000010        0.00612970    0.00000000
                                                     2        0.1200000        0.02254406    0.00000000
                                                     2        0.1800000       -0.13874529    0.00000000
                                                     2        0.3000000        0.38299049    0.00000000
                                                     2        0.5000000       -0.57923512    0.00000000
                                                     2        1.0000000        0.63021625    0.00000000
                                                     2        2.0000000       -0.79201034    0.00000000
                                      D - F
                                                     0        0.0000010       -0.00296226    0.00000000
                                                     2        0.1200000       -0.00547344    0.00000000
                                                     2        0.1400000        0.01837884    0.00000000
                                                     2        0.2400000       -0.05565704    0.00000000
                                                     2        0.4000000        0.15376597    0.00000000
                                                     2        0.8000000       -0.32464795    0.00000000
   11          1            1
                                      F and up 
                                                     0        0.0000010       -0.00000699    0.00000000
                                                     2        0.1200000        0.00123686    0.00000000
                                                     2        0.1800000       -0.00752022    0.00000000
                                                     2        0.2600000        0.02503380    0.00000000
                                                     2        0.4000000       -0.08702670    0.00000000
                                                     2        0.6000000        0.30134159    0.00000000
                                                     2        0.8000000       -0.50204959    0.00000000
                                                     2        1.2000000        0.52208372    0.00000000
                                      S - F
                                                     0        0.0000010       -0.01618346    0.00000000
                                                     2        0.1200000       -0.07880581    0.00000000
                                                     2        0.1600000        0.32040539    0.00000000
                                                     2        0.2400000       -0.47500956    0.00000000
                                                     2        0.5000000        0.54013668    0.00000000
                                                     2        1.5000000       -1.40434292    0.00000000
                                                     2        3.0000000        1.46283806    0.00000000
                                      P - F
                                                     0        0.0000010        0.00612970    0.00000000
                                                     2        0.1200000        0.02254406    0.00000000
                                                     2        0.1800000       -0.13874529    0.00000000
                                                     2        0.3000000        0.38299049    0.00000000
                                                     2        0.5000000       -0.57923512    0.00000000
                                                     2        1.0000000        0.63021625    0.00000000
                                                     2        2.0000000       -0.79201034    0.00000000
                                      D - F
                                                     0        0.0000010       -0.00296226    0.00000000
                                                     2        0.1200000       -0.00547344    0.00000000
                                                     2        0.1400000        0.01837884    0.00000000
                                                     2        0.2400000       -0.05565704    0.00000000
                                                     2        0.4000000        0.15376597    0.00000000
                                                     2        0.8000000       -0.32464795    0.00000000
   12          1            1
                                      F and up 
                                                     0        0.0000010       -0.00000699    0.00000000
                                                     2        0.1200000        0.00123686    0.00000000
                                                     2        0.1800000       -0.00752022    0.00000000
                                                     2        0.2600000        0.02503380    0.00000000
                                                     2        0.4000000       -0.08702670    0.00000000
                                                     2        0.6000000        0.30134159    0.00000000
                                                     2        0.8000000       -0.50204959    0.00000000
                                                     2        1.2000000        0.52208372    0.00000000
                                      S - F
                                                     0        0.0000010       -0.01618346    0.00000000
                                                     2        0.1200000       -0.07880581    0.00000000
                                                     2        0.1600000        0.32040539    0.00000000
                                                     2        0.2400000       -0.47500956    0.00000000
                                                     2        0.5000000        0.54013668    0.00000000
                                                     2        1.5000000       -1.40434292    0.00000000
                                                     2        3.0000000        1.46283806    0.00000000
                                      P - F
                                                     0        0.0000010        0.00612970    0.00000000
                                                     2        0.1200000        0.02254406    0.00000000
                                                     2        0.1800000       -0.13874529    0.00000000
                                                     2        0.3000000        0.38299049    0.00000000
                                                     2        0.5000000       -0.57923512    0.00000000
                                                     2        1.0000000        0.63021625    0.00000000
                                                     2        2.0000000       -0.79201034    0.00000000
                                      D - F
                                                     0        0.0000010       -0.00296226    0.00000000
                                                     2        0.1200000       -0.00547344    0.00000000
                                                     2        0.1400000        0.01837884    0.00000000
                                                     2        0.2400000       -0.05565704    0.00000000
                                                     2        0.4000000        0.15376597    0.00000000
                                                     2        0.8000000       -0.32464795    0.00000000
   13          1            1
                                      F and up 
                                                     0        0.0000010       -0.00000699    0.00000000
                                                     2        0.1200000        0.00123686    0.00000000
                                                     2        0.1800000       -0.00752022    0.00000000
                                                     2        0.2600000        0.02503380    0.00000000
                                                     2        0.4000000       -0.08702670    0.00000000
                                                     2        0.6000000        0.30134159    0.00000000
                                                     2        0.8000000       -0.50204959    0.00000000
                                                     2        1.2000000        0.52208372    0.00000000
                                      S - F
                                                     0        0.0000010       -0.01618346    0.00000000
                                                     2        0.1200000       -0.07880581    0.00000000
                                                     2        0.1600000        0.32040539    0.00000000
                                                     2        0.2400000       -0.47500956    0.00000000
                                                     2        0.5000000        0.54013668    0.00000000
                                                     2        1.5000000       -1.40434292    0.00000000
                                                     2        3.0000000        1.46283806    0.00000000
                                      P - F
                                                     0        0.0000010        0.00612970    0.00000000
                                                     2        0.1200000        0.02254406    0.00000000
                                                     2        0.1800000       -0.13874529    0.00000000
                                                     2        0.3000000        0.38299049    0.00000000
                                                     2        0.5000000       -0.57923512    0.00000000
                                                     2        1.0000000        0.63021625    0.00000000
                                                     2        2.0000000       -0.79201034    0.00000000
                                      D - F
                                                     0        0.0000010       -0.00296226    0.00000000
                                                     2        0.1200000       -0.00547344    0.00000000
                                                     2        0.1400000        0.01837884    0.00000000
                                                     2        0.2400000       -0.05565704    0.00000000
                                                     2        0.4000000        0.15376597    0.00000000
                                                     2        0.8000000       -0.32464795    0.00000000
   14          1            1
                                      F and up 
                                                     0        0.0000010       -0.00000699    0.00000000
                                                     2        0.1200000        0.00123686    0.00000000
                                                     2        0.1800000       -0.00752022    0.00000000
                                                     2        0.2600000        0.02503380    0.00000000
                                                     2        0.4000000       -0.08702670    0.00000000
                                                     2        0.6000000        0.30134159    0.00000000
                                                     2        0.8000000       -0.50204959    0.00000000
                                                     2        1.2000000        0.52208372    0.00000000
                                      S - F
                                                     0        0.0000010       -0.01618346    0.00000000
                                                     2        0.1200000       -0.07880581    0.00000000
                                                     2        0.1600000        0.32040539    0.00000000
                                                     2        0.2400000       -0.47500956    0.00000000
                                                     2        0.5000000        0.54013668    0.00000000
                                                     2        1.5000000       -1.40434292    0.00000000
                                                     2        3.0000000        1.46283806    0.00000000
                                      P - F
                                                     0        0.0000010        0.00612970    0.00000000
                                                     2        0.1200000        0.02254406    0.00000000
                                                     2        0.1800000       -0.13874529    0.00000000
                                                     2        0.3000000        0.38299049    0.00000000
                                                     2        0.5000000       -0.57923512    0.00000000
                                                     2        1.0000000        0.63021625    0.00000000
                                                     2        2.0000000       -0.79201034    0.00000000
                                      D - F
                                                     0        0.0000010       -0.00296226    0.00000000
                                                     2        0.1200000       -0.00547344    0.00000000
                                                     2        0.1400000        0.01837884    0.00000000
                                                     2        0.2400000       -0.05565704    0.00000000
                                                     2        0.4000000        0.15376597    0.00000000
                                                     2        0.8000000       -0.32464795    0.00000000
   15          1            1
                                      F and up 
                                                     0        0.0000010       -0.00000699    0.00000000
                                                     2        0.1200000        0.00123686    0.00000000
                                                     2        0.1800000       -0.00752022    0.00000000
                                                     2        0.2600000        0.02503380    0.00000000
                                                     2        0.4000000       -0.08702670    0.00000000
                                                     2        0.6000000        0.30134159    0.00000000
                                                     2        0.8000000       -0.50204959    0.00000000
                                                     2        1.2000000        0.52208372    0.00000000
                                      S - F
                                                     0        0.0000010       -0.01618346    0.00000000
                                                     2        0.1200000       -0.07880581    0.00000000
                                                     2        0.1600000        0.32040539    0.00000000
                                                     2        0.2400000       -0.47500956    0.00000000
                                                     2        0.5000000        0.54013668    0.00000000
                                                     2        1.5000000       -1.40434292    0.00000000
                                                     2        3.0000000        1.46283806    0.00000000
                                      P - F
                                                     0        0.0000010        0.00612970    0.00000000
                                                     2        0.1200000        0.02254406    0.00000000
                                                     2        0.1800000       -0.13874529    0.00000000
                                                     2        0.3000000        0.38299049    0.00000000
                                                     2        0.5000000       -0.57923512    0.00000000
                                                     2        1.0000000        0.63021625    0.00000000
                                                     2        2.0000000       -0.79201034    0.00000000
                                      D - F
                                                     0        0.0000010       -0.00296226    0.00000000
                                                     2        0.1200000       -0.00547344    0.00000000
                                                     2        0.1400000        0.01837884    0.00000000
                                                     2        0.2400000       -0.05565704    0.00000000
                                                     2        0.4000000        0.15376597    0.00000000
                                                     2        0.8000000       -0.32464795    0.00000000
   16          1            1
                                      F and up 
                                                     0        0.0000010       -0.00000699    0.00000000
                                                     2        0.1200000        0.00123686    0.00000000
                                                     2        0.1800000       -0.00752022    0.00000000
                                                     2        0.2600000        0.02503380    0.00000000
                                                     2        0.4000000       -0.08702670    0.00000000
                                                     2        0.6000000        0.30134159    0.00000000
                                                     2        0.8000000       -0.50204959    0.00000000
                                                     2        1.2000000        0.52208372    0.00000000
                                      S - F
                                                     0        0.0000010       -0.01618346    0.00000000
                                                     2        0.1200000       -0.07880581    0.00000000
                                                     2        0.1600000        0.32040539    0.00000000
                                                     2        0.2400000       -0.47500956    0.00000000
                                                     2        0.5000000        0.54013668    0.00000000
                                                     2        1.5000000       -1.40434292    0.00000000
                                                     2        3.0000000        1.46283806    0.00000000
                                      P - F
                                                     0        0.0000010        0.00612970    0.00000000
                                                     2        0.1200000        0.02254406    0.00000000
                                                     2        0.1800000       -0.13874529    0.00000000
                                                     2        0.3000000        0.38299049    0.00000000
                                                     2        0.5000000       -0.57923512    0.00000000
                                                     2        1.0000000        0.63021625    0.00000000
                                                     2        2.0000000       -0.79201034    0.00000000
                                      D - F
                                                     0        0.0000010       -0.00296226    0.00000000
                                                     2        0.1200000       -0.00547344    0.00000000
                                                     2        0.1400000        0.01837884    0.00000000
                                                     2        0.2400000       -0.05565704    0.00000000
                                                     2        0.4000000        0.15376597    0.00000000
                                                     2        0.8000000       -0.32464795    0.00000000
 ======================================================================================================
   214 basis functions,   336 primitive gaussians,   224 cartesian basis functions
    21 alpha electrons       21 beta electrons
       nuclear repulsion energy       185.6333152294 Hartrees.
 NAtoms=   16 NActive=   16 NUniq=   16 SFac= 1.00D+00 NAtFMM=   60 NAOKFM=F Big=F
   1 Symmetry operations used in ECPInt.
 ECPInt:  NShTT=    5050 NPrTT=   18786 LenC2=    5041 LenP2D=   15741.
 LDataN:  DoStor=T MaxTD1= 6 Len=  172
 Initial guess from the checkpoint file:  "1-butanamine.chk"
 B after Tr=    -0.000000   -0.000000    0.000000
         Rot=    1.000000    0.000000   -0.000000    0.000000 Ang=   0.00 deg.
 >>>>>>>>>> Convergence criterion not met.
 SCF Done:  E(RHF) =  -212.418670703     A.U. after    2 cycles
            NFock=  1  Conv=0.41D-02     -V/T= 2.0021

 **********************************************************************

            Population analysis using the SCF Density.

 **********************************************************************

 Orbital symmetries:
       Occupied  (A) (A) (A) (A) (A) (A) (A) (A) (A) (A) (A) (A)
                 (A) (A) (A) (A) (A) (A) (A) (A) (A)
       Virtual   (A) (A) (A) (A) (A) (A) (A) (A) (A) (A) (A) (A)
                 (A) (A) (A) (A) (A) (A) (A) (A) (A) (A) (A) (A)
                 (A) (A) (A) (A) (A) (A) (A) (A) (A) (A) (A) (A)
                 (A) (A) (A) (A) (A) (A) (A) (A) (A) (A) (A) (A)
                 (A) (A) (A) (A) (A) (A) (A) (A) (A) (A) (A) (A)
                 (A) (A) (A) (A) (A) (A) (A) (A) (A) (A) (A) (A)
                 (A) (A) (A) (A) (A) (A) (A) (A) (A) (A) (A) (A)
                 (A) (A) (A) (A) (A) (A) (A) (A) (A) (A) (A) (A)
                 (A) (A) (A) (A) (A) (A) (A) (A) (A) (A) (A) (A)
                 (A) (A) (A) (A) (A) (A) (A) (A) (A) (A) (A) (A)
                 (A) (A) (A) (A) (A) (A) (A) (A) (A) (A) (A) (A)
                 (A) (A) (A) (A) (A) (A) (A) (A) (A) (A) (A) (A)
                 (A) (A) (A) (A) (A) (A) (A) (A) (A) (A) (A) (A)
                 (A) (A) (A) (A) (A) (A) (A) (A) (A) (A) (A) (A)
                 (A) (A) (A) (A) (A) (A) (A) (A) (A) (A) (A) (A)
                 (A) (A) (A) (A) (A) (A) (A) (A) (A) (A) (A) (A)
                 (A)
 The electronic state is 1-A.
 Alpha  occ. eigenvalues --  -15.60123 -11.25361 -11.22595 -11.22133 -11.22019
 Alpha  occ. eigenvalues --   -1.14436  -1.04996  -0.95250  -0.84047  -0.79102
 Alpha  occ. eigenvalues --   -0.66293  -0.63745  -0.60567  -0.57739  -0.56576
 Alpha  occ. eigenvalues --   -0.52696  -0.50125  -0.47275  -0.46769  -0.46492
 Alpha  occ. eigenvalues --   -0.38082
 Alpha virt. eigenvalues --    0.03544   0.04132   0.04440   0.05029   0.06234
 Alpha virt. eigenvalues --    0.06572   0.06936   0.07605   0.09236   0.09828
 Alpha virt. eigenvalues --    0.10257   0.11434   0.13597   0.15337   0.15555
 Alpha virt. eigenvalues --    0.16574   0.16784   0.17103   0.17793   0.18084
 Alpha virt. eigenvalues --    0.19103   0.19460   0.20811   0.21306   0.21871
 Alpha virt. eigenvalues --    0.22888   0.23660   0.24538   0.25529   0.26033
 Alpha virt. eigenvalues --    0.29137   0.30322   0.31349   0.31901   0.33489
 Alpha virt. eigenvalues --    0.34271   0.35463   0.36431   0.37690   0.38714
 Alpha virt. eigenvalues --    0.39793   0.40177   0.41848   0.42930   0.44262
 Alpha virt. eigenvalues --    0.45336   0.46746   0.46835   0.47792   0.48306
 Alpha virt. eigenvalues --    0.48544   0.49324   0.49681   0.50056   0.51597
 Alpha virt. eigenvalues --    0.52037   0.52958   0.53597   0.55537   0.56219
 Alpha virt. eigenvalues --    0.56568   0.57475   0.58481   0.59097   0.59374
 Alpha virt. eigenvalues --    0.61773   0.61998   0.63517   0.64105   0.65074
 Alpha virt. eigenvalues --    0.65581   0.66088   0.67867   0.68870   0.69427
 Alpha virt. eigenvalues --    0.70158   0.72302   0.73004   0.74289   0.75042
 Alpha virt. eigenvalues --    0.76312   0.76979   0.78447   0.80082   0.81115
 Alpha virt. eigenvalues --    0.81924   0.83180   0.83380   0.84474   0.86158
 Alpha virt. eigenvalues --    0.87574   0.87925   0.90298   0.91205   0.92942
 Alpha virt. eigenvalues --    0.94209   0.96571   0.97172   1.00420   1.00682
 Alpha virt. eigenvalues --    1.02620   1.05795   1.11299   1.13176   1.13814
 Alpha virt. eigenvalues --    1.15402   1.15994   1.19921   1.20930   1.23504
 Alpha virt. eigenvalues --    1.26045   1.28231   1.30665   1.30895   1.34593
 Alpha virt. eigenvalues --    1.36834   1.43219   1.46896   1.52274   1.55731
 Alpha virt. eigenvalues --    1.57633   1.59123   1.59674   1.63350   1.67454
 Alpha virt. eigenvalues --    1.70098   1.72693   1.79066   1.82114   1.83126
 Alpha virt. eigenvalues --    1.85830   1.86589   1.87627   1.91484   1.94341
 Alpha virt. eigenvalues --    1.96034   1.99160   2.01957   2.05128   2.07992
 Alpha virt. eigenvalues --    2.09406   2.09813   2.10901   2.13493   2.13913
 Alpha virt. eigenvalues --    2.14832   2.16845   2.19909   2.22640   2.23560
 Alpha virt. eigenvalues --    2.26356   2.27655   2.30102   2.31021   2.32480
 Alpha virt. eigenvalues --    2.34419   2.35240   2.38615   2.41668   2.43929
 Alpha virt. eigenvalues --    2.44601   2.48296   2.50247   2.51076   2.55655
 Alpha virt. eigenvalues --    2.57363   2.63829   2.66904   2.67323   2.69411
 Alpha virt. eigenvalues --    2.70220   2.73085   2.75016   2.75982   2.81115
 Alpha virt. eigenvalues --    2.85848   2.88749   2.89700   2.93473   2.96492
 Alpha virt. eigenvalues --    2.99003   3.00585   3.07344   3.09429   3.11039
 Alpha virt. eigenvalues --    3.16762   3.21364   3.23172   3.28309   3.40480
 Alpha virt. eigenvalues --    3.47338   3.52753   3.81415
          Condensed to atoms (all electrons):
 Mulliken charges:
               1
     1  C    0.365099
     2  C    0.196363
     3  C    0.029841
     4  C    0.892692
     5  N   -0.351120
     6  H   -0.068416
     7  H   -0.077915
     8  H   -0.073799
     9  H   -0.132641
    10  H   -0.132142
    11  H   -0.111548
    12  H   -0.168422
    13  H   -0.148713
    14  H   -0.199901
    15  H   -0.029287
    16  H    0.009909
 Sum of Mulliken charges =  -0.00000
 Mulliken charges with hydrogens summed into heavy atoms:
               1
     1  C    0.144969
     2  C   -0.068420
     3  C   -0.250129
     4  C    0.544078
     5  N   -0.370498
 Electronic spatial extent (au):  <R**2>=            692.6323
 Charge=             -0.0000 electrons
 Dipole moment (field-independent basis, Debye):
    X=             -0.0981    Y=              0.7217    Z=              1.0773  Tot=              1.3004

 Test job not archived.
 1\1\GINC-SE012\SP\RHF\Aug-CC-pVDZ\C4H11N1\OHZDE\05-Apr-2025\0\\#t hf a
 ug-cc-pvdz iop(5/13=1,5/36=2,99/5=2) pseudo=read geom=check guess=(rea
 d,tcheck) scf=(maxcycle=1)\\title\\0,1\C,0,2.533757,-0.30622,-0.014186
 \C,0,1.251222,0.522342,0.039823\C,0,-0.016716,-0.327791,-0.039403\C,0,
 -1.300133,0.493422,0.01585\N,0,-2.480785,-0.370083,-0.090337\H,0,3.420
 315,0.326593,0.045198\H,0,2.57819,-1.017755,0.812928\H,0,2.5949,-0.877
 28,-0.942685\H,0,1.237543,1.111057,0.961985\H,0,1.251521,1.245452,-0.7
 81337\H,0,-0.017096,-0.915524,-0.961024\H,0,-0.0189,-1.049862,0.78514\
 H,0,-1.293033,1.109193,0.926922\H,0,-1.321845,1.185998,-0.82922\H,0,-3
 .332664,0.176428,-0.103509\H,0,-2.542214,-0.994236,0.705456\\Version=E
 S64L-G16RevC.01\State=1-A\HF=-212.4186707\RMSD=4.143e-03\Dipole=-0.038
 6087,0.28394,0.4238616\Quadrupole=0.7006151,-0.5412147,-0.1594003,-1.3
 200313,-2.2236,-1.4024707\PG=C01 [X(C4H11N1)]\\@


 WE'RE IN THE POSITION OF A VISITOR FROM ANOTHER
 DIMENSION WHO COMES TO EARTH AND SEES A CHESS MATCH.
 ASSUMING HE KNOWS IT'S A GAME, HE'S GOT TWO PROBLEMS:
 FIRST, FIGURE OUT THE RULES, AND SECOND, FIGURE OUT HOW TO WIN.
 NINETY PERCENT OF SCIENCE (INCLUDING VIRTUALLY ALL OF CHEMISRY)
 IS IN THAT SECOND CATEGORY.  THEY'RE TRYING TO APPLY
 THE LAWS THAT ARE ALREADY KNOWN.

                     -- SHELDON GLASHOW, 1979
 Job cpu time:       0 days  0 hours  0 minutes 51.9 seconds.
 Elapsed time:       0 days  0 hours  0 minutes  4.1 seconds.
 File lengths (MBytes):  RWF=     10 Int=      0 D2E=      0 Chk=      6 Scr=      1
 Normal termination of Gaussian 16 at Sat Apr  5 22:11:48 2025.
