 Entering Gaussian System, Link 0=g16
 Input=1-butyne.gjf
 Output=1-butyne.log
 Initial command:
 /arc/software/Gaussian/g16.c01/l1.exe "/tmp/slurm/4814286/Gau-3735086.inp" -scrdir="/tmp/slurm/4814286/"
 Entering Link 1 = /arc/software/Gaussian/g16.c01/l1.exe PID=   3735088.
  
 Copyright (c) 1988-2019, Gaussian, Inc.  All Rights Reserved.
  
 This is part of the Gaussian(R) 16 program.  It is based on
 the Gaussian(R) 09 system (copyright 2009, Gaussian, Inc.),
 the Gaussian(R) 03 system (copyright 2003, Gaussian, Inc.),
 the Gaussian(R) 98 system (copyright 1998, Gaussian, Inc.),
 the Gaussian(R) 94 system (copyright 1995, Gaussian, Inc.),
 the Gaussian 92(TM) system (copyright 1992, Gaussian, Inc.),
 the Gaussian 90(TM) system (copyright 1990, Gaussian, Inc.),
 the Gaussian 88(TM) system (copyright 1988, Gaussian, Inc.),
 the Gaussian 86(TM) system (copyright 1986, Carnegie Mellon
 University), and the Gaussian 82(TM) system (copyright 1983,
 Carnegie Mellon University). Gaussian is a federally registered
 trademark of Gaussian, Inc.
  
 This software contains proprietary and confidential information,
 including trade secrets, belonging to Gaussian, Inc.
  
 This software is provided under written license and may be
 used, copied, transmitted, or stored only in accord with that
 written license.
  
 The following legend is applicable only to US Government
 contracts under FAR:
  
                    RESTRICTED RIGHTS LEGEND
  
 Use, reproduction and disclosure by the US Government is
 subject to restrictions as set forth in subparagraphs (a)
 and (c) of the Commercial Computer Software - Restricted
 Rights clause in FAR 52.227-19.
  
 Gaussian, Inc.
 340 Quinnipiac St., Bldg. 40, Wallingford CT 06492
  
  
 ---------------------------------------------------------------
 Warning -- This program may not be used in any manner that
 competes with the business of Gaussian, Inc. or will provide
 assistance to any competitor of Gaussian, Inc.  The licensee
 of this program is prohibited from giving any competitor of
 Gaussian, Inc. access to this program.  By using this program,
 the user acknowledges that Gaussian, Inc. is engaged in the
 business of creating and licensing software in the field of
 computational chemistry and represents and warrants to the
 licensee that it is not a competitor of Gaussian, Inc. and that
 it will not use this program in any manner prohibited above.
 ---------------------------------------------------------------
  

 Cite this work as:
 Gaussian 16, Revision C.01,
 M. J. Frisch, G. W. Trucks, H. B. Schlegel, G. E. Scuseria, 
 M. A. Robb, J. R. Cheeseman, G. Scalmani, V. Barone, 
 G. A. Petersson, H. Nakatsuji, X. Li, M. Caricato, A. V. Marenich, 
 J. Bloino, B. G. Janesko, R. Gomperts, B. Mennucci, H. P. Hratchian, 
 J. V. Ortiz, A. F. Izmaylov, J. L. Sonnenberg, D. Williams-Young, 
 F. Ding, F. Lipparini, F. Egidi, J. Goings, B. Peng, A. Petrone, 
 T. Henderson, D. Ranasinghe, V. G. Zakrzewski, J. Gao, N. Rega, 
 G. Zheng, W. Liang, M. Hada, M. Ehara, K. Toyota, R. Fukuda, 
 J. Hasegawa, M. Ishida, T. Nakajima, Y. Honda, O. Kitao, H. Nakai, 
 T. Vreven, K. Throssell, J. A. Montgomery, Jr., J. E. Peralta, 
 F. Ogliaro, M. J. Bearpark, J. J. Heyd, E. N. Brothers, K. N. Kudin, 
 V. N. Staroverov, T. A. Keith, R. Kobayashi, J. Normand, 
 K. Raghavachari, A. P. Rendell, J. C. Burant, S. S. Iyengar, 
 J. Tomasi, M. Cossi, J. M. Millam, M. Klene, C. Adamo, R. Cammi, 
 J. W. Ochterski, R. L. Martin, K. Morokuma, O. Farkas, 
 J. B. Foresman, and D. J. Fox, Gaussian, Inc., Wallingford CT, 2019.
 
 ******************************************
 Gaussian 16:  ES64L-G16RevC.01  3-Jul-2019
                 5-Apr-2025 
 ******************************************
 %nprocs=16
 Will use up to   16 processors via shared memory.
 %mem=30GB
 %chk=1-butyne.chk
 ----------------------------------------------------------------------
 #t hf aug-cc-pvdz symm=none int=(grid=ultrafine) guess=(read,tcheck) s
 table=(opt,rrhf)
 ----------------------------------------------------------------------
 -----
 title
 -----
 Symbolic Z-matrix:
 Charge =  0 Multiplicity = 1
 C                     1.32876  -1.45927   0. 
 C                     0.73894  -0.41459   0. 
 C                    -1.5235    0.64978   0. 
 C                     0.        0.84319   0. 
 H                     1.85568  -2.37994   0. 
 H                    -1.84403   0.09539   0.88135 
 H                    -1.84403   0.09539  -0.88135 
 H                    -2.02734   1.61668   0. 
 H                     0.29728   1.42891   0.87396 
 H                     0.29728   1.42891  -0.87396 
 
                    Distance matrix (angstroms):
                    1          2          3          4          5
     1  C    0.000000
     2  C    1.199683   0.000000
     3  C    3.547320   2.500305   0.000000
     4  C    2.658368   1.458783   1.535727   0.000000
     5  H    1.060788   2.260461   4.538507   3.719151   0.000000
     6  H    3.641472   2.776436   1.089440   2.176337   4.537825
     7  H    3.641472   2.776436   1.089440   2.176337   4.537825
     8  H    4.552453   3.431960   1.090291   2.169882   5.572319
     9  H    3.188941   2.087432   2.164737   1.093276   4.207104
    10  H    3.188941   2.087432   2.164737   1.093276   4.207104
                    6          7          8          9         10
     6  H    0.000000
     7  H    1.762706   0.000000
     8  H    1.767684   1.767684   0.000000
     9  H    2.522609   3.073211   2.490567   0.000000
    10  H    3.073211   2.522609   2.490567   1.747922   0.000000
 Symmetry turned off by external request.
 Rotational constants (GHZ):          27.6858654           4.5286771           4.0875457
   146 basis functions,   238 primitive gaussians,   154 cartesian basis functions
    15 alpha electrons       15 beta electrons
       nuclear repulsion energy       102.9712070810 Hartrees.
 NAtoms=   10 NActive=   10 NUniq=   10 SFac= 1.00D+00 NAtFMM=   60 NAOKFM=F Big=F
 ExpMin= 2.97D-02 ExpMax= 6.67D+03 ExpMxC= 2.28D+02 IAcc=3 IRadAn=         5 AccDes= 0.00D+00
 Harris functional with IExCor=  205 and IRadAn=       5 diagonalized for initial guess.
 HarFok:  IExCor=  205 AccDes= 0.00D+00 IRadAn=         5 IDoV= 1 UseB2=F ITyADJ=14
 ICtDFT=  3500011 ScaDFX=  1.000000  1.000000  1.000000  1.000000
 FoFCou: FMM=F IPFlag=           0 FMFlag=      100000 FMFlg1=           0
         NFxFlg=           0 DoJE=T BraDBF=F KetDBF=T FulRan=T
         wScrn=  0.000000 ICntrl=       500 IOpCl=  0 I1Cent=   200000004 NGrid=           0
         NMat0=    1 NMatS0=      1 NMatT0=    0 NMatD0=    1 NMtDS0=    0 NMtDT0=    0
 Symmetry not used in FoFCou.
 SCF Done:  E(RHF) =  -154.917114444     A.U. after   13 cycles
            NFock= 13  Conv=0.66D-08     -V/T= 2.0010

 **********************************************************************

            Population analysis using the SCF Density.

 **********************************************************************

 Alpha  occ. eigenvalues --  -11.25908 -11.23909 -11.23259 -11.22594  -1.08231
 Alpha  occ. eigenvalues --   -0.99702  -0.87720  -0.71669  -0.64162  -0.62739
 Alpha  occ. eigenvalues --   -0.55152  -0.52410  -0.51409  -0.38379  -0.38306
 Alpha virt. eigenvalues --    0.03634   0.04093   0.05152   0.05313   0.06503
 Alpha virt. eigenvalues --    0.07716   0.10780   0.11755   0.12039   0.12356
 Alpha virt. eigenvalues --    0.14024   0.14756   0.15318   0.16204   0.17064
 Alpha virt. eigenvalues --    0.18469   0.18965   0.20048   0.20534   0.21893
 Alpha virt. eigenvalues --    0.23704   0.23955   0.27301   0.30009   0.30889
 Alpha virt. eigenvalues --    0.32486   0.32969   0.34864   0.36594   0.39452
 Alpha virt. eigenvalues --    0.39738   0.39999   0.41654   0.44354   0.44664
 Alpha virt. eigenvalues --    0.46675   0.47166   0.48037   0.48760   0.49530
 Alpha virt. eigenvalues --    0.51034   0.53564   0.54684   0.56110   0.56954
 Alpha virt. eigenvalues --    0.57632   0.58548   0.60949   0.62655   0.63578
 Alpha virt. eigenvalues --    0.64417   0.65452   0.66870   0.68368   0.70488
 Alpha virt. eigenvalues --    0.71002   0.71094   0.71961   0.75549   0.77239
 Alpha virt. eigenvalues --    0.80108   0.81459   0.81801   0.83734   0.87967
 Alpha virt. eigenvalues --    0.88249   0.89189   0.90171   0.90661   0.96155
 Alpha virt. eigenvalues --    1.02312   1.06158   1.06275   1.11381   1.14272
 Alpha virt. eigenvalues --    1.16915   1.22703   1.23227   1.28913   1.30250
 Alpha virt. eigenvalues --    1.32971   1.34908   1.40399   1.50230   1.50793
 Alpha virt. eigenvalues --    1.54169   1.60222   1.61697   1.63284   1.65966
 Alpha virt. eigenvalues --    1.71331   1.72559   1.76530   1.79098   1.82789
 Alpha virt. eigenvalues --    1.83224   1.90003   1.92166   1.93499   1.97052
 Alpha virt. eigenvalues --    1.97658   2.03173   2.11074   2.12055   2.13972
 Alpha virt. eigenvalues --    2.17846   2.21535   2.23279   2.27823   2.28345
 Alpha virt. eigenvalues --    2.35808   2.37095   2.42602   2.50312   2.51409
 Alpha virt. eigenvalues --    2.60564   2.61364   2.65013   2.66383   2.67805
 Alpha virt. eigenvalues --    2.77784   2.84638   2.87538   2.88283   2.97982
 Alpha virt. eigenvalues --    3.00322   3.06974   3.12072   3.17938   3.64409
 Alpha virt. eigenvalues --    4.17168
          Condensed to atoms (all electrons):
 Mulliken charges:
               1
     1  C    1.014425
     2  C   -0.570470
     3  C    0.360834
     4  C   -0.127667
     5  H   -0.530055
     6  H   -0.056863
     7  H   -0.056863
     8  H   -0.077868
     9  H    0.022264
    10  H    0.022264
 Sum of Mulliken charges =  -0.00000
 Mulliken charges with hydrogens summed into heavy atoms:
               1
     1  C    0.484370
     2  C   -0.570470
     3  C    0.169240
     4  C   -0.083139
 Electronic spatial extent (au):  <R**2>=            335.5660
 Charge=             -0.0000 electrons
 Dipole moment (field-independent basis, Debye):
    X=             -0.5037    Y=              0.6550    Z=             -0.0000  Tot=              0.8263
 NROrb=    146 NOA=    15 NOB=    15 NVA=   131 NVB=   131

 **** Warning!!: The largest alpha MO coefficient is  0.82532704D+02

    12 initial guesses have been made.
 Iteration     1 Dimension    12 NMult     0 NNew     12
 New state      1 was old state      4
 Iteration     2 Dimension    24 NMult    12 NNew     12
 Iteration     3 Dimension    27 NMult    24 NNew      3
 Iteration     4 Dimension    30 NMult    27 NNew      3
 New state      1 was old state      2
 Iteration     5 Dimension    33 NMult    30 NNew      3
 ***********************************************************************
 Stability analysis using <AA,BB:AA,BB> singles matrix:
 ***********************************************************************
 Ground to excited state transition densities written to RWF  633

 Eigenvectors of the stability matrix:
 
 Excited state symmetry could not be determined.
 Eigenvector   1:      Singlet-?Sym  Eigenvalue= 0.2006994  <S**2>=0.000
      14 -> 22        -0.10679
      14 -> 23        -0.19944
      14 -> 26         0.14793
      14 -> 36         0.35457
      15 -> 24        -0.23417
      15 -> 28         0.15091
      15 -> 33         0.14176
      15 -> 37         0.34156
 The wavefunction is stable under the perturbations considered.
 The wavefunction is already stable.

 **********************************************************************

            Population analysis using the SCF Density.

 **********************************************************************

 Alpha  occ. eigenvalues --  -11.25908 -11.23909 -11.23259 -11.22594  -1.08231
 Alpha  occ. eigenvalues --   -0.99702  -0.87720  -0.71669  -0.64162  -0.62739
 Alpha  occ. eigenvalues --   -0.55152  -0.52410  -0.51409  -0.38379  -0.38306
 Alpha virt. eigenvalues --    0.03634   0.04093   0.05152   0.05313   0.06503
 Alpha virt. eigenvalues --    0.07716   0.10780   0.11755   0.12039   0.12356
 Alpha virt. eigenvalues --    0.14024   0.14756   0.15318   0.16204   0.17064
 Alpha virt. eigenvalues --    0.18469   0.18965   0.20048   0.20534   0.21893
 Alpha virt. eigenvalues --    0.23704   0.23955   0.27301   0.30009   0.30889
 Alpha virt. eigenvalues --    0.32486   0.32969   0.34864   0.36594   0.39452
 Alpha virt. eigenvalues --    0.39738   0.39999   0.41654   0.44354   0.44664
 Alpha virt. eigenvalues --    0.46675   0.47166   0.48037   0.48760   0.49530
 Alpha virt. eigenvalues --    0.51034   0.53564   0.54684   0.56110   0.56954
 Alpha virt. eigenvalues --    0.57632   0.58548   0.60949   0.62655   0.63578
 Alpha virt. eigenvalues --    0.64417   0.65452   0.66870   0.68368   0.70488
 Alpha virt. eigenvalues --    0.71002   0.71094   0.71961   0.75549   0.77239
 Alpha virt. eigenvalues --    0.80108   0.81459   0.81801   0.83734   0.87967
 Alpha virt. eigenvalues --    0.88249   0.89189   0.90171   0.90661   0.96155
 Alpha virt. eigenvalues --    1.02312   1.06158   1.06275   1.11381   1.14272
 Alpha virt. eigenvalues --    1.16915   1.22703   1.23227   1.28913   1.30250
 Alpha virt. eigenvalues --    1.32971   1.34908   1.40399   1.50230   1.50793
 Alpha virt. eigenvalues --    1.54169   1.60222   1.61697   1.63284   1.65966
 Alpha virt. eigenvalues --    1.71331   1.72559   1.76530   1.79098   1.82789
 Alpha virt. eigenvalues --    1.83224   1.90003   1.92166   1.93499   1.97052
 Alpha virt. eigenvalues --    1.97658   2.03173   2.11074   2.12055   2.13972
 Alpha virt. eigenvalues --    2.17846   2.21535   2.23279   2.27823   2.28345
 Alpha virt. eigenvalues --    2.35808   2.37095   2.42602   2.50312   2.51409
 Alpha virt. eigenvalues --    2.60564   2.61364   2.65013   2.66383   2.67805
 Alpha virt. eigenvalues --    2.77784   2.84638   2.87538   2.88283   2.97982
 Alpha virt. eigenvalues --    3.00322   3.06974   3.12072   3.17938   3.64409
 Alpha virt. eigenvalues --    4.17168
          Condensed to atoms (all electrons):
 Mulliken charges:
               1
     1  C    1.014425
     2  C   -0.570470
     3  C    0.360834
     4  C   -0.127667
     5  H   -0.530055
     6  H   -0.056863
     7  H   -0.056863
     8  H   -0.077868
     9  H    0.022264
    10  H    0.022264
 Sum of Mulliken charges =  -0.00000
 Mulliken charges with hydrogens summed into heavy atoms:
               1
     1  C    0.484370
     2  C   -0.570470
     3  C    0.169240
     4  C   -0.083139
 Electronic spatial extent (au):  <R**2>=            335.5660
 Charge=             -0.0000 electrons
 Dipole moment (field-independent basis, Debye):
    X=             -0.5037    Y=              0.6550    Z=             -0.0000  Tot=              0.8263
 Unable to Open any file for archive entry.
 1\1\GINC-SE046\Stability\RHF\Aug-CC-pVDZ\C4H6\OHZDE\05-Apr-2025\0\\#t 
 hf aug-cc-pvdz symm=none int=(grid=ultrafine) guess=(read,tcheck) stab
 le=(opt,rrhf)\\title\\0,1\C,0,1.328756,-1.459271,0.\C,0,0.738939,-0.41
 4592,0.\C,0,-1.5235,0.649784,0.\C,0,0.,0.84319,0.\H,0,1.855678,-2.3799
 36,0.\H,0,-1.844031,0.095387,0.881353\H,0,-1.844031,0.095387,-0.881353
 \H,0,-2.02734,1.616676,0.\H,0,0.29728,1.428911,0.873961\H,0,0.29728,1.
 428911,-0.873961\\Version=ES64L-G16RevC.01\HF=-154.9171144\RMSD=6.580e
 -09\Dipole=-0.1981637,0.2576989,0.\Quadrupole=-0.7006381,1.903564,-1.2
 029259,-1.6264315,0.,0.\PG=Unknown\\@
 The archive entry for this job was punched.


 CONFIDENCE: THAT QUIET ASSURED FEELING YOU HAVE
 JUST BEFORE YOU FALL FLAT ON YOUR FACE.
 Job cpu time:       0 days  0 hours  0 minutes 37.9 seconds.
 Elapsed time:       0 days  0 hours  0 minutes  4.9 seconds.
 File lengths (MBytes):  RWF=    109 Int=      0 D2E=      0 Chk=      4 Scr=      1
 Normal termination of Gaussian 16 at Sat Apr  5 22:10:42 2025.
 Initial command:
 /arc/software/Gaussian/g16.c01/l1.exe "/tmp/slurm/4814286/Gau-3735086.inp" -scrdir="/tmp/slurm/4814286/"
 Entering Link 1 = /arc/software/Gaussian/g16.c01/l1.exe PID=   3735422.
  
 Copyright (c) 1988-2019, Gaussian, Inc.  All Rights Reserved.
  
 This is part of the Gaussian(R) 16 program.  It is based on
 the Gaussian(R) 09 system (copyright 2009, Gaussian, Inc.),
 the Gaussian(R) 03 system (copyright 2003, Gaussian, Inc.),
 the Gaussian(R) 98 system (copyright 1998, Gaussian, Inc.),
 the Gaussian(R) 94 system (copyright 1995, Gaussian, Inc.),
 the Gaussian 92(TM) system (copyright 1992, Gaussian, Inc.),
 the Gaussian 90(TM) system (copyright 1990, Gaussian, Inc.),
 the Gaussian 88(TM) system (copyright 1988, Gaussian, Inc.),
 the Gaussian 86(TM) system (copyright 1986, Carnegie Mellon
 University), and the Gaussian 82(TM) system (copyright 1983,
 Carnegie Mellon University). Gaussian is a federally registered
 trademark of Gaussian, Inc.
  
 This software contains proprietary and confidential information,
 including trade secrets, belonging to Gaussian, Inc.
  
 This software is provided under written license and may be
 used, copied, transmitted, or stored only in accord with that
 written license.
  
 The following legend is applicable only to US Government
 contracts under FAR:
  
                    RESTRICTED RIGHTS LEGEND
  
 Use, reproduction and disclosure by the US Government is
 subject to restrictions as set forth in subparagraphs (a)
 and (c) of the Commercial Computer Software - Restricted
 Rights clause in FAR 52.227-19.
  
 Gaussian, Inc.
 340 Quinnipiac St., Bldg. 40, Wallingford CT 06492
  
  
 ---------------------------------------------------------------
 Warning -- This program may not be used in any manner that
 competes with the business of Gaussian, Inc. or will provide
 assistance to any competitor of Gaussian, Inc.  The licensee
 of this program is prohibited from giving any competitor of
 Gaussian, Inc. access to this program.  By using this program,
 the user acknowledges that Gaussian, Inc. is engaged in the
 business of creating and licensing software in the field of
 computational chemistry and represents and warrants to the
 licensee that it is not a competitor of Gaussian, Inc. and that
 it will not use this program in any manner prohibited above.
 ---------------------------------------------------------------
  

 Cite this work as:
 Gaussian 16, Revision C.01,
 M. J. Frisch, G. W. Trucks, H. B. Schlegel, G. E. Scuseria, 
 M. A. Robb, J. R. Cheeseman, G. Scalmani, V. Barone, 
 G. A. Petersson, H. Nakatsuji, X. Li, M. Caricato, A. V. Marenich, 
 J. Bloino, B. G. Janesko, R. Gomperts, B. Mennucci, H. P. Hratchian, 
 J. V. Ortiz, A. F. Izmaylov, J. L. Sonnenberg, D. Williams-Young, 
 F. Ding, F. Lipparini, F. Egidi, J. Goings, B. Peng, A. Petrone, 
 T. Henderson, D. Ranasinghe, V. G. Zakrzewski, J. Gao, N. Rega, 
 G. Zheng, W. Liang, M. Hada, M. Ehara, K. Toyota, R. Fukuda, 
 J. Hasegawa, M. Ishida, T. Nakajima, Y. Honda, O. Kitao, H. Nakai, 
 T. Vreven, K. Throssell, J. A. Montgomery, Jr., J. E. Peralta, 
 F. Ogliaro, M. J. Bearpark, J. J. Heyd, E. N. Brothers, K. N. Kudin, 
 V. N. Staroverov, T. A. Keith, R. Kobayashi, J. Normand, 
 K. Raghavachari, A. P. Rendell, J. C. Burant, S. S. Iyengar, 
 J. Tomasi, M. Cossi, J. M. Millam, M. Klene, C. Adamo, R. Cammi, 
 J. W. Ochterski, R. L. Martin, K. Morokuma, O. Farkas, 
 J. B. Foresman, and D. J. Fox, Gaussian, Inc., Wallingford CT, 2019.
 
 ******************************************
 Gaussian 16:  ES64L-G16RevC.01  3-Jul-2019
                 5-Apr-2025 
 ******************************************
 %nprocs=16
 Will use up to   16 processors via shared memory.
 %mem=30GB
 %chk=1-butyne.chk
 ----------------------------------------------------------------------
 #t hf aug-cc-pvdz iop(5/13=1,5/36=2,99/5=2) pseudo=read geom=check gue
 ss=(read,tcheck) scf=(maxcycle=1)
 ----------------------------------------------------------------------
 -----
 title
 -----
 Structure from the checkpoint file:  "1-butyne.chk"
 Charge =  0 Multiplicity = 1
 Z-Matrix found in chk file.
 C,0,1.328756,-1.459271,0.
 C,0,0.738939,-0.414592,0.
 C,0,-1.5235,0.649784,0.
 C,0,0.,0.84319,0.
 H,0,1.855678,-2.379936,0.
 H,0,-1.844031,0.095387,0.881353
 H,0,-1.844031,0.095387,-0.881353
 H,0,-2.02734,1.616676,0.
 H,0,0.29728,1.428911,0.873961
 H,0,0.29728,1.428911,-0.873961
 Recover connectivity data from disk.
                    Distance matrix (angstroms):
                    1          2          3          4          5
     1  C    0.000000
     2  C    1.199683   0.000000
     3  C    3.547320   2.500305   0.000000
     4  C    2.658368   1.458783   1.535727   0.000000
     5  H    1.060788   2.260461   4.538507   3.719151   0.000000
     6  H    3.641472   2.776436   1.089440   2.176337   4.537825
     7  H    3.641472   2.776436   1.089440   2.176337   4.537825
     8  H    4.552453   3.431960   1.090291   2.169882   5.572319
     9  H    3.188941   2.087432   2.164737   1.093276   4.207104
    10  H    3.188941   2.087432   2.164737   1.093276   4.207104
                    6          7          8          9         10
     6  H    0.000000
     7  H    1.762706   0.000000
     8  H    1.767684   1.767684   0.000000
     9  H    2.522609   3.073211   2.490567   0.000000
    10  H    3.073211   2.522609   2.490567   1.747922   0.000000
 Framework group  CS[SG(C4H2),X(H4)]
 Deg. of freedom    15
                         Standard orientation:                         
 ---------------------------------------------------------------------
 Center     Atomic      Atomic             Coordinates (Angstroms)
 Number     Number       Type             X           Y           Z
 ---------------------------------------------------------------------
      1          6           0        1.328755   -1.459271    0.000000
      2          6           0        0.738939   -0.414592    0.000000
      3          6           0       -1.523500    0.649784    0.000000
      4          6           0        0.000000    0.843190    0.000000
      5          1           0        1.855677   -2.379937    0.000000
      6          1           0       -1.844031    0.095387    0.881353
      7          1           0       -1.844031    0.095387   -0.881353
      8          1           0       -2.027340    1.616676    0.000000
      9          1           0        0.297280    1.428911    0.873961
     10          1           0        0.297280    1.428911   -0.873961
 ---------------------------------------------------------------------
 Rotational constants (GHZ):          27.6858654           4.5286771           4.0875457
 ======================================================================================================
                                       Pseudopotential Parameters
 ======================================================================================================
  Center     Atomic      Valence      Angular      Power
  Number     Number     Electrons     Momentum     of R      Exponent        Coefficient   SO-Coeffient
 ======================================================================================================
    1          6            6
                                      G and up 
                                                     0        0.0000010       -0.00011185    0.00000000
                                                     2        0.1200000       -0.02301220    0.00000000
                                                     2        0.1400000        0.13317600    0.00000000
                                                     2        0.1600000       -0.19690668    0.00000000
                                                     2        0.2200000        0.23163694    0.00000000
                                                     2        0.3000000       -0.36920489    0.00000000
                                                     2        0.4000000        0.36389709    0.00000000
                                                     2        0.7000000       -0.38862160    0.00000000
                                                     2        1.3000000        0.80803421    0.00000000
                                      S - G
                                                     0        0.0000010        0.00312304    0.00000000
                                                     2        0.1200000       -0.00632892    0.00000000
                                                     2        0.2200000       -0.03780897    0.00000000
                                                     2        0.4000000        0.26269560    0.00000000
                                                     2        0.9000000       -0.28209514    0.00000000
                                                     2        1.5000000       -0.72686737    0.00000000
                                      P - G
                                                     0        0.0000010       -0.01465594    0.00000000
                                                     2        0.1200000        0.07908409    0.00000000
                                                     2        0.1800000       -0.30615861    0.00000000
                                                     2        0.2600000        0.41506950    0.00000000
                                                     2        0.5000000       -0.36252345    0.00000000
                                                     2        0.9000000        0.15124193    0.00000000
                                                     2        3.0000000       -0.80425677    0.00000000
                                      D - G
                                                     0        0.0000010        0.01149631    0.00000000
                                                     2        0.1200000       -0.04713561    0.00000000
                                                     2        0.1600000        0.10865096    0.00000000
                                                     2        0.2800000       -0.15816701    0.00000000
                                                     2        0.7000000        0.65478804    0.00000000
                                                     2        1.3000000       -1.73816624    0.00000000
                                      F - G
                                                     0        0.0000010        0.00481868    0.00000000
                                                     2        0.1200000       -0.04746842    0.00000000
                                                     2        0.1600000        0.09327889    0.00000000
                                                     2        0.4000000       -0.19693326    0.00000000
                                                     2        0.9000000        0.34938253    0.00000000
    2          6            6
                                      G and up 
                                                     0        0.0000010       -0.00011185    0.00000000
                                                     2        0.1200000       -0.02301220    0.00000000
                                                     2        0.1400000        0.13317600    0.00000000
                                                     2        0.1600000       -0.19690668    0.00000000
                                                     2        0.2200000        0.23163694    0.00000000
                                                     2        0.3000000       -0.36920489    0.00000000
                                                     2        0.4000000        0.36389709    0.00000000
                                                     2        0.7000000       -0.38862160    0.00000000
                                                     2        1.3000000        0.80803421    0.00000000
                                      S - G
                                                     0        0.0000010        0.00312304    0.00000000
                                                     2        0.1200000       -0.00632892    0.00000000
                                                     2        0.2200000       -0.03780897    0.00000000
                                                     2        0.4000000        0.26269560    0.00000000
                                                     2        0.9000000       -0.28209514    0.00000000
                                                     2        1.5000000       -0.72686737    0.00000000
                                      P - G
                                                     0        0.0000010       -0.01465594    0.00000000
                                                     2        0.1200000        0.07908409    0.00000000
                                                     2        0.1800000       -0.30615861    0.00000000
                                                     2        0.2600000        0.41506950    0.00000000
                                                     2        0.5000000       -0.36252345    0.00000000
                                                     2        0.9000000        0.15124193    0.00000000
                                                     2        3.0000000       -0.80425677    0.00000000
                                      D - G
                                                     0        0.0000010        0.01149631    0.00000000
                                                     2        0.1200000       -0.04713561    0.00000000
                                                     2        0.1600000        0.10865096    0.00000000
                                                     2        0.2800000       -0.15816701    0.00000000
                                                     2        0.7000000        0.65478804    0.00000000
                                                     2        1.3000000       -1.73816624    0.00000000
                                      F - G
                                                     0        0.0000010        0.00481868    0.00000000
                                                     2        0.1200000       -0.04746842    0.00000000
                                                     2        0.1600000        0.09327889    0.00000000
                                                     2        0.4000000       -0.19693326    0.00000000
                                                     2        0.9000000        0.34938253    0.00000000
    3          6            6
                                      G and up 
                                                     0        0.0000010       -0.00011185    0.00000000
                                                     2        0.1200000       -0.02301220    0.00000000
                                                     2        0.1400000        0.13317600    0.00000000
                                                     2        0.1600000       -0.19690668    0.00000000
                                                     2        0.2200000        0.23163694    0.00000000
                                                     2        0.3000000       -0.36920489    0.00000000
                                                     2        0.4000000        0.36389709    0.00000000
                                                     2        0.7000000       -0.38862160    0.00000000
                                                     2        1.3000000        0.80803421    0.00000000
                                      S - G
                                                     0        0.0000010        0.00312304    0.00000000
                                                     2        0.1200000       -0.00632892    0.00000000
                                                     2        0.2200000       -0.03780897    0.00000000
                                                     2        0.4000000        0.26269560    0.00000000
                                                     2        0.9000000       -0.28209514    0.00000000
                                                     2        1.5000000       -0.72686737    0.00000000
                                      P - G
                                                     0        0.0000010       -0.01465594    0.00000000
                                                     2        0.1200000        0.07908409    0.00000000
                                                     2        0.1800000       -0.30615861    0.00000000
                                                     2        0.2600000        0.41506950    0.00000000
                                                     2        0.5000000       -0.36252345    0.00000000
                                                     2        0.9000000        0.15124193    0.00000000
                                                     2        3.0000000       -0.80425677    0.00000000
                                      D - G
                                                     0        0.0000010        0.01149631    0.00000000
                                                     2        0.1200000       -0.04713561    0.00000000
                                                     2        0.1600000        0.10865096    0.00000000
                                                     2        0.2800000       -0.15816701    0.00000000
                                                     2        0.7000000        0.65478804    0.00000000
                                                     2        1.3000000       -1.73816624    0.00000000
                                      F - G
                                                     0        0.0000010        0.00481868    0.00000000
                                                     2        0.1200000       -0.04746842    0.00000000
                                                     2        0.1600000        0.09327889    0.00000000
                                                     2        0.4000000       -0.19693326    0.00000000
                                                     2        0.9000000        0.34938253    0.00000000
    4          6            6
                                      G and up 
                                                     0        0.0000010       -0.00011185    0.00000000
                                                     2        0.1200000       -0.02301220    0.00000000
                                                     2        0.1400000        0.13317600    0.00000000
                                                     2        0.1600000       -0.19690668    0.00000000
                                                     2        0.2200000        0.23163694    0.00000000
                                                     2        0.3000000       -0.36920489    0.00000000
                                                     2        0.4000000        0.36389709    0.00000000
                                                     2        0.7000000       -0.38862160    0.00000000
                                                     2        1.3000000        0.80803421    0.00000000
                                      S - G
                                                     0        0.0000010        0.00312304    0.00000000
                                                     2        0.1200000       -0.00632892    0.00000000
                                                     2        0.2200000       -0.03780897    0.00000000
                                                     2        0.4000000        0.26269560    0.00000000
                                                     2        0.9000000       -0.28209514    0.00000000
                                                     2        1.5000000       -0.72686737    0.00000000
                                      P - G
                                                     0        0.0000010       -0.01465594    0.00000000
                                                     2        0.1200000        0.07908409    0.00000000
                                                     2        0.1800000       -0.30615861    0.00000000
                                                     2        0.2600000        0.41506950    0.00000000
                                                     2        0.5000000       -0.36252345    0.00000000
                                                     2        0.9000000        0.15124193    0.00000000
                                                     2        3.0000000       -0.80425677    0.00000000
                                      D - G
                                                     0        0.0000010        0.01149631    0.00000000
                                                     2        0.1200000       -0.04713561    0.00000000
                                                     2        0.1600000        0.10865096    0.00000000
                                                     2        0.2800000       -0.15816701    0.00000000
                                                     2        0.7000000        0.65478804    0.00000000
                                                     2        1.3000000       -1.73816624    0.00000000
                                      F - G
                                                     0        0.0000010        0.00481868    0.00000000
                                                     2        0.1200000       -0.04746842    0.00000000
                                                     2        0.1600000        0.09327889    0.00000000
                                                     2        0.4000000       -0.19693326    0.00000000
                                                     2        0.9000000        0.34938253    0.00000000
    5          1            1
                                      F and up 
                                                     0        0.0000010       -0.00000699    0.00000000
                                                     2        0.1200000        0.00123686    0.00000000
                                                     2        0.1800000       -0.00752022    0.00000000
                                                     2        0.2600000        0.02503380    0.00000000
                                                     2        0.4000000       -0.08702670    0.00000000
                                                     2        0.6000000        0.30134159    0.00000000
                                                     2        0.8000000       -0.50204959    0.00000000
                                                     2        1.2000000        0.52208372    0.00000000
                                      S - F
                                                     0        0.0000010       -0.01618346    0.00000000
                                                     2        0.1200000       -0.07880581    0.00000000
                                                     2        0.1600000        0.32040539    0.00000000
                                                     2        0.2400000       -0.47500956    0.00000000
                                                     2        0.5000000        0.54013668    0.00000000
                                                     2        1.5000000       -1.40434292    0.00000000
                                                     2        3.0000000        1.46283806    0.00000000
                                      P - F
                                                     0        0.0000010        0.00612970    0.00000000
                                                     2        0.1200000        0.02254406    0.00000000
                                                     2        0.1800000       -0.13874529    0.00000000
                                                     2        0.3000000        0.38299049    0.00000000
                                                     2        0.5000000       -0.57923512    0.00000000
                                                     2        1.0000000        0.63021625    0.00000000
                                                     2        2.0000000       -0.79201034    0.00000000
                                      D - F
                                                     0        0.0000010       -0.00296226    0.00000000
                                                     2        0.1200000       -0.00547344    0.00000000
                                                     2        0.1400000        0.01837884    0.00000000
                                                     2        0.2400000       -0.05565704    0.00000000
                                                     2        0.4000000        0.15376597    0.00000000
                                                     2        0.8000000       -0.32464795    0.00000000
    6          1            1
                                      F and up 
                                                     0        0.0000010       -0.00000699    0.00000000
                                                     2        0.1200000        0.00123686    0.00000000
                                                     2        0.1800000       -0.00752022    0.00000000
                                                     2        0.2600000        0.02503380    0.00000000
                                                     2        0.4000000       -0.08702670    0.00000000
                                                     2        0.6000000        0.30134159    0.00000000
                                                     2        0.8000000       -0.50204959    0.00000000
                                                     2        1.2000000        0.52208372    0.00000000
                                      S - F
                                                     0        0.0000010       -0.01618346    0.00000000
                                                     2        0.1200000       -0.07880581    0.00000000
                                                     2        0.1600000        0.32040539    0.00000000
                                                     2        0.2400000       -0.47500956    0.00000000
                                                     2        0.5000000        0.54013668    0.00000000
                                                     2        1.5000000       -1.40434292    0.00000000
                                                     2        3.0000000        1.46283806    0.00000000
                                      P - F
                                                     0        0.0000010        0.00612970    0.00000000
                                                     2        0.1200000        0.02254406    0.00000000
                                                     2        0.1800000       -0.13874529    0.00000000
                                                     2        0.3000000        0.38299049    0.00000000
                                                     2        0.5000000       -0.57923512    0.00000000
                                                     2        1.0000000        0.63021625    0.00000000
                                                     2        2.0000000       -0.79201034    0.00000000
                                      D - F
                                                     0        0.0000010       -0.00296226    0.00000000
                                                     2        0.1200000       -0.00547344    0.00000000
                                                     2        0.1400000        0.01837884    0.00000000
                                                     2        0.2400000       -0.05565704    0.00000000
                                                     2        0.4000000        0.15376597    0.00000000
                                                     2        0.8000000       -0.32464795    0.00000000
    7          1            1
                                      F and up 
                                                     0        0.0000010       -0.00000699    0.00000000
                                                     2        0.1200000        0.00123686    0.00000000
                                                     2        0.1800000       -0.00752022    0.00000000
                                                     2        0.2600000        0.02503380    0.00000000
                                                     2        0.4000000       -0.08702670    0.00000000
                                                     2        0.6000000        0.30134159    0.00000000
                                                     2        0.8000000       -0.50204959    0.00000000
                                                     2        1.2000000        0.52208372    0.00000000
                                      S - F
                                                     0        0.0000010       -0.01618346    0.00000000
                                                     2        0.1200000       -0.07880581    0.00000000
                                                     2        0.1600000        0.32040539    0.00000000
                                                     2        0.2400000       -0.47500956    0.00000000
                                                     2        0.5000000        0.54013668    0.00000000
                                                     2        1.5000000       -1.40434292    0.00000000
                                                     2        3.0000000        1.46283806    0.00000000
                                      P - F
                                                     0        0.0000010        0.00612970    0.00000000
                                                     2        0.1200000        0.02254406    0.00000000
                                                     2        0.1800000       -0.13874529    0.00000000
                                                     2        0.3000000        0.38299049    0.00000000
                                                     2        0.5000000       -0.57923512    0.00000000
                                                     2        1.0000000        0.63021625    0.00000000
                                                     2        2.0000000       -0.79201034    0.00000000
                                      D - F
                                                     0        0.0000010       -0.00296226    0.00000000
                                                     2        0.1200000       -0.00547344    0.00000000
                                                     2        0.1400000        0.01837884    0.00000000
                                                     2        0.2400000       -0.05565704    0.00000000
                                                     2        0.4000000        0.15376597    0.00000000
                                                     2        0.8000000       -0.32464795    0.00000000
    8          1            1
                                      F and up 
                                                     0        0.0000010       -0.00000699    0.00000000
                                                     2        0.1200000        0.00123686    0.00000000
                                                     2        0.1800000       -0.00752022    0.00000000
                                                     2        0.2600000        0.02503380    0.00000000
                                                     2        0.4000000       -0.08702670    0.00000000
                                                     2        0.6000000        0.30134159    0.00000000
                                                     2        0.8000000       -0.50204959    0.00000000
                                                     2        1.2000000        0.52208372    0.00000000
                                      S - F
                                                     0        0.0000010       -0.01618346    0.00000000
                                                     2        0.1200000       -0.07880581    0.00000000
                                                     2        0.1600000        0.32040539    0.00000000
                                                     2        0.2400000       -0.47500956    0.00000000
                                                     2        0.5000000        0.54013668    0.00000000
                                                     2        1.5000000       -1.40434292    0.00000000
                                                     2        3.0000000        1.46283806    0.00000000
                                      P - F
                                                     0        0.0000010        0.00612970    0.00000000
                                                     2        0.1200000        0.02254406    0.00000000
                                                     2        0.1800000       -0.13874529    0.00000000
                                                     2        0.3000000        0.38299049    0.00000000
                                                     2        0.5000000       -0.57923512    0.00000000
                                                     2        1.0000000        0.63021625    0.00000000
                                                     2        2.0000000       -0.79201034    0.00000000
                                      D - F
                                                     0        0.0000010       -0.00296226    0.00000000
                                                     2        0.1200000       -0.00547344    0.00000000
                                                     2        0.1400000        0.01837884    0.00000000
                                                     2        0.2400000       -0.05565704    0.00000000
                                                     2        0.4000000        0.15376597    0.00000000
                                                     2        0.8000000       -0.32464795    0.00000000
    9          1            1
                                      F and up 
                                                     0        0.0000010       -0.00000699    0.00000000
                                                     2        0.1200000        0.00123686    0.00000000
                                                     2        0.1800000       -0.00752022    0.00000000
                                                     2        0.2600000        0.02503380    0.00000000
                                                     2        0.4000000       -0.08702670    0.00000000
                                                     2        0.6000000        0.30134159    0.00000000
                                                     2        0.8000000       -0.50204959    0.00000000
                                                     2        1.2000000        0.52208372    0.00000000
                                      S - F
                                                     0        0.0000010       -0.01618346    0.00000000
                                                     2        0.1200000       -0.07880581    0.00000000
                                                     2        0.1600000        0.32040539    0.00000000
                                                     2        0.2400000       -0.47500956    0.00000000
                                                     2        0.5000000        0.54013668    0.00000000
                                                     2        1.5000000       -1.40434292    0.00000000
                                                     2        3.0000000        1.46283806    0.00000000
                                      P - F
                                                     0        0.0000010        0.00612970    0.00000000
                                                     2        0.1200000        0.02254406    0.00000000
                                                     2        0.1800000       -0.13874529    0.00000000
                                                     2        0.3000000        0.38299049    0.00000000
                                                     2        0.5000000       -0.57923512    0.00000000
                                                     2        1.0000000        0.63021625    0.00000000
                                                     2        2.0000000       -0.79201034    0.00000000
                                      D - F
                                                     0        0.0000010       -0.00296226    0.00000000
                                                     2        0.1200000       -0.00547344    0.00000000
                                                     2        0.1400000        0.01837884    0.00000000
                                                     2        0.2400000       -0.05565704    0.00000000
                                                     2        0.4000000        0.15376597    0.00000000
                                                     2        0.8000000       -0.32464795    0.00000000
   10          1            1
                                      F and up 
                                                     0        0.0000010       -0.00000699    0.00000000
                                                     2        0.1200000        0.00123686    0.00000000
                                                     2        0.1800000       -0.00752022    0.00000000
                                                     2        0.2600000        0.02503380    0.00000000
                                                     2        0.4000000       -0.08702670    0.00000000
                                                     2        0.6000000        0.30134159    0.00000000
                                                     2        0.8000000       -0.50204959    0.00000000
                                                     2        1.2000000        0.52208372    0.00000000
                                      S - F
                                                     0        0.0000010       -0.01618346    0.00000000
                                                     2        0.1200000       -0.07880581    0.00000000
                                                     2        0.1600000        0.32040539    0.00000000
                                                     2        0.2400000       -0.47500956    0.00000000
                                                     2        0.5000000        0.54013668    0.00000000
                                                     2        1.5000000       -1.40434292    0.00000000
                                                     2        3.0000000        1.46283806    0.00000000
                                      P - F
                                                     0        0.0000010        0.00612970    0.00000000
                                                     2        0.1200000        0.02254406    0.00000000
                                                     2        0.1800000       -0.13874529    0.00000000
                                                     2        0.3000000        0.38299049    0.00000000
                                                     2        0.5000000       -0.57923512    0.00000000
                                                     2        1.0000000        0.63021625    0.00000000
                                                     2        2.0000000       -0.79201034    0.00000000
                                      D - F
                                                     0        0.0000010       -0.00296226    0.00000000
                                                     2        0.1200000       -0.00547344    0.00000000
                                                     2        0.1400000        0.01837884    0.00000000
                                                     2        0.2400000       -0.05565704    0.00000000
                                                     2        0.4000000        0.15376597    0.00000000
                                                     2        0.8000000       -0.32464795    0.00000000
 ======================================================================================================
   146 basis functions,   238 primitive gaussians,   154 cartesian basis functions
    15 alpha electrons       15 beta electrons
       nuclear repulsion energy       102.9712070810 Hartrees.
 NAtoms=   10 NActive=   10 NUniq=    8 SFac= 1.56D+00 NAtFMM=   60 NAOKFM=F Big=F
   2 Symmetry operations used in ECPInt.
 ECPInt:  NShTT=    2211 NPrTT=    9243 LenC2=    2211 LenP2D=    7872.
 LDataN:  DoStor=T MaxTD1= 6 Len=  172
 Initial guess from the checkpoint file:  "1-butyne.chk"
 B after Tr=    -0.000000   -0.000000   -0.000000
         Rot=    1.000000   -0.000000    0.000000    0.000000 Ang=   0.00 deg.
 Initial guess orbital symmetries:
       Occupied  (A') (A') (A') (A') (A') (A') (A') (A') (A') (A")
                 (A') (A') (A") (A') (A")
       Virtual   (A') (A') (A') (A") (A') (A") (A') (A') (A") (A')
                 (A') (A') (A") (A') (A') (A") (A') (A") (A') (A')
                 (A') (A") (A') (A") (A') (A') (A") (A') (A') (A')
                 (A") (A') (A') (A") (A') (A') (A") (A') (A") (A')
                 (A") (A') (A") (A') (A") (A') (A') (A") (A') (A')
                 (A") (A') (A") (A') (A') (A') (A") (A') (A') (A")
                 (A') (A') (A") (A') (A') (A") (A') (A") (A') (A")
                 (A') (A") (A') (A') (A") (A') (A') (A") (A') (A")
                 (A') (A') (A') (A") (A') (A') (A") (A') (A") (A')
                 (A') (A") (A') (A') (A') (A") (A") (A') (A") (A')
                 (A") (A") (A") (A') (A') (A') (A") (A') (A") (A')
                 (A') (A") (A') (A') (A") (A') (A') (A') (A") (A')
                 (A') (A') (A') (A") (A') (A") (A') (A') (A") (A')
                 (A')
 >>>>>>>>>> Convergence criterion not met.
 SCF Done:  E(RHF) =  -154.969046086     A.U. after    2 cycles
            NFock=  1  Conv=0.78D-02     -V/T= 2.0015

 **********************************************************************

            Population analysis using the SCF Density.

 **********************************************************************

 Orbital symmetries:
       Occupied  (A') (A') (A') (A') (A') (A') (A') (A') (A') (A")
                 (A') (A') (A") (A') (A")
       Virtual   (A') (A') (A') (A") (A') (A") (A') (A') (A") (A')
                 (A') (A') (A") (A') (A') (A") (A') (A") (A') (A')
                 (A') (A") (A') (A") (A') (A') (A") (A') (A') (A')
                 (A") (A') (A') (A") (A') (A') (A") (A') (A") (A')
                 (A") (A') (A") (A') (A") (A') (A') (A") (A') (A')
                 (A") (A') (A") (A') (A') (A') (A") (A') (A') (A")
                 (A') (A') (A") (A') (A') (A") (A') (A") (A') (A")
                 (A') (A") (A') (A') (A") (A') (A') (A") (A') (A")
                 (A') (A') (A') (A') (A") (A') (A") (A') (A") (A')
                 (A') (A") (A') (A') (A') (A") (A") (A') (A") (A')
                 (A") (A") (A") (A') (A') (A') (A") (A') (A") (A')
                 (A') (A") (A') (A') (A") (A') (A') (A') (A") (A')
                 (A') (A') (A") (A') (A') (A") (A') (A') (A") (A')
                 (A')
 The electronic state is 1-A'.
 Alpha  occ. eigenvalues --  -11.26272 -11.24342 -11.23608 -11.23014  -1.07282
 Alpha  occ. eigenvalues --   -0.99157  -0.87575  -0.71872  -0.64574  -0.63099
 Alpha  occ. eigenvalues --   -0.55549  -0.52749  -0.51736  -0.38756  -0.38675
 Alpha virt. eigenvalues --    0.03548   0.04064   0.05145   0.05313   0.06521
 Alpha virt. eigenvalues --    0.07744   0.10790   0.11743   0.12031   0.12362
 Alpha virt. eigenvalues --    0.13999   0.14743   0.15306   0.16191   0.17020
 Alpha virt. eigenvalues --    0.18470   0.18946   0.20010   0.20505   0.21880
 Alpha virt. eigenvalues --    0.23520   0.23805   0.27230   0.29934   0.30809
 Alpha virt. eigenvalues --    0.32423   0.32906   0.34746   0.36482   0.39360
 Alpha virt. eigenvalues --    0.39712   0.39925   0.41511   0.44267   0.44616
 Alpha virt. eigenvalues --    0.46559   0.47136   0.47902   0.48689   0.49464
 Alpha virt. eigenvalues --    0.51006   0.53461   0.54644   0.56028   0.56908
 Alpha virt. eigenvalues --    0.57543   0.58467   0.60885   0.62609   0.63585
 Alpha virt. eigenvalues --    0.64433   0.65435   0.66836   0.68191   0.70412
 Alpha virt. eigenvalues --    0.70992   0.71079   0.71938   0.75566   0.77224
 Alpha virt. eigenvalues --    0.80030   0.81424   0.81742   0.83474   0.87770
 Alpha virt. eigenvalues --    0.88058   0.89060   0.89542   0.90179   0.95886
 Alpha virt. eigenvalues --    1.01967   1.05764   1.05870   1.10998   1.13967
 Alpha virt. eigenvalues --    1.16738   1.22245   1.22566   1.28131   1.29803
 Alpha virt. eigenvalues --    1.32445   1.33794   1.39603   1.49758   1.49964
 Alpha virt. eigenvalues --    1.53773   1.59791   1.60627   1.62185   1.65481
 Alpha virt. eigenvalues --    1.70500   1.71590   1.76032   1.78236   1.81845
 Alpha virt. eigenvalues --    1.82226   1.89927   1.90647   1.92349   1.95961
 Alpha virt. eigenvalues --    1.96515   2.02924   2.10775   2.11295   2.13349
 Alpha virt. eigenvalues --    2.16291   2.20538   2.22751   2.27294   2.27349
 Alpha virt. eigenvalues --    2.34651   2.36215   2.41408   2.49228   2.50655
 Alpha virt. eigenvalues --    2.59384   2.60589   2.63912   2.65228   2.66401
 Alpha virt. eigenvalues --    2.76954   2.83250   2.86380   2.86978   2.97374
 Alpha virt. eigenvalues --    2.98296   3.05357   3.10071   3.15732   3.60941
 Alpha virt. eigenvalues --    4.13788
          Condensed to atoms (all electrons):
 Mulliken charges:
               1
     1  C    1.074613
     2  C   -0.690322
     3  C    0.374720
     4  C   -0.134668
     5  H   -0.522173
     6  H   -0.053456
     7  H   -0.053456
     8  H   -0.073427
     9  H    0.039084
    10  H    0.039084
 Sum of Mulliken charges =  -0.00000
 Mulliken charges with hydrogens summed into heavy atoms:
               1
     1  C    0.552441
     2  C   -0.690322
     3  C    0.194381
     4  C   -0.056499
 Electronic spatial extent (au):  <R**2>=            335.1606
 Charge=             -0.0000 electrons
 Dipole moment (field-independent basis, Debye):
    X=             -0.5069    Y=              0.6571    Z=             -0.0000  Tot=              0.8299

 Test job not archived.
 1\1\GINC-SE046\SP\RHF\Aug-CC-pVDZ\C4H6\OHZDE\05-Apr-2025\0\\#t hf aug-
 cc-pvdz iop(5/13=1,5/36=2,99/5=2) pseudo=read geom=check guess=(read,t
 check) scf=(maxcycle=1)\\title\\0,1\C,0,1.328756,-1.459271,0.\C,0,0.73
 8939,-0.414592,0.\C,0,-1.5235,0.649784,0.\C,0,0.,0.84319,0.\H,0,1.8556
 78,-2.379936,0.\H,0,-1.844031,0.095387,0.881353\H,0,-1.844031,0.095387
 ,-0.881353\H,0,-2.02734,1.616676,0.\H,0,0.29728,1.428911,0.873961\H,0,
 0.29728,1.428911,-0.873961\\Version=ES64L-G16RevC.01\State=1-A'\HF=-15
 4.9690461\RMSD=7.831e-03\Dipole=-0.1994446,0.2585213,0.\Quadrupole=-0.
 6940734,1.8979767,-1.2039034,-1.6239385,0.,0.\PG=CS [SG(C4H2),X(H4)]\\
 @


 GOD DOES NOT PLAY WITH DICE.
               -- A. EINSTEIN
 Job cpu time:       0 days  0 hours  0 minutes 21.5 seconds.
 Elapsed time:       0 days  0 hours  0 minutes  2.2 seconds.
 File lengths (MBytes):  RWF=      6 Int=      0 D2E=      0 Chk=      4 Scr=      1
 Normal termination of Gaussian 16 at Sat Apr  5 22:10:45 2025.
