 Entering Gaussian System, Link 0=g16
 Input=2-6-dimethylpyridine.gjf
 Output=2-6-dimethylpyridine.log
 Initial command:
 /arc/software/Gaussian/g16.c01/l1.exe "/tmp/slurm/4814680/Gau-2434420.inp" -scrdir="/tmp/slurm/4814680/"
 Entering Link 1 = /arc/software/Gaussian/g16.c01/l1.exe PID=   2434421.
  
 Copyright (c) 1988-2019, Gaussian, Inc.  All Rights Reserved.
  
 This is part of the Gaussian(R) 16 program.  It is based on
 the Gaussian(R) 09 system (copyright 2009, Gaussian, Inc.),
 the Gaussian(R) 03 system (copyright 2003, Gaussian, Inc.),
 the Gaussian(R) 98 system (copyright 1998, Gaussian, Inc.),
 the Gaussian(R) 94 system (copyright 1995, Gaussian, Inc.),
 the Gaussian 92(TM) system (copyright 1992, Gaussian, Inc.),
 the Gaussian 90(TM) system (copyright 1990, Gaussian, Inc.),
 the Gaussian 88(TM) system (copyright 1988, Gaussian, Inc.),
 the Gaussian 86(TM) system (copyright 1986, Carnegie Mellon
 University), and the Gaussian 82(TM) system (copyright 1983,
 Carnegie Mellon University). Gaussian is a federally registered
 trademark of Gaussian, Inc.
  
 This software contains proprietary and confidential information,
 including trade secrets, belonging to Gaussian, Inc.
  
 This software is provided under written license and may be
 used, copied, transmitted, or stored only in accord with that
 written license.
  
 The following legend is applicable only to US Government
 contracts under FAR:
  
                    RESTRICTED RIGHTS LEGEND
  
 Use, reproduction and disclosure by the US Government is
 subject to restrictions as set forth in subparagraphs (a)
 and (c) of the Commercial Computer Software - Restricted
 Rights clause in FAR 52.227-19.
  
 Gaussian, Inc.
 340 Quinnipiac St., Bldg. 40, Wallingford CT 06492
  
  
 ---------------------------------------------------------------
 Warning -- This program may not be used in any manner that
 competes with the business of Gaussian, Inc. or will provide
 assistance to any competitor of Gaussian, Inc.  The licensee
 of this program is prohibited from giving any competitor of
 Gaussian, Inc. access to this program.  By using this program,
 the user acknowledges that Gaussian, Inc. is engaged in the
 business of creating and licensing software in the field of
 computational chemistry and represents and warrants to the
 licensee that it is not a competitor of Gaussian, Inc. and that
 it will not use this program in any manner prohibited above.
 ---------------------------------------------------------------
  

 Cite this work as:
 Gaussian 16, Revision C.01,
 M. J. Frisch, G. W. Trucks, H. B. Schlegel, G. E. Scuseria, 
 M. A. Robb, J. R. Cheeseman, G. Scalmani, V. Barone, 
 G. A. Petersson, H. Nakatsuji, X. Li, M. Caricato, A. V. Marenich, 
 J. Bloino, B. G. Janesko, R. Gomperts, B. Mennucci, H. P. Hratchian, 
 J. V. Ortiz, A. F. Izmaylov, J. L. Sonnenberg, D. Williams-Young, 
 F. Ding, F. Lipparini, F. Egidi, J. Goings, B. Peng, A. Petrone, 
 T. Henderson, D. Ranasinghe, V. G. Zakrzewski, J. Gao, N. Rega, 
 G. Zheng, W. Liang, M. Hada, M. Ehara, K. Toyota, R. Fukuda, 
 J. Hasegawa, M. Ishida, T. Nakajima, Y. Honda, O. Kitao, H. Nakai, 
 T. Vreven, K. Throssell, J. A. Montgomery, Jr., J. E. Peralta, 
 F. Ogliaro, M. J. Bearpark, J. J. Heyd, E. N. Brothers, K. N. Kudin, 
 V. N. Staroverov, T. A. Keith, R. Kobayashi, J. Normand, 
 K. Raghavachari, A. P. Rendell, J. C. Burant, S. S. Iyengar, 
 J. Tomasi, M. Cossi, J. M. Millam, M. Klene, C. Adamo, R. Cammi, 
 J. W. Ochterski, R. L. Martin, K. Morokuma, O. Farkas, 
 J. B. Foresman, and D. J. Fox, Gaussian, Inc., Wallingford CT, 2019.
 
 ******************************************
 Gaussian 16:  ES64L-G16RevC.01  3-Jul-2019
                 5-Apr-2025 
 ******************************************
 %nprocs=16
 Will use up to   16 processors via shared memory.
 %mem=30GB
 %chk=2-6-dimethylpyridine.chk
 ----------------------------------------------------------------------
 #t hf aug-cc-pvdz symm=none int=(grid=ultrafine) guess=(read,tcheck) s
 table=(opt,rrhf)
 ----------------------------------------------------------------------
 -----
 title
 -----
 Symbolic Z-matrix:
 Charge =  0 Multiplicity = 1
 C                     0.        0.       -1.83185 
 C                     0.        1.19532  -1.12907 
 C                     0.       -1.19532  -1.12907 
 C                     0.        1.1554    0.26539 
 C                     0.       -1.1554    0.26539 
 C                     0.        2.41159   1.09172 
 C                     0.       -2.41159   1.09172 
 N                     0.        0.        0.93778 
 H                     0.        0.       -2.91405 
 H                     0.        2.14416  -1.64743 
 H                     0.       -2.14416  -1.64743 
 H                    -0.87679   2.43635   1.74023 
 H                     0.87679   2.43635   1.74023 
 H                     0.        3.30483   0.46905 
 H                     0.       -3.30483   0.46905 
 H                     0.87679  -2.43635   1.74023 
 H                    -0.87679  -2.43635   1.74023 
 
                    Distance matrix (angstroms):
                    1          2          3          4          5
     1  C    0.000000
     2  C    1.386616   0.000000
     3  C    1.386616   2.390648   0.000000
     4  C    2.394447   1.395029   2.733210   0.000000
     5  C    2.394447   2.733210   1.395029   2.310808   0.000000
     6  C    3.789854   2.532029   4.235764   1.503600   3.661455
     7  C    3.789854   4.235764   2.532029   3.661455   1.503600
     8  N    2.769633   2.387607   2.387607   1.336813   1.336813
     9  H    1.082202   2.148248   2.148248   3.382871   3.382871
    10  H    2.152076   1.081196   3.379474   2.153255   3.813920
    11  H    2.152076   3.379474   1.081196   3.813920   2.153255
    12  H    4.411833   3.246803   4.710694   2.141194   3.980526
    13  H    4.411833   3.246803   4.710694   2.141194   3.980526
    14  H    4.026913   2.646504   4.775493   2.159049   4.464877
    15  H    4.026913   4.775493   2.646504   4.464877   2.159049
    16  H    4.411833   4.710694   3.246803   3.980526   2.141194
    17  H    4.411833   4.710694   3.246803   3.980526   2.141194
                    6          7          8          9         10
     6  C    0.000000
     7  C    4.823178   0.000000
     8  N    2.416497   2.416497   0.000000
     9  H    4.675674   4.675674   3.851835   0.000000
    10  H    2.752165   5.315800   3.358679   2.490333   0.000000
    11  H    5.315800   2.752165   3.358679   2.490333   4.288318
    12  H    1.090840   4.969088   2.710806   5.326053   3.511453
    13  H    1.090840   4.969088   2.710806   5.326053   3.511453
    14  H    1.088844   5.750227   3.337901   4.729405   2.413841
    15  H    5.750227   1.088844   3.337901   4.729405   5.845590
    16  H    4.969088   1.090840   2.710806   5.326053   5.764199
    17  H    4.969088   1.090840   2.710806   5.326053   5.764199
                   11         12         13         14         15
    11  H    0.000000
    12  H    5.764199   0.000000
    13  H    5.764199   1.753574   0.000000
    14  H    5.845590   1.771690   1.771690   0.000000
    15  H    2.413841   5.945228   5.945228   6.609652   0.000000
    16  H    3.511453   5.178632   4.872700   5.945228   1.771690
    17  H    3.511453   4.872700   5.178632   5.945228   1.771690
                   16         17
    16  H    0.000000
    17  H    1.753574   0.000000
 Symmetry turned off by external request.
 Rotational constants (GHZ):           3.5285465           1.9127349           1.2595251
   265 basis functions,   443 primitive gaussians,   281 cartesian basis functions
    29 alpha electrons       29 beta electrons
       nuclear repulsion energy       346.5581293993 Hartrees.
 NAtoms=   17 NActive=   17 NUniq=   17 SFac= 1.00D+00 NAtFMM=   60 NAOKFM=F Big=F
 ExpMin= 2.97D-02 ExpMax= 9.05D+03 ExpMxC= 3.09D+02 IAcc=3 IRadAn=         5 AccDes= 0.00D+00
 Harris functional with IExCor=  205 and IRadAn=       5 diagonalized for initial guess.
 HarFok:  IExCor=  205 AccDes= 0.00D+00 IRadAn=         5 IDoV= 1 UseB2=F ITyADJ=14
 ICtDFT=  3500011 ScaDFX=  1.000000  1.000000  1.000000  1.000000
 FoFCou: FMM=F IPFlag=           0 FMFlag=      100000 FMFlg1=           0
         NFxFlg=           0 DoJE=T BraDBF=F KetDBF=T FulRan=T
         wScrn=  0.000000 ICntrl=       500 IOpCl=  0 I1Cent=   200000004 NGrid=           0
         NMat0=    1 NMatS0=      1 NMatT0=    0 NMatD0=    1 NMtDS0=    0 NMtDT0=    0
 Symmetry not used in FoFCou.
 SCF Done:  E(RHF) =  -324.813538925     A.U. after   14 cycles
            NFock= 14  Conv=0.74D-08     -V/T= 2.0008

 **********************************************************************

            Population analysis using the SCF Density.

 **********************************************************************

 Alpha  occ. eigenvalues --  -15.55660 -11.28200 -11.28198 -11.25803 -11.23320
 Alpha  occ. eigenvalues --  -11.23316 -11.22638 -11.22638  -1.25910  -1.08402
 Alpha  occ. eigenvalues --   -1.07284  -0.97770  -0.93478  -0.83319  -0.81246
 Alpha  occ. eigenvalues --   -0.68611  -0.67124  -0.61941  -0.59232  -0.57744
 Alpha  occ. eigenvalues --   -0.56960  -0.56655  -0.53402  -0.53389  -0.50216
 Alpha  occ. eigenvalues --   -0.49838  -0.40442  -0.37461  -0.32697
 Alpha virt. eigenvalues --    0.03390   0.03989   0.04256   0.05431   0.05867
 Alpha virt. eigenvalues --    0.05922   0.07422   0.07730   0.08148   0.09787
 Alpha virt. eigenvalues --    0.11035   0.11815   0.12396   0.12786   0.13346
 Alpha virt. eigenvalues --    0.14203   0.14879   0.14940   0.15442   0.15880
 Alpha virt. eigenvalues --    0.16566   0.17074   0.17119   0.17739   0.18035
 Alpha virt. eigenvalues --    0.18901   0.19396   0.19901   0.20506   0.20664
 Alpha virt. eigenvalues --    0.22364   0.23021   0.24179   0.25899   0.26903
 Alpha virt. eigenvalues --    0.27533   0.27543   0.29877   0.29953   0.30456
 Alpha virt. eigenvalues --    0.32320   0.32382   0.32901   0.34643   0.35491
 Alpha virt. eigenvalues --    0.35904   0.35945   0.37110   0.39371   0.40580
 Alpha virt. eigenvalues --    0.40665   0.40845   0.41486   0.43076   0.44049
 Alpha virt. eigenvalues --    0.44303   0.44632   0.44721   0.45008   0.45587
 Alpha virt. eigenvalues --    0.45669   0.49771   0.49954   0.52126   0.52239
 Alpha virt. eigenvalues --    0.53152   0.53554   0.53936   0.54831   0.55198
 Alpha virt. eigenvalues --    0.56002   0.56124   0.58321   0.58697   0.59200
 Alpha virt. eigenvalues --    0.59228   0.59642   0.62027   0.63427   0.64020
 Alpha virt. eigenvalues --    0.64337   0.64986   0.66134   0.67002   0.67975
 Alpha virt. eigenvalues --    0.68562   0.69418   0.70569   0.70595   0.70839
 Alpha virt. eigenvalues --    0.71686   0.71697   0.74029   0.74248   0.75257
 Alpha virt. eigenvalues --    0.75480   0.77461   0.77756   0.78261   0.79332
 Alpha virt. eigenvalues --    0.79812   0.80198   0.81017   0.82046   0.82503
 Alpha virt. eigenvalues --    0.83600   0.85817   0.87739   0.88434   0.90087
 Alpha virt. eigenvalues --    0.90583   0.90954   0.93706   0.94478   0.95144
 Alpha virt. eigenvalues --    0.97139   0.97567   0.97968   0.99497   1.02030
 Alpha virt. eigenvalues --    1.02577   1.05914   1.07239   1.09582   1.09922
 Alpha virt. eigenvalues --    1.10758   1.11967   1.15225   1.15972   1.16479
 Alpha virt. eigenvalues --    1.16775   1.17360   1.17809   1.19817   1.25983
 Alpha virt. eigenvalues --    1.27550   1.29370   1.30457   1.36427   1.39345
 Alpha virt. eigenvalues --    1.42739   1.45543   1.45979   1.46687   1.47985
 Alpha virt. eigenvalues --    1.51582   1.51832   1.57462   1.60281   1.62484
 Alpha virt. eigenvalues --    1.64130   1.65022   1.65118   1.65578   1.68925
 Alpha virt. eigenvalues --    1.71774   1.72350   1.73058   1.73365   1.73995
 Alpha virt. eigenvalues --    1.75760   1.77986   1.78045   1.79633   1.81276
 Alpha virt. eigenvalues --    1.83757   1.89003   1.89598   1.90540   1.91610
 Alpha virt. eigenvalues --    1.92719   1.93942   1.94566   1.94696   2.01015
 Alpha virt. eigenvalues --    2.02946   2.03188   2.03463   2.04350   2.08336
 Alpha virt. eigenvalues --    2.12211   2.12504   2.16660   2.17716   2.18023
 Alpha virt. eigenvalues --    2.19572   2.21035   2.24938   2.25296   2.25782
 Alpha virt. eigenvalues --    2.30547   2.31255   2.32830   2.33179   2.33504
 Alpha virt. eigenvalues --    2.36781   2.36982   2.40414   2.41012   2.45580
 Alpha virt. eigenvalues --    2.46636   2.48030   2.48785   2.52908   2.53314
 Alpha virt. eigenvalues --    2.54564   2.64217   2.64846   2.66929   2.68109
 Alpha virt. eigenvalues --    2.70705   2.71297   2.79847   2.80380   2.83284
 Alpha virt. eigenvalues --    2.85573   2.86790   2.89878   2.91428   2.92449
 Alpha virt. eigenvalues --    2.93221   2.98879   3.03367   3.08849   3.12386
 Alpha virt. eigenvalues --    3.13726   3.17693   3.19610   3.22106   3.22163
 Alpha virt. eigenvalues --    3.37597   3.55493   3.56916   3.83487   3.89964
 Alpha virt. eigenvalues --    4.32301
          Condensed to atoms (all electrons):
 Mulliken charges:
               1
     1  C   -0.643863
     2  C    0.965489
     3  C    0.965489
     4  C   -0.012753
     5  C   -0.012753
     6  C    0.520307
     7  C    0.520307
     8  N   -0.861843
     9  H   -0.417473
    10  H   -0.540273
    11  H   -0.540273
    12  H    0.073092
    13  H    0.073092
    14  H   -0.117364
    15  H   -0.117364
    16  H    0.073092
    17  H    0.073092
 Sum of Mulliken charges =  -0.00000
 Mulliken charges with hydrogens summed into heavy atoms:
               1
     1  C   -1.061336
     2  C    0.425216
     3  C    0.425216
     4  C   -0.012753
     5  C   -0.012753
     6  C    0.549127
     7  C    0.549127
     8  N   -0.861843
 Electronic spatial extent (au):  <R**2>=            976.4996
 Charge=             -0.0000 electrons
 Dipole moment (field-independent basis, Debye):
    X=              0.0000    Y=             -0.0000    Z=             -1.5243  Tot=              1.5243
 NROrb=    265 NOA=    29 NOB=    29 NVA=   236 NVB=   236

 **** Warning!!: The largest alpha MO coefficient is  0.10188913D+03

    12 initial guesses have been made.
 Iteration     1 Dimension    12 NMult     0 NNew     12
 Iteration     2 Dimension    24 NMult    12 NNew     12
 Iteration     3 Dimension    27 NMult    24 NNew      3
 Iteration     4 Dimension    30 NMult    27 NNew      3
 Iteration     5 Dimension    33 NMult    30 NNew      3
 Iteration     6 Dimension    36 NMult    33 NNew      3
 ***********************************************************************
 Stability analysis using <AA,BB:AA,BB> singles matrix:
 ***********************************************************************
 Ground to excited state transition densities written to RWF  633

 Eigenvectors of the stability matrix:
 
 Excited state symmetry could not be determined.
 Eigenvector   1:      Singlet-?Sym  Eigenvalue= 0.1731327  <S**2>=0.000
      28 -> 41         0.29095
      28 -> 50         0.23706
      29 -> 39         0.53578
      29 -> 53         0.12645
      29 -> 59        -0.11835
 The wavefunction is stable under the perturbations considered.
 The wavefunction is already stable.

 **********************************************************************

            Population analysis using the SCF Density.

 **********************************************************************

 Alpha  occ. eigenvalues --  -15.55660 -11.28200 -11.28198 -11.25803 -11.23320
 Alpha  occ. eigenvalues --  -11.23316 -11.22638 -11.22638  -1.25910  -1.08402
 Alpha  occ. eigenvalues --   -1.07284  -0.97770  -0.93478  -0.83319  -0.81246
 Alpha  occ. eigenvalues --   -0.68611  -0.67124  -0.61941  -0.59232  -0.57744
 Alpha  occ. eigenvalues --   -0.56960  -0.56655  -0.53402  -0.53389  -0.50216
 Alpha  occ. eigenvalues --   -0.49838  -0.40442  -0.37461  -0.32697
 Alpha virt. eigenvalues --    0.03390   0.03989   0.04256   0.05431   0.05867
 Alpha virt. eigenvalues --    0.05922   0.07422   0.07730   0.08148   0.09787
 Alpha virt. eigenvalues --    0.11035   0.11815   0.12396   0.12786   0.13346
 Alpha virt. eigenvalues --    0.14203   0.14879   0.14940   0.15442   0.15880
 Alpha virt. eigenvalues --    0.16566   0.17074   0.17119   0.17739   0.18035
 Alpha virt. eigenvalues --    0.18901   0.19396   0.19901   0.20506   0.20664
 Alpha virt. eigenvalues --    0.22364   0.23021   0.24179   0.25899   0.26903
 Alpha virt. eigenvalues --    0.27533   0.27543   0.29877   0.29953   0.30456
 Alpha virt. eigenvalues --    0.32320   0.32382   0.32901   0.34643   0.35491
 Alpha virt. eigenvalues --    0.35904   0.35945   0.37110   0.39371   0.40580
 Alpha virt. eigenvalues --    0.40665   0.40845   0.41486   0.43076   0.44049
 Alpha virt. eigenvalues --    0.44303   0.44632   0.44721   0.45008   0.45587
 Alpha virt. eigenvalues --    0.45669   0.49771   0.49954   0.52126   0.52239
 Alpha virt. eigenvalues --    0.53152   0.53554   0.53936   0.54831   0.55198
 Alpha virt. eigenvalues --    0.56002   0.56124   0.58321   0.58697   0.59200
 Alpha virt. eigenvalues --    0.59228   0.59642   0.62027   0.63427   0.64020
 Alpha virt. eigenvalues --    0.64337   0.64986   0.66134   0.67002   0.67975
 Alpha virt. eigenvalues --    0.68562   0.69418   0.70569   0.70595   0.70839
 Alpha virt. eigenvalues --    0.71686   0.71697   0.74029   0.74248   0.75257
 Alpha virt. eigenvalues --    0.75480   0.77461   0.77756   0.78261   0.79332
 Alpha virt. eigenvalues --    0.79812   0.80198   0.81017   0.82046   0.82503
 Alpha virt. eigenvalues --    0.83600   0.85817   0.87739   0.88434   0.90087
 Alpha virt. eigenvalues --    0.90583   0.90954   0.93706   0.94478   0.95144
 Alpha virt. eigenvalues --    0.97139   0.97567   0.97968   0.99497   1.02030
 Alpha virt. eigenvalues --    1.02577   1.05914   1.07239   1.09582   1.09922
 Alpha virt. eigenvalues --    1.10758   1.11967   1.15225   1.15972   1.16479
 Alpha virt. eigenvalues --    1.16775   1.17360   1.17809   1.19817   1.25983
 Alpha virt. eigenvalues --    1.27550   1.29370   1.30457   1.36427   1.39345
 Alpha virt. eigenvalues --    1.42739   1.45543   1.45979   1.46687   1.47985
 Alpha virt. eigenvalues --    1.51582   1.51832   1.57462   1.60281   1.62484
 Alpha virt. eigenvalues --    1.64130   1.65022   1.65118   1.65578   1.68925
 Alpha virt. eigenvalues --    1.71774   1.72350   1.73058   1.73365   1.73995
 Alpha virt. eigenvalues --    1.75760   1.77986   1.78045   1.79633   1.81276
 Alpha virt. eigenvalues --    1.83757   1.89003   1.89598   1.90540   1.91610
 Alpha virt. eigenvalues --    1.92719   1.93942   1.94566   1.94696   2.01015
 Alpha virt. eigenvalues --    2.02946   2.03188   2.03463   2.04350   2.08336
 Alpha virt. eigenvalues --    2.12211   2.12504   2.16660   2.17716   2.18023
 Alpha virt. eigenvalues --    2.19572   2.21035   2.24938   2.25296   2.25782
 Alpha virt. eigenvalues --    2.30547   2.31255   2.32830   2.33179   2.33504
 Alpha virt. eigenvalues --    2.36781   2.36982   2.40414   2.41012   2.45580
 Alpha virt. eigenvalues --    2.46636   2.48030   2.48785   2.52908   2.53314
 Alpha virt. eigenvalues --    2.54564   2.64217   2.64846   2.66929   2.68109
 Alpha virt. eigenvalues --    2.70705   2.71297   2.79847   2.80380   2.83284
 Alpha virt. eigenvalues --    2.85573   2.86790   2.89878   2.91428   2.92449
 Alpha virt. eigenvalues --    2.93221   2.98879   3.03367   3.08849   3.12386
 Alpha virt. eigenvalues --    3.13726   3.17693   3.19610   3.22106   3.22163
 Alpha virt. eigenvalues --    3.37597   3.55493   3.56916   3.83487   3.89964
 Alpha virt. eigenvalues --    4.32301
          Condensed to atoms (all electrons):
 Mulliken charges:
               1
     1  C   -0.643863
     2  C    0.965489
     3  C    0.965489
     4  C   -0.012753
     5  C   -0.012753
     6  C    0.520307
     7  C    0.520307
     8  N   -0.861843
     9  H   -0.417473
    10  H   -0.540273
    11  H   -0.540273
    12  H    0.073092
    13  H    0.073092
    14  H   -0.117364
    15  H   -0.117364
    16  H    0.073092
    17  H    0.073092
 Sum of Mulliken charges =  -0.00000
 Mulliken charges with hydrogens summed into heavy atoms:
               1
     1  C   -1.061336
     2  C    0.425216
     3  C    0.425216
     4  C   -0.012753
     5  C   -0.012753
     6  C    0.549127
     7  C    0.549127
     8  N   -0.861843
 Electronic spatial extent (au):  <R**2>=            976.4996
 Charge=             -0.0000 electrons
 Dipole moment (field-independent basis, Debye):
    X=              0.0000    Y=             -0.0000    Z=             -1.5243  Tot=              1.5243
 Unable to Open any file for archive entry.
 1\1\GINC-SE040\Stability\RHF\Aug-CC-pVDZ\C7H9N1\OHZDE\05-Apr-2025\0\\#
 t hf aug-cc-pvdz symm=none int=(grid=ultrafine) guess=(read,tcheck) st
 able=(opt,rrhf)\\title\\0,1\C,0,0.,0.,-1.831849\C,0,0.,1.195324,-1.129
 066\C,0,0.,-1.195324,-1.129066\C,0,0.,1.155404,0.265392\C,0,0.,-1.1554
 04,0.265392\C,0,0.,2.411589,1.091716\C,0,0.,-2.411589,1.091716\N,0,0.,
 0.,0.937784\H,0,0.,0.,-2.914051\H,0,0.,2.144159,-1.647425\H,0,0.,-2.14
 4159,-1.647425\H,0,-0.876787,2.43635,1.740225\H,0,0.876787,2.43635,1.7
 40225\H,0,0.,3.304826,0.469053\H,0,0.,-3.304826,0.469053\H,0,0.876787,
 -2.43635,1.740225\H,0,-0.876787,-2.43635,1.740225\\Version=ES64L-G16Re
 vC.01\HF=-324.8135389\RMSD=7.364e-09\Dipole=0.,0.,-0.5996975\Quadrupol
 e=-3.2677183,3.5010331,-0.2333148,0.,0.,0.\PG=Unknown\\@
 The archive entry for this job was punched.


 WE'RE IN THE POSITION OF A VISITOR FROM ANOTHER
 DIMENSION WHO COMES TO EARTH AND SEES A CHESS MATCH.
 ASSUMING HE KNOWS IT'S A GAME, HE'S GOT TWO PROBLEMS:
 FIRST, FIGURE OUT THE RULES, AND SECOND, FIGURE OUT HOW TO WIN.
 NINETY PERCENT OF SCIENCE (INCLUDING VIRTUALLY ALL OF CHEMISRY)
 IS IN THAT SECOND CATEGORY.  THEY'RE TRYING TO APPLY
 THE LAWS THAT ARE ALREADY KNOWN.

                     -- SHELDON GLASHOW, 1979
 Job cpu time:       0 days  0 hours 11 minutes 53.0 seconds.
 Elapsed time:       0 days  0 hours  1 minutes 21.2 seconds.
 File lengths (MBytes):  RWF=    295 Int=      0 D2E=      0 Chk=     10 Scr=      1
 Normal termination of Gaussian 16 at Sat Apr  5 22:24:42 2025.
 Initial command:
 /arc/software/Gaussian/g16.c01/l1.exe "/tmp/slurm/4814680/Gau-2434420.inp" -scrdir="/tmp/slurm/4814680/"
 Entering Link 1 = /arc/software/Gaussian/g16.c01/l1.exe PID=   2435139.
  
 Copyright (c) 1988-2019, Gaussian, Inc.  All Rights Reserved.
  
 This is part of the Gaussian(R) 16 program.  It is based on
 the Gaussian(R) 09 system (copyright 2009, Gaussian, Inc.),
 the Gaussian(R) 03 system (copyright 2003, Gaussian, Inc.),
 the Gaussian(R) 98 system (copyright 1998, Gaussian, Inc.),
 the Gaussian(R) 94 system (copyright 1995, Gaussian, Inc.),
 the Gaussian 92(TM) system (copyright 1992, Gaussian, Inc.),
 the Gaussian 90(TM) system (copyright 1990, Gaussian, Inc.),
 the Gaussian 88(TM) system (copyright 1988, Gaussian, Inc.),
 the Gaussian 86(TM) system (copyright 1986, Carnegie Mellon
 University), and the Gaussian 82(TM) system (copyright 1983,
 Carnegie Mellon University). Gaussian is a federally registered
 trademark of Gaussian, Inc.
  
 This software contains proprietary and confidential information,
 including trade secrets, belonging to Gaussian, Inc.
  
 This software is provided under written license and may be
 used, copied, transmitted, or stored only in accord with that
 written license.
  
 The following legend is applicable only to US Government
 contracts under FAR:
  
                    RESTRICTED RIGHTS LEGEND
  
 Use, reproduction and disclosure by the US Government is
 subject to restrictions as set forth in subparagraphs (a)
 and (c) of the Commercial Computer Software - Restricted
 Rights clause in FAR 52.227-19.
  
 Gaussian, Inc.
 340 Quinnipiac St., Bldg. 40, Wallingford CT 06492
  
  
 ---------------------------------------------------------------
 Warning -- This program may not be used in any manner that
 competes with the business of Gaussian, Inc. or will provide
 assistance to any competitor of Gaussian, Inc.  The licensee
 of this program is prohibited from giving any competitor of
 Gaussian, Inc. access to this program.  By using this program,
 the user acknowledges that Gaussian, Inc. is engaged in the
 business of creating and licensing software in the field of
 computational chemistry and represents and warrants to the
 licensee that it is not a competitor of Gaussian, Inc. and that
 it will not use this program in any manner prohibited above.
 ---------------------------------------------------------------
  

 Cite this work as:
 Gaussian 16, Revision C.01,
 M. J. Frisch, G. W. Trucks, H. B. Schlegel, G. E. Scuseria, 
 M. A. Robb, J. R. Cheeseman, G. Scalmani, V. Barone, 
 G. A. Petersson, H. Nakatsuji, X. Li, M. Caricato, A. V. Marenich, 
 J. Bloino, B. G. Janesko, R. Gomperts, B. Mennucci, H. P. Hratchian, 
 J. V. Ortiz, A. F. Izmaylov, J. L. Sonnenberg, D. Williams-Young, 
 F. Ding, F. Lipparini, F. Egidi, J. Goings, B. Peng, A. Petrone, 
 T. Henderson, D. Ranasinghe, V. G. Zakrzewski, J. Gao, N. Rega, 
 G. Zheng, W. Liang, M. Hada, M. Ehara, K. Toyota, R. Fukuda, 
 J. Hasegawa, M. Ishida, T. Nakajima, Y. Honda, O. Kitao, H. Nakai, 
 T. Vreven, K. Throssell, J. A. Montgomery, Jr., J. E. Peralta, 
 F. Ogliaro, M. J. Bearpark, J. J. Heyd, E. N. Brothers, K. N. Kudin, 
 V. N. Staroverov, T. A. Keith, R. Kobayashi, J. Normand, 
 K. Raghavachari, A. P. Rendell, J. C. Burant, S. S. Iyengar, 
 J. Tomasi, M. Cossi, J. M. Millam, M. Klene, C. Adamo, R. Cammi, 
 J. W. Ochterski, R. L. Martin, K. Morokuma, O. Farkas, 
 J. B. Foresman, and D. J. Fox, Gaussian, Inc., Wallingford CT, 2019.
 
 ******************************************
 Gaussian 16:  ES64L-G16RevC.01  3-Jul-2019
                 5-Apr-2025 
 ******************************************
 %nprocs=16
 Will use up to   16 processors via shared memory.
 %mem=30GB
 %chk=2-6-dimethylpyridine.chk
 ----------------------------------------------------------------------
 #t hf aug-cc-pvdz iop(5/13=1,5/36=2,99/5=2) pseudo=read geom=check gue
 ss=(read,tcheck) scf=(maxcycle=1)
 ----------------------------------------------------------------------
 -----
 title
 -----
 Structure from the checkpoint file:  "2-6-dimethylpyridine.chk"
 Charge =  0 Multiplicity = 1
 Z-Matrix found in chk file.
 C,0,0.,0.,-1.831849
 C,0,0.,1.195324,-1.129066
 C,0,0.,-1.195324,-1.129066
 C,0,0.,1.155404,0.265392
 C,0,0.,-1.155404,0.265392
 C,0,0.,2.411589,1.091716
 C,0,0.,-2.411589,1.091716
 N,0,0.,0.,0.937784
 H,0,0.,0.,-2.914051
 H,0,0.,2.144159,-1.647425
 H,0,0.,-2.144159,-1.647425
 H,0,-0.876787,2.43635,1.740225
 H,0,0.876787,2.43635,1.740225
 H,0,0.,3.304826,0.469053
 H,0,0.,-3.304826,0.469053
 H,0,0.876787,-2.43635,1.740225
 H,0,-0.876787,-2.43635,1.740225
 Recover connectivity data from disk.
                    Distance matrix (angstroms):
                    1          2          3          4          5
     1  C    0.000000
     2  C    1.386616   0.000000
     3  C    1.386616   2.390648   0.000000
     4  C    2.394447   1.395029   2.733210   0.000000
     5  C    2.394447   2.733210   1.395029   2.310808   0.000000
     6  C    3.789854   2.532029   4.235764   1.503600   3.661455
     7  C    3.789854   4.235764   2.532029   3.661455   1.503600
     8  N    2.769633   2.387607   2.387607   1.336813   1.336813
     9  H    1.082202   2.148248   2.148248   3.382871   3.382871
    10  H    2.152076   1.081196   3.379474   2.153255   3.813920
    11  H    2.152076   3.379474   1.081196   3.813920   2.153255
    12  H    4.411833   3.246803   4.710694   2.141194   3.980526
    13  H    4.411833   3.246803   4.710694   2.141194   3.980526
    14  H    4.026913   2.646504   4.775493   2.159049   4.464877
    15  H    4.026913   4.775493   2.646504   4.464877   2.159049
    16  H    4.411833   4.710694   3.246803   3.980526   2.141194
    17  H    4.411833   4.710694   3.246803   3.980526   2.141194
                    6          7          8          9         10
     6  C    0.000000
     7  C    4.823178   0.000000
     8  N    2.416497   2.416497   0.000000
     9  H    4.675674   4.675674   3.851835   0.000000
    10  H    2.752165   5.315800   3.358679   2.490333   0.000000
    11  H    5.315800   2.752165   3.358679   2.490333   4.288318
    12  H    1.090840   4.969088   2.710806   5.326053   3.511453
    13  H    1.090840   4.969088   2.710806   5.326053   3.511453
    14  H    1.088844   5.750227   3.337901   4.729405   2.413841
    15  H    5.750227   1.088844   3.337901   4.729405   5.845590
    16  H    4.969088   1.090840   2.710806   5.326053   5.764199
    17  H    4.969088   1.090840   2.710806   5.326053   5.764199
                   11         12         13         14         15
    11  H    0.000000
    12  H    5.764199   0.000000
    13  H    5.764199   1.753574   0.000000
    14  H    5.845590   1.771690   1.771690   0.000000
    15  H    2.413841   5.945228   5.945228   6.609652   0.000000
    16  H    3.511453   5.178632   4.872700   5.945228   1.771690
    17  H    3.511453   4.872700   5.178632   5.945228   1.771690
                   16         17
    16  H    0.000000
    17  H    1.753574   0.000000
 Framework group  C2V[C2(HCN),SGV(C6H4),X(H4)]
 Deg. of freedom    15
                         Standard orientation:                         
 ---------------------------------------------------------------------
 Center     Atomic      Atomic             Coordinates (Angstroms)
 Number     Number       Type             X           Y           Z
 ---------------------------------------------------------------------
      1          6           0        0.000000    0.000000   -1.831849
      2          6           0        0.000000    1.195324   -1.129066
      3          6           0       -0.000000   -1.195324   -1.129066
      4          6           0        0.000000    1.155404    0.265392
      5          6           0       -0.000000   -1.155404    0.265392
      6          6           0        0.000000    2.411589    1.091716
      7          6           0       -0.000000   -2.411589    1.091716
      8          7           0       -0.000000   -0.000000    0.937784
      9          1           0        0.000000    0.000000   -2.914051
     10          1           0        0.000000    2.144159   -1.647425
     11          1           0       -0.000000   -2.144159   -1.647425
     12          1           0       -0.876787    2.436350    1.740225
     13          1           0        0.876787    2.436350    1.740225
     14          1           0        0.000000    3.304826    0.469053
     15          1           0       -0.000000   -3.304826    0.469053
     16          1           0        0.876787   -2.436350    1.740225
     17          1           0       -0.876787   -2.436350    1.740225
 ---------------------------------------------------------------------
 Rotational constants (GHZ):           3.5285465           1.9127349           1.2595251
 ======================================================================================================
                                       Pseudopotential Parameters
 ======================================================================================================
  Center     Atomic      Valence      Angular      Power
  Number     Number     Electrons     Momentum     of R      Exponent        Coefficient   SO-Coeffient
 ======================================================================================================
    1          6            6
                                      G and up 
                                                     0        0.0000010       -0.00011185    0.00000000
                                                     2        0.1200000       -0.02301220    0.00000000
                                                     2        0.1400000        0.13317600    0.00000000
                                                     2        0.1600000       -0.19690668    0.00000000
                                                     2        0.2200000        0.23163694    0.00000000
                                                     2        0.3000000       -0.36920489    0.00000000
                                                     2        0.4000000        0.36389709    0.00000000
                                                     2        0.7000000       -0.38862160    0.00000000
                                                     2        1.3000000        0.80803421    0.00000000
                                      S - G
                                                     0        0.0000010        0.00312304    0.00000000
                                                     2        0.1200000       -0.00632892    0.00000000
                                                     2        0.2200000       -0.03780897    0.00000000
                                                     2        0.4000000        0.26269560    0.00000000
                                                     2        0.9000000       -0.28209514    0.00000000
                                                     2        1.5000000       -0.72686737    0.00000000
                                      P - G
                                                     0        0.0000010       -0.01465594    0.00000000
                                                     2        0.1200000        0.07908409    0.00000000
                                                     2        0.1800000       -0.30615861    0.00000000
                                                     2        0.2600000        0.41506950    0.00000000
                                                     2        0.5000000       -0.36252345    0.00000000
                                                     2        0.9000000        0.15124193    0.00000000
                                                     2        3.0000000       -0.80425677    0.00000000
                                      D - G
                                                     0        0.0000010        0.01149631    0.00000000
                                                     2        0.1200000       -0.04713561    0.00000000
                                                     2        0.1600000        0.10865096    0.00000000
                                                     2        0.2800000       -0.15816701    0.00000000
                                                     2        0.7000000        0.65478804    0.00000000
                                                     2        1.3000000       -1.73816624    0.00000000
                                      F - G
                                                     0        0.0000010        0.00481868    0.00000000
                                                     2        0.1200000       -0.04746842    0.00000000
                                                     2        0.1600000        0.09327889    0.00000000
                                                     2        0.4000000       -0.19693326    0.00000000
                                                     2        0.9000000        0.34938253    0.00000000
    2          6            6
                                      G and up 
                                                     0        0.0000010       -0.00011185    0.00000000
                                                     2        0.1200000       -0.02301220    0.00000000
                                                     2        0.1400000        0.13317600    0.00000000
                                                     2        0.1600000       -0.19690668    0.00000000
                                                     2        0.2200000        0.23163694    0.00000000
                                                     2        0.3000000       -0.36920489    0.00000000
                                                     2        0.4000000        0.36389709    0.00000000
                                                     2        0.7000000       -0.38862160    0.00000000
                                                     2        1.3000000        0.80803421    0.00000000
                                      S - G
                                                     0        0.0000010        0.00312304    0.00000000
                                                     2        0.1200000       -0.00632892    0.00000000
                                                     2        0.2200000       -0.03780897    0.00000000
                                                     2        0.4000000        0.26269560    0.00000000
                                                     2        0.9000000       -0.28209514    0.00000000
                                                     2        1.5000000       -0.72686737    0.00000000
                                      P - G
                                                     0        0.0000010       -0.01465594    0.00000000
                                                     2        0.1200000        0.07908409    0.00000000
                                                     2        0.1800000       -0.30615861    0.00000000
                                                     2        0.2600000        0.41506950    0.00000000
                                                     2        0.5000000       -0.36252345    0.00000000
                                                     2        0.9000000        0.15124193    0.00000000
                                                     2        3.0000000       -0.80425677    0.00000000
                                      D - G
                                                     0        0.0000010        0.01149631    0.00000000
                                                     2        0.1200000       -0.04713561    0.00000000
                                                     2        0.1600000        0.10865096    0.00000000
                                                     2        0.2800000       -0.15816701    0.00000000
                                                     2        0.7000000        0.65478804    0.00000000
                                                     2        1.3000000       -1.73816624    0.00000000
                                      F - G
                                                     0        0.0000010        0.00481868    0.00000000
                                                     2        0.1200000       -0.04746842    0.00000000
                                                     2        0.1600000        0.09327889    0.00000000
                                                     2        0.4000000       -0.19693326    0.00000000
                                                     2        0.9000000        0.34938253    0.00000000
    3          6            6
                                      G and up 
                                                     0        0.0000010       -0.00011185    0.00000000
                                                     2        0.1200000       -0.02301220    0.00000000
                                                     2        0.1400000        0.13317600    0.00000000
                                                     2        0.1600000       -0.19690668    0.00000000
                                                     2        0.2200000        0.23163694    0.00000000
                                                     2        0.3000000       -0.36920489    0.00000000
                                                     2        0.4000000        0.36389709    0.00000000
                                                     2        0.7000000       -0.38862160    0.00000000
                                                     2        1.3000000        0.80803421    0.00000000
                                      S - G
                                                     0        0.0000010        0.00312304    0.00000000
                                                     2        0.1200000       -0.00632892    0.00000000
                                                     2        0.2200000       -0.03780897    0.00000000
                                                     2        0.4000000        0.26269560    0.00000000
                                                     2        0.9000000       -0.28209514    0.00000000
                                                     2        1.5000000       -0.72686737    0.00000000
                                      P - G
                                                     0        0.0000010       -0.01465594    0.00000000
                                                     2        0.1200000        0.07908409    0.00000000
                                                     2        0.1800000       -0.30615861    0.00000000
                                                     2        0.2600000        0.41506950    0.00000000
                                                     2        0.5000000       -0.36252345    0.00000000
                                                     2        0.9000000        0.15124193    0.00000000
                                                     2        3.0000000       -0.80425677    0.00000000
                                      D - G
                                                     0        0.0000010        0.01149631    0.00000000
                                                     2        0.1200000       -0.04713561    0.00000000
                                                     2        0.1600000        0.10865096    0.00000000
                                                     2        0.2800000       -0.15816701    0.00000000
                                                     2        0.7000000        0.65478804    0.00000000
                                                     2        1.3000000       -1.73816624    0.00000000
                                      F - G
                                                     0        0.0000010        0.00481868    0.00000000
                                                     2        0.1200000       -0.04746842    0.00000000
                                                     2        0.1600000        0.09327889    0.00000000
                                                     2        0.4000000       -0.19693326    0.00000000
                                                     2        0.9000000        0.34938253    0.00000000
    4          6            6
                                      G and up 
                                                     0        0.0000010       -0.00011185    0.00000000
                                                     2        0.1200000       -0.02301220    0.00000000
                                                     2        0.1400000        0.13317600    0.00000000
                                                     2        0.1600000       -0.19690668    0.00000000
                                                     2        0.2200000        0.23163694    0.00000000
                                                     2        0.3000000       -0.36920489    0.00000000
                                                     2        0.4000000        0.36389709    0.00000000
                                                     2        0.7000000       -0.38862160    0.00000000
                                                     2        1.3000000        0.80803421    0.00000000
                                      S - G
                                                     0        0.0000010        0.00312304    0.00000000
                                                     2        0.1200000       -0.00632892    0.00000000
                                                     2        0.2200000       -0.03780897    0.00000000
                                                     2        0.4000000        0.26269560    0.00000000
                                                     2        0.9000000       -0.28209514    0.00000000
                                                     2        1.5000000       -0.72686737    0.00000000
                                      P - G
                                                     0        0.0000010       -0.01465594    0.00000000
                                                     2        0.1200000        0.07908409    0.00000000
                                                     2        0.1800000       -0.30615861    0.00000000
                                                     2        0.2600000        0.41506950    0.00000000
                                                     2        0.5000000       -0.36252345    0.00000000
                                                     2        0.9000000        0.15124193    0.00000000
                                                     2        3.0000000       -0.80425677    0.00000000
                                      D - G
                                                     0        0.0000010        0.01149631    0.00000000
                                                     2        0.1200000       -0.04713561    0.00000000
                                                     2        0.1600000        0.10865096    0.00000000
                                                     2        0.2800000       -0.15816701    0.00000000
                                                     2        0.7000000        0.65478804    0.00000000
                                                     2        1.3000000       -1.73816624    0.00000000
                                      F - G
                                                     0        0.0000010        0.00481868    0.00000000
                                                     2        0.1200000       -0.04746842    0.00000000
                                                     2        0.1600000        0.09327889    0.00000000
                                                     2        0.4000000       -0.19693326    0.00000000
                                                     2        0.9000000        0.34938253    0.00000000
    5          6            6
                                      G and up 
                                                     0        0.0000010       -0.00011185    0.00000000
                                                     2        0.1200000       -0.02301220    0.00000000
                                                     2        0.1400000        0.13317600    0.00000000
                                                     2        0.1600000       -0.19690668    0.00000000
                                                     2        0.2200000        0.23163694    0.00000000
                                                     2        0.3000000       -0.36920489    0.00000000
                                                     2        0.4000000        0.36389709    0.00000000
                                                     2        0.7000000       -0.38862160    0.00000000
                                                     2        1.3000000        0.80803421    0.00000000
                                      S - G
                                                     0        0.0000010        0.00312304    0.00000000
                                                     2        0.1200000       -0.00632892    0.00000000
                                                     2        0.2200000       -0.03780897    0.00000000
                                                     2        0.4000000        0.26269560    0.00000000
                                                     2        0.9000000       -0.28209514    0.00000000
                                                     2        1.5000000       -0.72686737    0.00000000
                                      P - G
                                                     0        0.0000010       -0.01465594    0.00000000
                                                     2        0.1200000        0.07908409    0.00000000
                                                     2        0.1800000       -0.30615861    0.00000000
                                                     2        0.2600000        0.41506950    0.00000000
                                                     2        0.5000000       -0.36252345    0.00000000
                                                     2        0.9000000        0.15124193    0.00000000
                                                     2        3.0000000       -0.80425677    0.00000000
                                      D - G
                                                     0        0.0000010        0.01149631    0.00000000
                                                     2        0.1200000       -0.04713561    0.00000000
                                                     2        0.1600000        0.10865096    0.00000000
                                                     2        0.2800000       -0.15816701    0.00000000
                                                     2        0.7000000        0.65478804    0.00000000
                                                     2        1.3000000       -1.73816624    0.00000000
                                      F - G
                                                     0        0.0000010        0.00481868    0.00000000
                                                     2        0.1200000       -0.04746842    0.00000000
                                                     2        0.1600000        0.09327889    0.00000000
                                                     2        0.4000000       -0.19693326    0.00000000
                                                     2        0.9000000        0.34938253    0.00000000
    6          6            6
                                      G and up 
                                                     0        0.0000010       -0.00011185    0.00000000
                                                     2        0.1200000       -0.02301220    0.00000000
                                                     2        0.1400000        0.13317600    0.00000000
                                                     2        0.1600000       -0.19690668    0.00000000
                                                     2        0.2200000        0.23163694    0.00000000
                                                     2        0.3000000       -0.36920489    0.00000000
                                                     2        0.4000000        0.36389709    0.00000000
                                                     2        0.7000000       -0.38862160    0.00000000
                                                     2        1.3000000        0.80803421    0.00000000
                                      S - G
                                                     0        0.0000010        0.00312304    0.00000000
                                                     2        0.1200000       -0.00632892    0.00000000
                                                     2        0.2200000       -0.03780897    0.00000000
                                                     2        0.4000000        0.26269560    0.00000000
                                                     2        0.9000000       -0.28209514    0.00000000
                                                     2        1.5000000       -0.72686737    0.00000000
                                      P - G
                                                     0        0.0000010       -0.01465594    0.00000000
                                                     2        0.1200000        0.07908409    0.00000000
                                                     2        0.1800000       -0.30615861    0.00000000
                                                     2        0.2600000        0.41506950    0.00000000
                                                     2        0.5000000       -0.36252345    0.00000000
                                                     2        0.9000000        0.15124193    0.00000000
                                                     2        3.0000000       -0.80425677    0.00000000
                                      D - G
                                                     0        0.0000010        0.01149631    0.00000000
                                                     2        0.1200000       -0.04713561    0.00000000
                                                     2        0.1600000        0.10865096    0.00000000
                                                     2        0.2800000       -0.15816701    0.00000000
                                                     2        0.7000000        0.65478804    0.00000000
                                                     2        1.3000000       -1.73816624    0.00000000
                                      F - G
                                                     0        0.0000010        0.00481868    0.00000000
                                                     2        0.1200000       -0.04746842    0.00000000
                                                     2        0.1600000        0.09327889    0.00000000
                                                     2        0.4000000       -0.19693326    0.00000000
                                                     2        0.9000000        0.34938253    0.00000000
    7          6            6
                                      G and up 
                                                     0        0.0000010       -0.00011185    0.00000000
                                                     2        0.1200000       -0.02301220    0.00000000
                                                     2        0.1400000        0.13317600    0.00000000
                                                     2        0.1600000       -0.19690668    0.00000000
                                                     2        0.2200000        0.23163694    0.00000000
                                                     2        0.3000000       -0.36920489    0.00000000
                                                     2        0.4000000        0.36389709    0.00000000
                                                     2        0.7000000       -0.38862160    0.00000000
                                                     2        1.3000000        0.80803421    0.00000000
                                      S - G
                                                     0        0.0000010        0.00312304    0.00000000
                                                     2        0.1200000       -0.00632892    0.00000000
                                                     2        0.2200000       -0.03780897    0.00000000
                                                     2        0.4000000        0.26269560    0.00000000
                                                     2        0.9000000       -0.28209514    0.00000000
                                                     2        1.5000000       -0.72686737    0.00000000
                                      P - G
                                                     0        0.0000010       -0.01465594    0.00000000
                                                     2        0.1200000        0.07908409    0.00000000
                                                     2        0.1800000       -0.30615861    0.00000000
                                                     2        0.2600000        0.41506950    0.00000000
                                                     2        0.5000000       -0.36252345    0.00000000
                                                     2        0.9000000        0.15124193    0.00000000
                                                     2        3.0000000       -0.80425677    0.00000000
                                      D - G
                                                     0        0.0000010        0.01149631    0.00000000
                                                     2        0.1200000       -0.04713561    0.00000000
                                                     2        0.1600000        0.10865096    0.00000000
                                                     2        0.2800000       -0.15816701    0.00000000
                                                     2        0.7000000        0.65478804    0.00000000
                                                     2        1.3000000       -1.73816624    0.00000000
                                      F - G
                                                     0        0.0000010        0.00481868    0.00000000
                                                     2        0.1200000       -0.04746842    0.00000000
                                                     2        0.1600000        0.09327889    0.00000000
                                                     2        0.4000000       -0.19693326    0.00000000
                                                     2        0.9000000        0.34938253    0.00000000
    8          7            7
                                      G and up 
                                                     0        0.0000010       -0.00000022    0.00000000
                                                     2        0.1200000       -0.00992020    0.00000000
                                                     2        0.1400000        0.02578711    0.00000000
                                                     2        0.2200000       -0.10543517    0.00000000
                                                     2        0.3000000        0.23013665    0.00000000
                                                     2        0.5000000       -0.60834094    0.00000000
                                                     2        0.8000000        1.81436815    0.00000000
                                                     2        1.2000000       -3.87539738    0.00000000
                                                     2        2.0000000        2.94656640    0.00000000
                                      S - G
                                                     0        0.0000010       -0.00223566    0.00000000
                                                     2        0.1200000        0.45247937    0.00000000
                                                     2        0.1600000       -0.78978304    0.00000000
                                                     2        0.4000000        0.84956595    0.00000000
                                                     2        3.0000000       -0.75910174    0.00000000
                                      P - G
                                                     0        0.0000010       -0.25576737    0.00000000
                                                     2        0.1200000       -0.19992277    0.00000000
                                                     2        0.1600000        0.88518512    0.00000000
                                                     2        0.2400000       -1.33293917    0.00000000
                                                     2        0.4000000        1.33451776    0.00000000
                                                     2        0.9000000       -0.55709210    0.00000000
                                                     2        2.5000000        2.48506502    0.00000000
                                      D - G
                                                     0        0.0000010        0.26143746    0.00000000
                                                     2        0.1200000       -0.04492212    0.00000000
                                                     2        0.1400000       -0.18274021    0.00000000
                                                     2        0.2400000        0.53490004    0.00000000
                                                     2        0.4000000       -0.74136473    0.00000000
                                                     2        1.3000000        1.71401021    0.00000000
                                      F - G
                                                     0        0.0000010       -0.07169988    0.00000000
                                                     2        0.1200000        0.04480029    0.00000000
                                                     2        0.2600000       -0.08050831    0.00000000
                                                     2        0.5000000        0.31290809    0.00000000
                                                     2        1.0000000       -0.45253098    0.00000000
    9          1            1
                                      F and up 
                                                     0        0.0000010       -0.00000699    0.00000000
                                                     2        0.1200000        0.00123686    0.00000000
                                                     2        0.1800000       -0.00752022    0.00000000
                                                     2        0.2600000        0.02503380    0.00000000
                                                     2        0.4000000       -0.08702670    0.00000000
                                                     2        0.6000000        0.30134159    0.00000000
                                                     2        0.8000000       -0.50204959    0.00000000
                                                     2        1.2000000        0.52208372    0.00000000
                                      S - F
                                                     0        0.0000010       -0.01618346    0.00000000
                                                     2        0.1200000       -0.07880581    0.00000000
                                                     2        0.1600000        0.32040539    0.00000000
                                                     2        0.2400000       -0.47500956    0.00000000
                                                     2        0.5000000        0.54013668    0.00000000
                                                     2        1.5000000       -1.40434292    0.00000000
                                                     2        3.0000000        1.46283806    0.00000000
                                      P - F
                                                     0        0.0000010        0.00612970    0.00000000
                                                     2        0.1200000        0.02254406    0.00000000
                                                     2        0.1800000       -0.13874529    0.00000000
                                                     2        0.3000000        0.38299049    0.00000000
                                                     2        0.5000000       -0.57923512    0.00000000
                                                     2        1.0000000        0.63021625    0.00000000
                                                     2        2.0000000       -0.79201034    0.00000000
                                      D - F
                                                     0        0.0000010       -0.00296226    0.00000000
                                                     2        0.1200000       -0.00547344    0.00000000
                                                     2        0.1400000        0.01837884    0.00000000
                                                     2        0.2400000       -0.05565704    0.00000000
                                                     2        0.4000000        0.15376597    0.00000000
                                                     2        0.8000000       -0.32464795    0.00000000
   10          1            1
                                      F and up 
                                                     0        0.0000010       -0.00000699    0.00000000
                                                     2        0.1200000        0.00123686    0.00000000
                                                     2        0.1800000       -0.00752022    0.00000000
                                                     2        0.2600000        0.02503380    0.00000000
                                                     2        0.4000000       -0.08702670    0.00000000
                                                     2        0.6000000        0.30134159    0.00000000
                                                     2        0.8000000       -0.50204959    0.00000000
                                                     2        1.2000000        0.52208372    0.00000000
                                      S - F
                                                     0        0.0000010       -0.01618346    0.00000000
                                                     2        0.1200000       -0.07880581    0.00000000
                                                     2        0.1600000        0.32040539    0.00000000
                                                     2        0.2400000       -0.47500956    0.00000000
                                                     2        0.5000000        0.54013668    0.00000000
                                                     2        1.5000000       -1.40434292    0.00000000
                                                     2        3.0000000        1.46283806    0.00000000
                                      P - F
                                                     0        0.0000010        0.00612970    0.00000000
                                                     2        0.1200000        0.02254406    0.00000000
                                                     2        0.1800000       -0.13874529    0.00000000
                                                     2        0.3000000        0.38299049    0.00000000
                                                     2        0.5000000       -0.57923512    0.00000000
                                                     2        1.0000000        0.63021625    0.00000000
                                                     2        2.0000000       -0.79201034    0.00000000
                                      D - F
                                                     0        0.0000010       -0.00296226    0.00000000
                                                     2        0.1200000       -0.00547344    0.00000000
                                                     2        0.1400000        0.01837884    0.00000000
                                                     2        0.2400000       -0.05565704    0.00000000
                                                     2        0.4000000        0.15376597    0.00000000
                                                     2        0.8000000       -0.32464795    0.00000000
   11          1            1
                                      F and up 
                                                     0        0.0000010       -0.00000699    0.00000000
                                                     2        0.1200000        0.00123686    0.00000000
                                                     2        0.1800000       -0.00752022    0.00000000
                                                     2        0.2600000        0.02503380    0.00000000
                                                     2        0.4000000       -0.08702670    0.00000000
                                                     2        0.6000000        0.30134159    0.00000000
                                                     2        0.8000000       -0.50204959    0.00000000
                                                     2        1.2000000        0.52208372    0.00000000
                                      S - F
                                                     0        0.0000010       -0.01618346    0.00000000
                                                     2        0.1200000       -0.07880581    0.00000000
                                                     2        0.1600000        0.32040539    0.00000000
                                                     2        0.2400000       -0.47500956    0.00000000
                                                     2        0.5000000        0.54013668    0.00000000
                                                     2        1.5000000       -1.40434292    0.00000000
                                                     2        3.0000000        1.46283806    0.00000000
                                      P - F
                                                     0        0.0000010        0.00612970    0.00000000
                                                     2        0.1200000        0.02254406    0.00000000
                                                     2        0.1800000       -0.13874529    0.00000000
                                                     2        0.3000000        0.38299049    0.00000000
                                                     2        0.5000000       -0.57923512    0.00000000
                                                     2        1.0000000        0.63021625    0.00000000
                                                     2        2.0000000       -0.79201034    0.00000000
                                      D - F
                                                     0        0.0000010       -0.00296226    0.00000000
                                                     2        0.1200000       -0.00547344    0.00000000
                                                     2        0.1400000        0.01837884    0.00000000
                                                     2        0.2400000       -0.05565704    0.00000000
                                                     2        0.4000000        0.15376597    0.00000000
                                                     2        0.8000000       -0.32464795    0.00000000
   12          1            1
                                      F and up 
                                                     0        0.0000010       -0.00000699    0.00000000
                                                     2        0.1200000        0.00123686    0.00000000
                                                     2        0.1800000       -0.00752022    0.00000000
                                                     2        0.2600000        0.02503380    0.00000000
                                                     2        0.4000000       -0.08702670    0.00000000
                                                     2        0.6000000        0.30134159    0.00000000
                                                     2        0.8000000       -0.50204959    0.00000000
                                                     2        1.2000000        0.52208372    0.00000000
                                      S - F
                                                     0        0.0000010       -0.01618346    0.00000000
                                                     2        0.1200000       -0.07880581    0.00000000
                                                     2        0.1600000        0.32040539    0.00000000
                                                     2        0.2400000       -0.47500956    0.00000000
                                                     2        0.5000000        0.54013668    0.00000000
                                                     2        1.5000000       -1.40434292    0.00000000
                                                     2        3.0000000        1.46283806    0.00000000
                                      P - F
                                                     0        0.0000010        0.00612970    0.00000000
                                                     2        0.1200000        0.02254406    0.00000000
                                                     2        0.1800000       -0.13874529    0.00000000
                                                     2        0.3000000        0.38299049    0.00000000
                                                     2        0.5000000       -0.57923512    0.00000000
                                                     2        1.0000000        0.63021625    0.00000000
                                                     2        2.0000000       -0.79201034    0.00000000
                                      D - F
                                                     0        0.0000010       -0.00296226    0.00000000
                                                     2        0.1200000       -0.00547344    0.00000000
                                                     2        0.1400000        0.01837884    0.00000000
                                                     2        0.2400000       -0.05565704    0.00000000
                                                     2        0.4000000        0.15376597    0.00000000
                                                     2        0.8000000       -0.32464795    0.00000000
   13          1            1
                                      F and up 
                                                     0        0.0000010       -0.00000699    0.00000000
                                                     2        0.1200000        0.00123686    0.00000000
                                                     2        0.1800000       -0.00752022    0.00000000
                                                     2        0.2600000        0.02503380    0.00000000
                                                     2        0.4000000       -0.08702670    0.00000000
                                                     2        0.6000000        0.30134159    0.00000000
                                                     2        0.8000000       -0.50204959    0.00000000
                                                     2        1.2000000        0.52208372    0.00000000
                                      S - F
                                                     0        0.0000010       -0.01618346    0.00000000
                                                     2        0.1200000       -0.07880581    0.00000000
                                                     2        0.1600000        0.32040539    0.00000000
                                                     2        0.2400000       -0.47500956    0.00000000
                                                     2        0.5000000        0.54013668    0.00000000
                                                     2        1.5000000       -1.40434292    0.00000000
                                                     2        3.0000000        1.46283806    0.00000000
                                      P - F
                                                     0        0.0000010        0.00612970    0.00000000
                                                     2        0.1200000        0.02254406    0.00000000
                                                     2        0.1800000       -0.13874529    0.00000000
                                                     2        0.3000000        0.38299049    0.00000000
                                                     2        0.5000000       -0.57923512    0.00000000
                                                     2        1.0000000        0.63021625    0.00000000
                                                     2        2.0000000       -0.79201034    0.00000000
                                      D - F
                                                     0        0.0000010       -0.00296226    0.00000000
                                                     2        0.1200000       -0.00547344    0.00000000
                                                     2        0.1400000        0.01837884    0.00000000
                                                     2        0.2400000       -0.05565704    0.00000000
                                                     2        0.4000000        0.15376597    0.00000000
                                                     2        0.8000000       -0.32464795    0.00000000
   14          1            1
                                      F and up 
                                                     0        0.0000010       -0.00000699    0.00000000
                                                     2        0.1200000        0.00123686    0.00000000
                                                     2        0.1800000       -0.00752022    0.00000000
                                                     2        0.2600000        0.02503380    0.00000000
                                                     2        0.4000000       -0.08702670    0.00000000
                                                     2        0.6000000        0.30134159    0.00000000
                                                     2        0.8000000       -0.50204959    0.00000000
                                                     2        1.2000000        0.52208372    0.00000000
                                      S - F
                                                     0        0.0000010       -0.01618346    0.00000000
                                                     2        0.1200000       -0.07880581    0.00000000
                                                     2        0.1600000        0.32040539    0.00000000
                                                     2        0.2400000       -0.47500956    0.00000000
                                                     2        0.5000000        0.54013668    0.00000000
                                                     2        1.5000000       -1.40434292    0.00000000
                                                     2        3.0000000        1.46283806    0.00000000
                                      P - F
                                                     0        0.0000010        0.00612970    0.00000000
                                                     2        0.1200000        0.02254406    0.00000000
                                                     2        0.1800000       -0.13874529    0.00000000
                                                     2        0.3000000        0.38299049    0.00000000
                                                     2        0.5000000       -0.57923512    0.00000000
                                                     2        1.0000000        0.63021625    0.00000000
                                                     2        2.0000000       -0.79201034    0.00000000
                                      D - F
                                                     0        0.0000010       -0.00296226    0.00000000
                                                     2        0.1200000       -0.00547344    0.00000000
                                                     2        0.1400000        0.01837884    0.00000000
                                                     2        0.2400000       -0.05565704    0.00000000
                                                     2        0.4000000        0.15376597    0.00000000
                                                     2        0.8000000       -0.32464795    0.00000000
   15          1            1
                                      F and up 
                                                     0        0.0000010       -0.00000699    0.00000000
[...]
                                                     2        0.6000000        0.30134159    0.00000000
                                                     2        0.8000000       -0.50204959    0.00000000
                                                     2        1.2000000        0.52208372    0.00000000
                                      S - F
                                                     0        0.0000010       -0.01618346    0.00000000
                                                     2        0.1200000       -0.07880581    0.00000000
                                                     2        0.1600000        0.32040539    0.00000000
                                                     2        0.2400000       -0.47500956    0.00000000
                                                     2        0.5000000        0.54013668    0.00000000
                                                     2        1.5000000       -1.40434292    0.00000000
                                                     2        3.0000000        1.46283806    0.00000000
                                      P - F
                                                     0        0.0000010        0.00612970    0.00000000
                                                     2        0.1200000        0.02254406    0.00000000
                                                     2        0.1800000       -0.13874529    0.00000000
                                                     2        0.3000000        0.38299049    0.00000000
                                                     2        0.5000000       -0.57923512    0.00000000
                                                     2        1.0000000        0.63021625    0.00000000
                                                     2        2.0000000       -0.79201034    0.00000000
                                      D - F
                                                     0        0.0000010       -0.00296226    0.00000000
                                                     2        0.1200000       -0.00547344    0.00000000
                                                     2        0.1400000        0.01837884    0.00000000
                                                     2        0.2400000       -0.05565704    0.00000000
                                                     2        0.4000000        0.15376597    0.00000000
                                                     2        0.8000000       -0.32464795    0.00000000
   16          1            1
                                      F and up 
                                                     0        0.0000010       -0.00000699    0.00000000
                                                     2        0.1200000        0.00123686    0.00000000
                                                     2        0.1800000       -0.00752022    0.00000000
                                                     2        0.2600000        0.02503380    0.00000000
                                                     2        0.4000000       -0.08702670    0.00000000
                                                     2        0.6000000        0.30134159    0.00000000
                                                     2        0.8000000       -0.50204959    0.00000000
                                                     2        1.2000000        0.52208372    0.00000000
                                      S - F
                                                     0        0.0000010       -0.01618346    0.00000000
                                                     2        0.1200000       -0.07880581    0.00000000
                                                     2        0.1600000        0.32040539    0.00000000
                                                     2        0.2400000       -0.47500956    0.00000000
                                                     2        0.5000000        0.54013668    0.00000000
                                                     2        1.5000000       -1.40434292    0.00000000
                                                     2        3.0000000        1.46283806    0.00000000
                                      P - F
                                                     0        0.0000010        0.00612970    0.00000000
                                                     2        0.1200000        0.02254406    0.00000000
                                                     2        0.1800000       -0.13874529    0.00000000
                                                     2        0.3000000        0.38299049    0.00000000
                                                     2        0.5000000       -0.57923512    0.00000000
                                                     2        1.0000000        0.63021625    0.00000000
                                                     2        2.0000000       -0.79201034    0.00000000
                                      D - F
                                                     0        0.0000010       -0.00296226    0.00000000
                                                     2        0.1200000       -0.00547344    0.00000000
                                                     2        0.1400000        0.01837884    0.00000000
                                                     2        0.2400000       -0.05565704    0.00000000
                                                     2        0.4000000        0.15376597    0.00000000
                                                     2        0.8000000       -0.32464795    0.00000000
   17          1            1
                                      F and up 
                                                     0        0.0000010       -0.00000699    0.00000000
                                                     2        0.1200000        0.00123686    0.00000000
                                                     2        0.1800000       -0.00752022    0.00000000
                                                     2        0.2600000        0.02503380    0.00000000
                                                     2        0.4000000       -0.08702670    0.00000000
                                                     2        0.6000000        0.30134159    0.00000000
                                                     2        0.8000000       -0.50204959    0.00000000
                                                     2        1.2000000        0.52208372    0.00000000
                                      S - F
                                                     0        0.0000010       -0.01618346    0.00000000
                                                     2        0.1200000       -0.07880581    0.00000000
                                                     2        0.1600000        0.32040539    0.00000000
                                                     2        0.2400000       -0.47500956    0.00000000
                                                     2        0.5000000        0.54013668    0.00000000
                                                     2        1.5000000       -1.40434292    0.00000000
                                                     2        3.0000000        1.46283806    0.00000000
                                      P - F
                                                     0        0.0000010        0.00612970    0.00000000
                                                     2        0.1200000        0.02254406    0.00000000
                                                     2        0.1800000       -0.13874529    0.00000000
                                                     2        0.3000000        0.38299049    0.00000000
                                                     2        0.5000000       -0.57923512    0.00000000
                                                     2        1.0000000        0.63021625    0.00000000
                                                     2        2.0000000       -0.79201034    0.00000000
                                      D - F
                                                     0        0.0000010       -0.00296226    0.00000000
                                                     2        0.1200000       -0.00547344    0.00000000
                                                     2        0.1400000        0.01837884    0.00000000
                                                     2        0.2400000       -0.05565704    0.00000000
                                                     2        0.4000000        0.15376597    0.00000000
                                                     2        0.8000000       -0.32464795    0.00000000
 ======================================================================================================
   265 basis functions,   443 primitive gaussians,   281 cartesian basis functions
    29 alpha electrons       29 beta electrons
       nuclear repulsion energy       346.5581293993 Hartrees.
 NAtoms=   17 NActive=   17 NUniq=    9 SFac= 3.57D+00 NAtFMM=   60 NAOKFM=F Big=F
   4 Symmetry operations used in ECPInt.
 ECPInt:  NShTT=    6903 NPrTT=   31015 LenC2=    6893 LenP2D=   24079.
 LDataN:  DoStor=T MaxTD1= 6 Len=  172
 Initial guess from the checkpoint file:  "2-6-dimethylpyridine.chk"
 B after Tr=    -0.000000    0.000000   -0.000000
         Rot=    1.000000   -0.000000    0.000000    0.000000 Ang=   0.00 deg.
 Initial guess orbital symmetries:
       Occupied  (A1) (B2) (A1) (A1) (B2) (A1) (B2) (A1) (A1) (A1)
                 (B2) (A1) (B2) (A1) (B2) (A1) (B2) (A1) (B1) (A1)
                 (B2) (A2) (B2) (A1) (B2) (B1) (A1) (B1) (A2)
       Virtual   (A1) (B2) (A1) (B2) (B1) (A1) (A2) (A1) (B2) (B1)
                 (A1) (A2) (B1) (B2) (A1) (B2) (A1) (B1) (B2) (A1)
                 (A2) (A1) (B2) (B1) (A1) (B2) (A2) (B2) (A1) (B1)
                 (A1) (A2) (A1) (B2) (B1) (B2) (A1) (A1) (B2) (A2)
                 (B1) (B2) (A1) (B2) (A1) (B1) (A1) (A1) (B2) (B1)
                 (A1) (B2) (B2) (B2) (A1) (A2) (A1) (B1) (A2) (B2)
                 (A1) (A1) (B1) (B2) (A1) (A2) (B1) (B2) (B2) (A2)
                 (A1) (B1) (B2) (A1) (A2) (B1) (A1) (A1) (B2) (A1)
                 (A2) (B1) (A1) (B2) (A2) (A1) (B2) (A1) (B1) (B2)
                 (B2) (A1) (A1) (B2) (A1) (B2) (B1) (B1) (A2) (B2)
                 (A1) (B2) (B1) (B2) (A1) (A2) (A1) (B2) (B1) (A1)
                 (A2) (B2) (B1) (A2) (A1) (B2) (B1) (A1) (A1) (A2)
                 (B2) (A1) (A1) (B2) (A2) (B1) (A1) (B1) (B2) (A1)
                 (A2) (A2) (B1) (B2) (B2) (A1) (B2) (A1) (A1) (B1)
                 (B2) (A2) (B2) (A1) (B1) (A2) (B2) (A1) (A1) (B2)
                 (B1) (A2) (A1) (A1) (B2) (B1) (B2) (A2) (A1) (B2)
                 (B1) (B1) (A1) (A1) (B2) (A2) (A1) (B2) (A2) (B1)
                 (A1) (B1) (B2) (A2) (A1) (B2) (A1) (A2) (B1) (A1)
                 (B1) (B2) (B1) (B2) (A2) (A1) (B2) (B1) (B2) (A1)
                 (A1) (B2) (B2) (A1) (A2) (A2) (A1) (B2) (B1) (A1)
                 (B2) (A2) (A1) (A1) (B1) (B2) (B1) (A1) (B2) (A2)
                 (A1) (B2) (B2) (A1) (B1) (B2) (A1) (A1) (A2) (B2)
                 (A1) (A1) (B1) (B2) (B2) (A1) (A2) (B2) (B2) (A1)
                 (A1) (B2) (A1) (B2) (A1) (A1)
 >>>>>>>>>> Convergence criterion not met.
 SCF Done:  E(RHF) =  -324.910965044     A.U. after    2 cycles
            NFock=  1  Conv=0.12D-01     -V/T= 2.0017

 **********************************************************************

            Population analysis using the SCF Density.

 **********************************************************************

 Orbital symmetries:
       Occupied  (A1) (B2) (A1) (A1) (B2) (A1) (B2) (A1) (A1) (A1)
                 (B2) (A1) (B2) (A1) (B2) (A1) (B2) (A1) (B1) (A1)
                 (B2) (A2) (B2) (A1) (B2) (B1) (A1) (B1) (A2)
       Virtual   (A1) (B2) (A1) (B2) (B1) (A1) (A2) (A1) (B2) (B1)
                 (A1) (A2) (B1) (B2) (A1) (B2) (B1) (A1) (B2) (A1)
                 (A2) (B2) (A1) (B1) (A1) (B2) (A2) (B2) (A1) (B1)
                 (A1) (A2) (A1) (B2) (B1) (B2) (A1) (A1) (B2) (A2)
                 (B2) (B1) (A1) (B2) (A1) (A1) (B1) (A1) (B2) (B1)
                 (A1) (B2) (B2) (B2) (A1) (A2) (A1) (B1) (A2) (B2)
                 (A1) (A1) (B1) (B2) (A1) (A2) (B1) (B2) (B2) (A2)
                 (A1) (B1) (B2) (A1) (A2) (B1) (A1) (A1) (B2) (A1)
                 (A2) (B1) (A1) (B2) (A2) (A1) (B2) (A1) (B1) (B2)
                 (B2) (A1) (A1) (B2) (A1) (B2) (B1) (B1) (A2) (B2)
                 (A1) (B2) (B1) (B2) (A1) (A2) (A1) (B2) (B1) (A1)
                 (A2) (B2) (B1) (A2) (A1) (B2) (B1) (A1) (A1) (A2)
                 (B2) (A1) (A1) (B2) (A2) (B1) (A1) (B1) (B2) (A1)
                 (A2) (A2) (B1) (B2) (B2) (A1) (B2) (A1) (A1) (B1)
                 (B2) (A2) (B2) (A1) (B1) (A2) (B2) (A1) (A1) (B2)
                 (B1) (A2) (A1) (A1) (B2) (B1) (B2) (A2) (A1) (B2)
                 (B1) (A1) (B1) (A1) (B2) (A2) (B2) (A1) (A2) (A1)
                 (B1) (B2) (B1) (A2) (A1) (B2) (A2) (A1) (B1) (A1)
                 (B2) (B1) (B1) (B2) (A2) (A1) (B2) (B1) (A1) (B2)
                 (A1) (B2) (B2) (A1) (A2) (A2) (A1) (B2) (B1) (A1)
                 (B2) (A2) (A1) (B1) (A1) (B2) (B1) (B2) (A1) (A2)
                 (B2) (A1) (B2) (A1) (B2) (A1) (A1) (B1) (B2) (A2)
                 (A1) (A1) (B1) (B2) (B2) (A1) (B2) (B2) (A1) (A2)
                 (A1) (A1) (B2) (B2) (A1) (A1)
 The electronic state is 1-A1.
 Alpha  occ. eigenvalues --  -15.61353 -11.28660 -11.28646 -11.26187 -11.23706
 Alpha  occ. eigenvalues --  -11.23703 -11.23001 -11.22999  -1.22867  -1.07023
 Alpha  occ. eigenvalues --   -1.06527  -0.96879  -0.93096  -0.83219  -0.81252
 Alpha  occ. eigenvalues --   -0.68933  -0.67514  -0.62029  -0.59575  -0.57992
 Alpha  occ. eigenvalues --   -0.57315  -0.56903  -0.53731  -0.53660  -0.50583
 Alpha  occ. eigenvalues --   -0.50040  -0.40090  -0.37532  -0.33022
 Alpha virt. eigenvalues --    0.03281   0.03726   0.04166   0.05609   0.05623
 Alpha virt. eigenvalues --    0.05999   0.07680   0.07838   0.08120   0.09723
 Alpha virt. eigenvalues --    0.11091   0.11703   0.12601   0.12768   0.13197
 Alpha virt. eigenvalues --    0.13992   0.14797   0.14882   0.15544   0.15989
 Alpha virt. eigenvalues --    0.16486   0.17078   0.17142   0.17568   0.18069
 Alpha virt. eigenvalues --    0.18861   0.19432   0.19879   0.20533   0.20691
 Alpha virt. eigenvalues --    0.22426   0.23187   0.24206   0.25877   0.26710
 Alpha virt. eigenvalues --    0.27454   0.27513   0.29806   0.29849   0.30364
 Alpha virt. eigenvalues --    0.32197   0.32222   0.32876   0.34649   0.35358
 Alpha virt. eigenvalues --    0.35830   0.35832   0.37193   0.39253   0.40523
 Alpha virt. eigenvalues --    0.40573   0.40743   0.41405   0.43045   0.44039
 Alpha virt. eigenvalues --    0.44280   0.44565   0.44579   0.44993   0.45528
 Alpha virt. eigenvalues --    0.45616   0.49575   0.49888   0.51970   0.52322
 Alpha virt. eigenvalues --    0.53151   0.53424   0.53759   0.54826   0.55193
 Alpha virt. eigenvalues --    0.55950   0.56125   0.58307   0.58686   0.59252
 Alpha virt. eigenvalues --    0.59275   0.59605   0.62092   0.63300   0.64029
 Alpha virt. eigenvalues --    0.64329   0.64954   0.66071   0.66982   0.67967
 Alpha virt. eigenvalues --    0.68539   0.69382   0.70412   0.70460   0.70806
 Alpha virt. eigenvalues --    0.71655   0.71688   0.73963   0.74208   0.75245
 Alpha virt. eigenvalues --    0.75383   0.77388   0.77552   0.78182   0.79270
 Alpha virt. eigenvalues --    0.79750   0.80005   0.80817   0.81868   0.82281
 Alpha virt. eigenvalues --    0.83560   0.85732   0.87610   0.88360   0.90067
 Alpha virt. eigenvalues --    0.90597   0.90599   0.93522   0.94002   0.94845
 Alpha virt. eigenvalues --    0.96907   0.97273   0.97777   0.99472   1.01976
 Alpha virt. eigenvalues --    1.02563   1.05623   1.06918   1.09281   1.09809
 Alpha virt. eigenvalues --    1.10499   1.11738   1.14808   1.15464   1.16268
 Alpha virt. eigenvalues --    1.16277   1.16943   1.17254   1.19687   1.25643
 Alpha virt. eigenvalues --    1.27116   1.29216   1.29868   1.35894   1.38727
 Alpha virt. eigenvalues --    1.42068   1.45117   1.45441   1.46049   1.47594
 Alpha virt. eigenvalues --    1.50750   1.51219   1.56684   1.59695   1.61701
 Alpha virt. eigenvalues --    1.63239   1.64447   1.64518   1.64841   1.68019
 Alpha virt. eigenvalues --    1.70669   1.71303   1.71967   1.72680   1.73057
 Alpha virt. eigenvalues --    1.75321   1.77298   1.77574   1.78871   1.80651
 Alpha virt. eigenvalues --    1.82655   1.88415   1.88428   1.90662   1.91494
 Alpha virt. eigenvalues --    1.91519   1.93083   1.93368   1.93695   1.99994
 Alpha virt. eigenvalues --    2.01737   2.02339   2.02487   2.03340   2.07840
 Alpha virt. eigenvalues --    2.11597   2.11610   2.15123   2.15986   2.17711
 Alpha virt. eigenvalues --    2.18492   2.20091   2.24406   2.24722   2.25262
 Alpha virt. eigenvalues --    2.29204   2.30238   2.31900   2.32719   2.33027
 Alpha virt. eigenvalues --    2.35309   2.35983   2.39247   2.39729   2.43923
 Alpha virt. eigenvalues --    2.45407   2.46393   2.47913   2.52262   2.53927
 Alpha virt. eigenvalues --    2.53938   2.65516   2.65625   2.67080   2.67162
 Alpha virt. eigenvalues --    2.69657   2.72387   2.78174   2.79927   2.84147
 Alpha virt. eigenvalues --    2.85469   2.89750   2.91307   2.91922   2.92383
 Alpha virt. eigenvalues --    2.94193   2.97397   3.02605   3.07958   3.12549
 Alpha virt. eigenvalues --    3.12927   3.18221   3.19582   3.23252   3.26643
 Alpha virt. eigenvalues --    3.39225   3.59002   3.63763   3.82780   3.95182
 Alpha virt. eigenvalues --    4.32094
          Condensed to atoms (all electrons):
 Mulliken charges:
               1
     1  C   -0.832339
     2  C    0.942008
     3  C    0.942008
     4  C   -0.062303
     5  C   -0.062303
     6  C    0.554694
     7  C    0.554694
     8  N   -0.584574
     9  H   -0.420889
    10  H   -0.521940
    11  H   -0.521940
    12  H    0.058441
    13  H    0.058441
    14  H   -0.110439
    15  H   -0.110439
    16  H    0.058441
    17  H    0.058441
 Sum of Mulliken charges =  -0.00000
 Mulliken charges with hydrogens summed into heavy atoms:
               1
     1  C   -1.253228
     2  C    0.420068
     3  C    0.420068
     4  C   -0.062303
     5  C   -0.062303
     6  C    0.561136
     7  C    0.561136
     8  N   -0.584574
 Electronic spatial extent (au):  <R**2>=            976.0600
 Charge=             -0.0000 electrons
 Dipole moment (field-independent basis, Debye):
    X=             -0.0000    Y=             -0.0000    Z=             -1.4583  Tot=              1.4583

 Test job not archived.
 1\1\GINC-SE040\SP\RHF\Aug-CC-pVDZ\C7H9N1\OHZDE\05-Apr-2025\0\\#t hf au
 g-cc-pvdz iop(5/13=1,5/36=2,99/5=2) pseudo=read geom=check guess=(read
 ,tcheck) scf=(maxcycle=1)\\title\\0,1\C,0,0.,0.,-1.831849\C,0,0.,1.195
 324,-1.129066\C,0,0.,-1.195324,-1.129066\C,0,0.,1.155404,0.265392\C,0,
 0.,-1.155404,0.265392\C,0,0.,2.411589,1.091716\C,0,0.,-2.411589,1.0917
 16\N,0,0.,0.,0.937784\H,0,0.,0.,-2.914051\H,0,0.,2.144159,-1.647425\H,
 0,0.,-2.144159,-1.647425\H,0,-0.876787,2.43635,1.740225\H,0,0.876787,2
 .43635,1.740225\H,0,0.,3.304826,0.469053\H,0,0.,-3.304826,0.469053\H,0
 ,0.876787,-2.43635,1.740225\H,0,-0.876787,-2.43635,1.740225\\Version=E
 S64L-G16RevC.01\State=1-A1\HF=-324.910965\RMSD=1.190e-02\Dipole=0.,0.,
 -0.573754\Quadrupole=-3.2495473,3.4834381,-0.2338908,0.,0.,0.\PG=C02V 
 [C2(H1C1N1),SGV(C6H4),X(H4)]\\@


 IN THE UNIVERSE THE DIFFICULT THINGS ARE DONE AS IF THEY WERE EASY.

                                                          -- LAO-TSU
 Job cpu time:       0 days  0 hours  1 minutes 16.6 seconds.
 Elapsed time:       0 days  0 hours  0 minutes  6.0 seconds.
 File lengths (MBytes):  RWF=     14 Int=      0 D2E=      0 Chk=     10 Scr=      1
 Normal termination of Gaussian 16 at Sat Apr  5 22:26:45 2025.
