 Entering Gaussian System, Link 0=g16
 Input=2-methylsulphonylpropane.gjf
 Output=2-methylsulphonylpropane.log
 Initial command:
 /arc/software/Gaussian/g16.c01/l1.exe "/tmp/slurm/4814955/Gau-2436604.inp" -scrdir="/tmp/slurm/4814955/"
 Entering Link 1 = /arc/software/Gaussian/g16.c01/l1.exe PID=   2436608.
  
 Copyright (c) 1988-2019, Gaussian, Inc.  All Rights Reserved.
  
 This is part of the Gaussian(R) 16 program.  It is based on
 the Gaussian(R) 09 system (copyright 2009, Gaussian, Inc.),
 the Gaussian(R) 03 system (copyright 2003, Gaussian, Inc.),
 the Gaussian(R) 98 system (copyright 1998, Gaussian, Inc.),
 the Gaussian(R) 94 system (copyright 1995, Gaussian, Inc.),
 the Gaussian 92(TM) system (copyright 1992, Gaussian, Inc.),
 the Gaussian 90(TM) system (copyright 1990, Gaussian, Inc.),
 the Gaussian 88(TM) system (copyright 1988, Gaussian, Inc.),
 the Gaussian 86(TM) system (copyright 1986, Carnegie Mellon
 University), and the Gaussian 82(TM) system (copyright 1983,
 Carnegie Mellon University). Gaussian is a federally registered
 trademark of Gaussian, Inc.
  
 This software contains proprietary and confidential information,
 including trade secrets, belonging to Gaussian, Inc.
  
 This software is provided under written license and may be
 used, copied, transmitted, or stored only in accord with that
 written license.
  
 The following legend is applicable only to US Government
 contracts under FAR:
  
                    RESTRICTED RIGHTS LEGEND
  
 Use, reproduction and disclosure by the US Government is
 subject to restrictions as set forth in subparagraphs (a)
 and (c) of the Commercial Computer Software - Restricted
 Rights clause in FAR 52.227-19.
  
 Gaussian, Inc.
 340 Quinnipiac St., Bldg. 40, Wallingford CT 06492
  
  
 ---------------------------------------------------------------
 Warning -- This program may not be used in any manner that
 competes with the business of Gaussian, Inc. or will provide
 assistance to any competitor of Gaussian, Inc.  The licensee
 of this program is prohibited from giving any competitor of
 Gaussian, Inc. access to this program.  By using this program,
 the user acknowledges that Gaussian, Inc. is engaged in the
 business of creating and licensing software in the field of
 computational chemistry and represents and warrants to the
 licensee that it is not a competitor of Gaussian, Inc. and that
 it will not use this program in any manner prohibited above.
 ---------------------------------------------------------------
  

 Cite this work as:
 Gaussian 16, Revision C.01,
 M. J. Frisch, G. W. Trucks, H. B. Schlegel, G. E. Scuseria, 
 M. A. Robb, J. R. Cheeseman, G. Scalmani, V. Barone, 
 G. A. Petersson, H. Nakatsuji, X. Li, M. Caricato, A. V. Marenich, 
 J. Bloino, B. G. Janesko, R. Gomperts, B. Mennucci, H. P. Hratchian, 
 J. V. Ortiz, A. F. Izmaylov, J. L. Sonnenberg, D. Williams-Young, 
 F. Ding, F. Lipparini, F. Egidi, J. Goings, B. Peng, A. Petrone, 
 T. Henderson, D. Ranasinghe, V. G. Zakrzewski, J. Gao, N. Rega, 
 G. Zheng, W. Liang, M. Hada, M. Ehara, K. Toyota, R. Fukuda, 
 J. Hasegawa, M. Ishida, T. Nakajima, Y. Honda, O. Kitao, H. Nakai, 
 T. Vreven, K. Throssell, J. A. Montgomery, Jr., J. E. Peralta, 
 F. Ogliaro, M. J. Bearpark, J. J. Heyd, E. N. Brothers, K. N. Kudin, 
 V. N. Staroverov, T. A. Keith, R. Kobayashi, J. Normand, 
 K. Raghavachari, A. P. Rendell, J. C. Burant, S. S. Iyengar, 
 J. Tomasi, M. Cossi, J. M. Millam, M. Klene, C. Adamo, R. Cammi, 
 J. W. Ochterski, R. L. Martin, K. Morokuma, O. Farkas, 
 J. B. Foresman, and D. J. Fox, Gaussian, Inc., Wallingford CT, 2019.
 
 ******************************************
 Gaussian 16:  ES64L-G16RevC.01  3-Jul-2019
                 5-Apr-2025 
 ******************************************
 %nprocs=16
 Will use up to   16 processors via shared memory.
 %mem=30GB
 %chk=2-methylsulphonylpropane.chk
 ----------------------------------------------------------------------
 #t hf aug-cc-pvdz symm=none int=(grid=ultrafine) guess=(read,tcheck) s
 table=(opt,rrhf)
 ----------------------------------------------------------------------
 -----
 title
 -----
 Symbolic Z-matrix:
 Charge =  0 Multiplicity = 1
 C                     1.9145   -1.07883  -0.10441 
 C                     1.06153   0.12834  -0.4893 
 C                     1.60103   1.4405    0.06853 
 S                    -0.64945  -0.19893   0.09574 
 C                    -1.64636   1.1496   -0.56667 
 O                    -1.10984  -1.42824  -0.54741 
 O                    -0.67163  -0.09497   1.55392 
 H                     1.50097  -2.00181  -0.50468 
 H                     2.91967  -0.94575  -0.50554 
 H                     1.98866  -1.17035   0.97889 
 H                     0.95556   0.17707  -1.57481 
 H                     2.62598   1.58198  -0.2769 
 H                     1.02335   2.30389  -0.2598 
 H                     1.607     1.42161   1.15757 
 H                    -1.5544    1.16597  -1.64947 
 H                    -2.66724   0.90825  -0.27932 
 H                    -1.34084   2.09002  -0.11865 
 
                    Distance matrix (angstroms):
                    1          2          3          4          5
     1  C    0.000000
     2  C    1.527406   0.000000
     3  C    2.544642   1.524470   0.000000
     4  S    2.718109   1.837613   2.784447   0.000000
     5  C    4.226031   2.895103   3.321692   1.803101   0.000000
     6  O    3.076517   2.672291   3.994729   1.461776   2.633157
     7  O    3.225846   2.688577   3.119138   1.462050   2.644988
     8  H    1.087712   2.175058   3.491143   2.869693   4.454314
     9  H    1.090402   2.146304   2.786137   3.695654   5.024227
    10  H    1.089680   2.168354   2.792053   2.946729   4.580862
    11  H    2.158456   1.091758   2.171055   2.346950   2.955026
    12  H    2.759680   2.146085   1.090808   3.746856   4.303929
    13  H    3.501579   2.187949   1.089471   3.031297   2.924700
    14  H    2.817682   2.163858   1.089221   2.974093   3.692069
    15  H    4.411309   3.043969   3.603279   2.393252   1.086817
    16  H    4.997146   3.815243   4.315371   2.331957   1.087668
    17  H    4.543017   3.123605   3.018521   2.400683   1.085563
                    6          7          8          9         10
     6  O    0.000000
     7  O    2.526899   0.000000
     8  H    2.673405   3.548803   0.000000
     9  H    4.058503   4.226416   1.768608   0.000000
    10  H    3.463634   2.926469   1.769217   1.766564   0.000000
    11  H    2.810414   3.537048   2.488002   2.502353   3.066628
    12  H    4.805298   4.127743   3.763115   2.554979   3.091679
    13  H    4.308358   3.452105   4.339018   3.770483   3.812674
    14  H    4.290667   2.765731   3.807111   3.177012   2.625993
    15  H    2.853441   3.554004   4.547602   5.077918   4.991988
    16  H    2.820744   2.889584   5.088538   5.890846   5.251770
    17  H    3.551809   2.831870   4.996789   5.245708   4.787495
                   11         12         13         14         15
    11  H    0.000000
    12  H    2.539418   0.000000
    13  H    2.501442   1.757805   0.000000
    14  H    3.072327   1.766845   1.768618   0.000000
    15  H    2.698784   4.419568   3.141783   4.235480   0.000000
    16  H    3.916331   5.335926   3.945709   4.538432   1.783854
    17  H    3.324641   4.002346   2.378029   3.281045   1.800797
                   16         17
    16  H    0.000000
    17  H    1.783743   0.000000
 Symmetry turned off by external request.
 Rotational constants (GHZ):           2.9724887           1.9607265           1.6287861
   255 basis functions,   449 primitive gaussians,   269 cartesian basis functions
    33 alpha electrons       33 beta electrons
       nuclear repulsion energy       441.0886023082 Hartrees.
 NAtoms=   17 NActive=   17 NUniq=   17 SFac= 1.00D+00 NAtFMM=   60 NAOKFM=F Big=F
 ExpMin= 2.97D-02 ExpMax= 1.11D+05 ExpMxC= 1.07D+03 IAcc=3 IRadAn=         5 AccDes= 0.00D+00
 Harris functional with IExCor=  205 and IRadAn=       5 diagonalized for initial guess.
 HarFok:  IExCor=  205 AccDes= 0.00D+00 IRadAn=         5 IDoV= 1 UseB2=F ITyADJ=14
 ICtDFT=  3500011 ScaDFX=  1.000000  1.000000  1.000000  1.000000
 FoFCou: FMM=F IPFlag=           0 FMFlag=      100000 FMFlg1=           0
         NFxFlg=           0 DoJE=T BraDBF=F KetDBF=T FulRan=T
         wScrn=  0.000000 ICntrl=       500 IOpCl=  0 I1Cent=   200000004 NGrid=           0
         NMat0=    1 NMatS0=      1 NMatT0=    0 NMatD0=    1 NMtDS0=    0 NMtDT0=    0
 Symmetry not used in FoFCou.
 SCF Done:  E(RHF) =  -704.516524495     A.U. after   13 cycles
            NFock= 13  Conv=0.85D-08     -V/T= 2.0008

 **********************************************************************

            Population analysis using the SCF Density.

 **********************************************************************

 Alpha  occ. eigenvalues --  -92.18804 -20.54637 -20.54563 -11.29227 -11.28256
 Alpha  occ. eigenvalues --  -11.25172 -11.24219  -9.16177  -6.84695  -6.84560
 Alpha  occ. eigenvalues --   -6.84525  -1.44254  -1.32870  -1.11286  -1.03714
 Alpha  occ. eigenvalues --   -0.96233  -0.88996  -0.78438  -0.69731  -0.66205
 Alpha  occ. eigenvalues --   -0.65514  -0.64083  -0.60680  -0.59540  -0.58557
 Alpha  occ. eigenvalues --   -0.56281  -0.55575  -0.51634  -0.51497  -0.48508
 Alpha  occ. eigenvalues --   -0.47645  -0.45764  -0.41830
 Alpha virt. eigenvalues --    0.02707   0.03830   0.04445   0.04948   0.06145
 Alpha virt. eigenvalues --    0.06481   0.06943   0.07587   0.08315   0.09143
 Alpha virt. eigenvalues --    0.11626   0.12352   0.13504   0.14188   0.14224
 Alpha virt. eigenvalues --    0.15034   0.15462   0.15963   0.16174   0.16891
 Alpha virt. eigenvalues --    0.17448   0.17878   0.18365   0.18823   0.19804
 Alpha virt. eigenvalues --    0.20893   0.21614   0.22072   0.23199   0.24109
 Alpha virt. eigenvalues --    0.25702   0.26141   0.26648   0.27329   0.28589
 Alpha virt. eigenvalues --    0.29080   0.30206   0.30875   0.31618   0.33246
 Alpha virt. eigenvalues --    0.33720   0.35229   0.35634   0.36848   0.37183
 Alpha virt. eigenvalues --    0.37980   0.38463   0.39135   0.39853   0.41112
 Alpha virt. eigenvalues --    0.41939   0.43903   0.44469   0.45254   0.45961
 Alpha virt. eigenvalues --    0.46858   0.47080   0.47631   0.48110   0.49175
 Alpha virt. eigenvalues --    0.49618   0.50452   0.50951   0.52334   0.53231
 Alpha virt. eigenvalues --    0.54176   0.54814   0.55940   0.56536   0.57007
 Alpha virt. eigenvalues --    0.57712   0.58428   0.58872   0.59448   0.60254
 Alpha virt. eigenvalues --    0.60970   0.62378   0.63537   0.64936   0.65827
 Alpha virt. eigenvalues --    0.67747   0.68060   0.68507   0.68831   0.70076
 Alpha virt. eigenvalues --    0.70750   0.72981   0.73609   0.74432   0.75735
 Alpha virt. eigenvalues --    0.76222   0.76752   0.77939   0.78976   0.79931
 Alpha virt. eigenvalues --    0.82720   0.83839   0.84871   0.85711   0.87580
 Alpha virt. eigenvalues --    0.88055   0.88970   0.90680   0.91957   0.92936
 Alpha virt. eigenvalues --    0.93734   0.94682   0.96893   0.99858   1.01173
 Alpha virt. eigenvalues --    1.03555   1.09634   1.10659   1.11801   1.13162
 Alpha virt. eigenvalues --    1.14527   1.15163   1.16993   1.17483   1.19399
 Alpha virt. eigenvalues --    1.20568   1.22036   1.24166   1.26151   1.27443
 Alpha virt. eigenvalues --    1.29797   1.31047   1.34076   1.35458   1.37325
 Alpha virt. eigenvalues --    1.37761   1.39339   1.41904   1.42890   1.45241
 Alpha virt. eigenvalues --    1.45583   1.49124   1.49911   1.52326   1.53791
 Alpha virt. eigenvalues --    1.57405   1.59107   1.61629   1.64647   1.66494
 Alpha virt. eigenvalues --    1.69010   1.69834   1.74036   1.74890   1.76216
 Alpha virt. eigenvalues --    1.79743   1.82580   1.83615   1.85722   1.88238
 Alpha virt. eigenvalues --    1.90542   1.91116   1.93490   1.94494   1.96441
 Alpha virt. eigenvalues --    1.97546   2.01191   2.02099   2.03421   2.05546
 Alpha virt. eigenvalues --    2.10041   2.10944   2.11729   2.13541   2.16859
 Alpha virt. eigenvalues --    2.17397   2.19227   2.20577   2.22188   2.24338
 Alpha virt. eigenvalues --    2.25645   2.27278   2.29972   2.32554   2.34073
 Alpha virt. eigenvalues --    2.36839   2.37291   2.42610   2.43836   2.46607
 Alpha virt. eigenvalues --    2.47032   2.48683   2.51770   2.53207   2.54511
 Alpha virt. eigenvalues --    2.55231   2.61636   2.66187   2.69674   2.73509
 Alpha virt. eigenvalues --    2.75355   2.77070   2.81020   2.87460   2.88665
 Alpha virt. eigenvalues --    2.91436   2.95521   2.98198   2.99483   3.03763
 Alpha virt. eigenvalues --    3.08371   3.12112   3.19999   3.21464   3.24548
 Alpha virt. eigenvalues --    3.26518   3.49918   3.75791   3.76908   3.79263
 Alpha virt. eigenvalues --    3.81516   3.82680   3.84253   3.85522   3.87709
 Alpha virt. eigenvalues --    3.89532   4.02933
          Condensed to atoms (all electrons):
 Mulliken charges:
               1
     1  C    0.777638
     2  C   -1.408333
     3  C    0.792847
     4  S    2.639974
     5  C    0.069391
     6  O   -1.235869
     7  O   -1.248127
     8  H   -0.052894
     9  H   -0.042018
    10  H    0.013636
    11  H   -0.179311
    12  H   -0.042242
    13  H   -0.129126
    14  H    0.023103
    15  H   -0.018071
    16  H    0.028640
    17  H    0.010761
 Sum of Mulliken charges =  -0.00000
 Mulliken charges with hydrogens summed into heavy atoms:
               1
     1  C    0.696363
     2  C   -1.587644
     3  C    0.644582
     4  S    2.639974
     5  C    0.090721
     6  O   -1.235869
     7  O   -1.248127
 Electronic spatial extent (au):  <R**2>=            897.2882
 Charge=             -0.0000 electrons
 Dipole moment (field-independent basis, Debye):
    X=              2.1851    Y=              3.9570    Z=             -2.7932  Tot=              5.3136
 NROrb=    255 NOA=    33 NOB=    33 NVA=   222 NVB=   222

 **** Warning!!: The largest alpha MO coefficient is  0.60862811D+02

    12 initial guesses have been made.
 Iteration     1 Dimension    12 NMult     0 NNew     12
 Iteration     2 Dimension    24 NMult    12 NNew     12
 Iteration     3 Dimension    27 NMult    24 NNew      3
 Iteration     4 Dimension    30 NMult    27 NNew      3
 Iteration     5 Dimension    33 NMult    30 NNew      3
 Iteration     6 Dimension    36 NMult    33 NNew      3
 Iteration     7 Dimension    39 NMult    36 NNew      3
 ***********************************************************************
 Stability analysis using <AA,BB:AA,BB> singles matrix:
 ***********************************************************************
 Ground to excited state transition densities written to RWF  633

 Eigenvectors of the stability matrix:
 
 Excited state symmetry could not be determined.
 Eigenvector   1:      Singlet-?Sym  Eigenvalue= 0.3187433  <S**2>=0.000
      33 -> 34         0.56402
      33 -> 36         0.15450
      33 -> 40         0.13822
      33 -> 44        -0.10381
      33 -> 45        -0.10902
      33 -> 49         0.10578
      33 -> 60         0.10839
 The wavefunction is stable under the perturbations considered.
 The wavefunction is already stable.

 **********************************************************************

            Population analysis using the SCF Density.

 **********************************************************************

 Alpha  occ. eigenvalues --  -92.18804 -20.54637 -20.54563 -11.29227 -11.28256
 Alpha  occ. eigenvalues --  -11.25172 -11.24219  -9.16177  -6.84695  -6.84560
 Alpha  occ. eigenvalues --   -6.84525  -1.44254  -1.32870  -1.11286  -1.03714
 Alpha  occ. eigenvalues --   -0.96233  -0.88996  -0.78438  -0.69731  -0.66205
 Alpha  occ. eigenvalues --   -0.65514  -0.64083  -0.60680  -0.59540  -0.58557
 Alpha  occ. eigenvalues --   -0.56281  -0.55575  -0.51634  -0.51497  -0.48508
 Alpha  occ. eigenvalues --   -0.47645  -0.45764  -0.41830
 Alpha virt. eigenvalues --    0.02707   0.03830   0.04445   0.04948   0.06145
 Alpha virt. eigenvalues --    0.06481   0.06943   0.07587   0.08315   0.09143
 Alpha virt. eigenvalues --    0.11626   0.12352   0.13504   0.14188   0.14224
 Alpha virt. eigenvalues --    0.15034   0.15462   0.15963   0.16174   0.16891
 Alpha virt. eigenvalues --    0.17448   0.17878   0.18365   0.18823   0.19804
 Alpha virt. eigenvalues --    0.20893   0.21614   0.22072   0.23199   0.24109
 Alpha virt. eigenvalues --    0.25702   0.26141   0.26648   0.27329   0.28589
 Alpha virt. eigenvalues --    0.29080   0.30206   0.30875   0.31618   0.33246
 Alpha virt. eigenvalues --    0.33720   0.35229   0.35634   0.36848   0.37183
 Alpha virt. eigenvalues --    0.37980   0.38463   0.39135   0.39853   0.41112
 Alpha virt. eigenvalues --    0.41939   0.43903   0.44469   0.45254   0.45961
 Alpha virt. eigenvalues --    0.46858   0.47080   0.47631   0.48110   0.49175
 Alpha virt. eigenvalues --    0.49618   0.50452   0.50951   0.52334   0.53231
 Alpha virt. eigenvalues --    0.54176   0.54814   0.55940   0.56536   0.57007
 Alpha virt. eigenvalues --    0.57712   0.58428   0.58872   0.59448   0.60254
 Alpha virt. eigenvalues --    0.60970   0.62378   0.63537   0.64936   0.65827
 Alpha virt. eigenvalues --    0.67747   0.68060   0.68507   0.68831   0.70076
 Alpha virt. eigenvalues --    0.70750   0.72981   0.73609   0.74432   0.75735
 Alpha virt. eigenvalues --    0.76222   0.76752   0.77939   0.78976   0.79931
 Alpha virt. eigenvalues --    0.82720   0.83839   0.84871   0.85711   0.87580
 Alpha virt. eigenvalues --    0.88055   0.88970   0.90680   0.91957   0.92936
 Alpha virt. eigenvalues --    0.93734   0.94682   0.96893   0.99858   1.01173
 Alpha virt. eigenvalues --    1.03555   1.09634   1.10659   1.11801   1.13162
 Alpha virt. eigenvalues --    1.14527   1.15163   1.16993   1.17483   1.19399
 Alpha virt. eigenvalues --    1.20568   1.22036   1.24166   1.26151   1.27443
 Alpha virt. eigenvalues --    1.29797   1.31047   1.34076   1.35458   1.37325
 Alpha virt. eigenvalues --    1.37761   1.39339   1.41904   1.42890   1.45241
 Alpha virt. eigenvalues --    1.45583   1.49124   1.49911   1.52326   1.53791
 Alpha virt. eigenvalues --    1.57405   1.59107   1.61629   1.64647   1.66494
 Alpha virt. eigenvalues --    1.69010   1.69834   1.74036   1.74890   1.76216
 Alpha virt. eigenvalues --    1.79743   1.82580   1.83615   1.85722   1.88238
 Alpha virt. eigenvalues --    1.90542   1.91116   1.93490   1.94494   1.96441
 Alpha virt. eigenvalues --    1.97546   2.01191   2.02099   2.03421   2.05546
 Alpha virt. eigenvalues --    2.10041   2.10944   2.11729   2.13541   2.16859
 Alpha virt. eigenvalues --    2.17397   2.19227   2.20577   2.22188   2.24338
 Alpha virt. eigenvalues --    2.25645   2.27278   2.29972   2.32554   2.34073
 Alpha virt. eigenvalues --    2.36839   2.37291   2.42610   2.43836   2.46607
 Alpha virt. eigenvalues --    2.47032   2.48683   2.51770   2.53207   2.54511
 Alpha virt. eigenvalues --    2.55231   2.61636   2.66187   2.69674   2.73509
 Alpha virt. eigenvalues --    2.75355   2.77070   2.81020   2.87460   2.88665
 Alpha virt. eigenvalues --    2.91436   2.95521   2.98198   2.99483   3.03763
 Alpha virt. eigenvalues --    3.08371   3.12112   3.19999   3.21464   3.24548
 Alpha virt. eigenvalues --    3.26518   3.49918   3.75791   3.76908   3.79263
 Alpha virt. eigenvalues --    3.81516   3.82680   3.84253   3.85522   3.87709
 Alpha virt. eigenvalues --    3.89532   4.02933
          Condensed to atoms (all electrons):
 Mulliken charges:
               1
     1  C    0.777638
     2  C   -1.408333
     3  C    0.792847
     4  S    2.639974
     5  C    0.069391
     6  O   -1.235869
     7  O   -1.248127
     8  H   -0.052894
     9  H   -0.042018
    10  H    0.013636
    11  H   -0.179311
    12  H   -0.042242
    13  H   -0.129126
    14  H    0.023103
    15  H   -0.018071
    16  H    0.028640
    17  H    0.010761
 Sum of Mulliken charges =  -0.00000
 Mulliken charges with hydrogens summed into heavy atoms:
               1
     1  C    0.696363
     2  C   -1.587644
     3  C    0.644582
     4  S    2.639974
     5  C    0.090721
     6  O   -1.235869
     7  O   -1.248127
 Electronic spatial extent (au):  <R**2>=            897.2882
 Charge=             -0.0000 electrons
 Dipole moment (field-independent basis, Debye):
    X=              2.1851    Y=              3.9570    Z=             -2.7932  Tot=              5.3136
 Unable to Open any file for archive entry.
 1\1\GINC-SE040\Stability\RHF\Aug-CC-pVDZ\C4H10O2S1\OHZDE\05-Apr-2025\0
 \\#t hf aug-cc-pvdz symm=none int=(grid=ultrafine) guess=(read,tcheck)
  stable=(opt,rrhf)\\title\\0,1\C,0,1.914502,-1.078827,-0.104407\C,0,1.
 061527,0.128342,-0.489304\C,0,1.601028,1.440504,0.068529\S,0,-0.649449
 ,-0.198934,0.095737\C,0,-1.646361,1.149604,-0.566671\O,0,-1.109835,-1.
 428241,-0.547411\O,0,-0.671628,-0.09497,1.553917\H,0,1.500968,-2.00180
 7,-0.504676\H,0,2.919668,-0.945747,-0.50554\H,0,1.988659,-1.170348,0.9
 78888\H,0,0.955561,0.177066,-1.574814\H,0,2.625979,1.581977,-0.276903\
 H,0,1.023346,2.303886,-0.259803\H,0,1.607003,1.421611,1.15757\H,0,-1.5
 54403,1.165975,-1.649467\H,0,-2.667243,0.908253,-0.27932\H,0,-1.340836
 ,2.090018,-0.118649\\Version=ES64L-G16RevC.01\HF=-704.5165245\RMSD=8.5
 48e-09\Dipole=0.8596829,1.5567859,-1.0989406\Quadrupole=3.6265776,-0.6
 644737,-2.962104,-4.2243814,0.9800002,-1.7218265\PG=Unknown\\@
 The archive entry for this job was punched.


 A people that values its privileges above its principles soon loses both.
 -- Dwight D. Eisenhower
 Job cpu time:       0 days  0 hours 10 minutes 46.0 seconds.
 Elapsed time:       0 days  0 hours  0 minutes 47.1 seconds.
 File lengths (MBytes):  RWF=    317 Int=      0 D2E=      0 Chk=      9 Scr=      1
 Normal termination of Gaussian 16 at Sat Apr  5 22:31:12 2025.
 Initial command:
 /arc/software/Gaussian/g16.c01/l1.exe "/tmp/slurm/4814955/Gau-2436604.inp" -scrdir="/tmp/slurm/4814955/"
 Entering Link 1 = /arc/software/Gaussian/g16.c01/l1.exe PID=   2437060.
  
 Copyright (c) 1988-2019, Gaussian, Inc.  All Rights Reserved.
  
 This is part of the Gaussian(R) 16 program.  It is based on
 the Gaussian(R) 09 system (copyright 2009, Gaussian, Inc.),
 the Gaussian(R) 03 system (copyright 2003, Gaussian, Inc.),
 the Gaussian(R) 98 system (copyright 1998, Gaussian, Inc.),
 the Gaussian(R) 94 system (copyright 1995, Gaussian, Inc.),
 the Gaussian 92(TM) system (copyright 1992, Gaussian, Inc.),
 the Gaussian 90(TM) system (copyright 1990, Gaussian, Inc.),
 the Gaussian 88(TM) system (copyright 1988, Gaussian, Inc.),
 the Gaussian 86(TM) system (copyright 1986, Carnegie Mellon
 University), and the Gaussian 82(TM) system (copyright 1983,
 Carnegie Mellon University). Gaussian is a federally registered
 trademark of Gaussian, Inc.
  
 This software contains proprietary and confidential information,
 including trade secrets, belonging to Gaussian, Inc.
  
 This software is provided under written license and may be
 used, copied, transmitted, or stored only in accord with that
 written license.
  
 The following legend is applicable only to US Government
 contracts under FAR:
  
                    RESTRICTED RIGHTS LEGEND
  
 Use, reproduction and disclosure by the US Government is
 subject to restrictions as set forth in subparagraphs (a)
 and (c) of the Commercial Computer Software - Restricted
 Rights clause in FAR 52.227-19.
  
 Gaussian, Inc.
 340 Quinnipiac St., Bldg. 40, Wallingford CT 06492
  
  
 ---------------------------------------------------------------
 Warning -- This program may not be used in any manner that
 competes with the business of Gaussian, Inc. or will provide
 assistance to any competitor of Gaussian, Inc.  The licensee
 of this program is prohibited from giving any competitor of
 Gaussian, Inc. access to this program.  By using this program,
 the user acknowledges that Gaussian, Inc. is engaged in the
 business of creating and licensing software in the field of
 computational chemistry and represents and warrants to the
 licensee that it is not a competitor of Gaussian, Inc. and that
 it will not use this program in any manner prohibited above.
 ---------------------------------------------------------------
  

 Cite this work as:
 Gaussian 16, Revision C.01,
 M. J. Frisch, G. W. Trucks, H. B. Schlegel, G. E. Scuseria, 
 M. A. Robb, J. R. Cheeseman, G. Scalmani, V. Barone, 
 G. A. Petersson, H. Nakatsuji, X. Li, M. Caricato, A. V. Marenich, 
 J. Bloino, B. G. Janesko, R. Gomperts, B. Mennucci, H. P. Hratchian, 
 J. V. Ortiz, A. F. Izmaylov, J. L. Sonnenberg, D. Williams-Young, 
 F. Ding, F. Lipparini, F. Egidi, J. Goings, B. Peng, A. Petrone, 
 T. Henderson, D. Ranasinghe, V. G. Zakrzewski, J. Gao, N. Rega, 
 G. Zheng, W. Liang, M. Hada, M. Ehara, K. Toyota, R. Fukuda, 
 J. Hasegawa, M. Ishida, T. Nakajima, Y. Honda, O. Kitao, H. Nakai, 
 T. Vreven, K. Throssell, J. A. Montgomery, Jr., J. E. Peralta, 
 F. Ogliaro, M. J. Bearpark, J. J. Heyd, E. N. Brothers, K. N. Kudin, 
 V. N. Staroverov, T. A. Keith, R. Kobayashi, J. Normand, 
 K. Raghavachari, A. P. Rendell, J. C. Burant, S. S. Iyengar, 
 J. Tomasi, M. Cossi, J. M. Millam, M. Klene, C. Adamo, R. Cammi, 
 J. W. Ochterski, R. L. Martin, K. Morokuma, O. Farkas, 
 J. B. Foresman, and D. J. Fox, Gaussian, Inc., Wallingford CT, 2019.
 
 ******************************************
 Gaussian 16:  ES64L-G16RevC.01  3-Jul-2019
                 5-Apr-2025 
 ******************************************
 %nprocs=16
 Will use up to   16 processors via shared memory.
 %mem=30GB
 %chk=2-methylsulphonylpropane.chk
 ----------------------------------------------------------------------
 #t hf aug-cc-pvdz iop(5/13=1,5/36=2,99/5=2) pseudo=read geom=check gue
 ss=(read,tcheck) scf=(maxcycle=1)
 ----------------------------------------------------------------------
 -----
 title
 -----
 Structure from the checkpoint file:  "2-methylsulphonylpropane.chk"
 Charge =  0 Multiplicity = 1
 Z-Matrix found in chk file.
 C,0,1.914502,-1.078827,-0.104407
 C,0,1.061527,0.128342,-0.489304
 C,0,1.601028,1.440504,0.068529
 S,0,-0.649449,-0.198934,0.095737
 C,0,-1.646361,1.149604,-0.566671
 O,0,-1.109835,-1.428241,-0.547411
 O,0,-0.671628,-0.09497,1.553917
 H,0,1.500968,-2.001807,-0.504676
 H,0,2.919668,-0.945747,-0.50554
 H,0,1.988659,-1.170348,0.978888
 H,0,0.955561,0.177066,-1.574814
 H,0,2.625979,1.581977,-0.276903
 H,0,1.023346,2.303886,-0.259803
 H,0,1.607003,1.421611,1.15757
 H,0,-1.554403,1.165975,-1.649467
 H,0,-2.667243,0.908253,-0.27932
 H,0,-1.340836,2.090018,-0.118649
 Recover connectivity data from disk.
                    Distance matrix (angstroms):
                    1          2          3          4          5
     1  C    0.000000
     2  C    1.527406   0.000000
     3  C    2.544642   1.524470   0.000000
     4  S    2.718109   1.837613   2.784447   0.000000
     5  C    4.226031   2.895103   3.321692   1.803101   0.000000
     6  O    3.076517   2.672291   3.994729   1.461776   2.633157
     7  O    3.225846   2.688577   3.119138   1.462050   2.644988
     8  H    1.087712   2.175058   3.491143   2.869693   4.454314
     9  H    1.090402   2.146304   2.786137   3.695654   5.024227
    10  H    1.089680   2.168354   2.792053   2.946729   4.580862
    11  H    2.158456   1.091758   2.171055   2.346950   2.955026
    12  H    2.759680   2.146085   1.090808   3.746856   4.303929
    13  H    3.501579   2.187949   1.089471   3.031297   2.924700
    14  H    2.817682   2.163858   1.089221   2.974093   3.692069
    15  H    4.411309   3.043969   3.603279   2.393252   1.086817
    16  H    4.997146   3.815243   4.315371   2.331957   1.087668
    17  H    4.543017   3.123605   3.018521   2.400683   1.085563
                    6          7          8          9         10
     6  O    0.000000
     7  O    2.526899   0.000000
     8  H    2.673405   3.548803   0.000000
     9  H    4.058503   4.226416   1.768608   0.000000
    10  H    3.463634   2.926469   1.769217   1.766564   0.000000
    11  H    2.810414   3.537048   2.488002   2.502353   3.066628
    12  H    4.805298   4.127743   3.763115   2.554979   3.091679
    13  H    4.308358   3.452105   4.339018   3.770483   3.812674
    14  H    4.290667   2.765731   3.807111   3.177012   2.625993
    15  H    2.853441   3.554004   4.547602   5.077918   4.991988
    16  H    2.820744   2.889584   5.088538   5.890846   5.251770
    17  H    3.551809   2.831870   4.996789   5.245708   4.787495
                   11         12         13         14         15
    11  H    0.000000
    12  H    2.539418   0.000000
    13  H    2.501442   1.757805   0.000000
    14  H    3.072327   1.766845   1.768618   0.000000
    15  H    2.698784   4.419568   3.141783   4.235480   0.000000
    16  H    3.916331   5.335926   3.945709   4.538432   1.783854
    17  H    3.324641   4.002346   2.378029   3.281045   1.800797
                   16         17
    16  H    0.000000
    17  H    1.783743   0.000000
 Framework group  C1[X(C4H10O2S)]
 Deg. of freedom    45
                         Standard orientation:                         
 ---------------------------------------------------------------------
 Center     Atomic      Atomic             Coordinates (Angstroms)
 Number     Number       Type             X           Y           Z
 ---------------------------------------------------------------------
      1          6           0        1.914502   -1.078827   -0.104407
      2          6           0        1.061527    0.128342   -0.489304
      3          6           0        1.601028    1.440504    0.068529
      4         16           0       -0.649449   -0.198934    0.095737
      5          6           0       -1.646361    1.149605   -0.566671
      6          8           0       -1.109835   -1.428241   -0.547411
      7          8           0       -0.671628   -0.094970    1.553917
      8          1           0        1.500968   -2.001807   -0.504676
      9          1           0        2.919668   -0.945748   -0.505540
     10          1           0        1.988659   -1.170348    0.978888
     11          1           0        0.955561    0.177066   -1.574814
     12          1           0        2.625980    1.581977   -0.276903
     13          1           0        1.023347    2.303886   -0.259803
     14          1           0        1.607003    1.421611    1.157570
     15          1           0       -1.554403    1.165976   -1.649467
     16          1           0       -2.667243    0.908254   -0.279320
     17          1           0       -1.340835    2.090018   -0.118649
 ---------------------------------------------------------------------
 Rotational constants (GHZ):           2.9724887           1.9607265           1.6287861
 ======================================================================================================
                                       Pseudopotential Parameters
 ======================================================================================================
  Center     Atomic      Valence      Angular      Power
  Number     Number     Electrons     Momentum     of R      Exponent        Coefficient   SO-Coeffient
 ======================================================================================================
    1          6            6
                                      G and up 
                                                     0        0.0000010       -0.00011185    0.00000000
                                                     2        0.1200000       -0.02301220    0.00000000
                                                     2        0.1400000        0.13317600    0.00000000
                                                     2        0.1600000       -0.19690668    0.00000000
                                                     2        0.2200000        0.23163694    0.00000000
                                                     2        0.3000000       -0.36920489    0.00000000
                                                     2        0.4000000        0.36389709    0.00000000
                                                     2        0.7000000       -0.38862160    0.00000000
                                                     2        1.3000000        0.80803421    0.00000000
                                      S - G
                                                     0        0.0000010        0.00312304    0.00000000
                                                     2        0.1200000       -0.00632892    0.00000000
                                                     2        0.2200000       -0.03780897    0.00000000
                                                     2        0.4000000        0.26269560    0.00000000
                                                     2        0.9000000       -0.28209514    0.00000000
                                                     2        1.5000000       -0.72686737    0.00000000
                                      P - G
                                                     0        0.0000010       -0.01465594    0.00000000
                                                     2        0.1200000        0.07908409    0.00000000
                                                     2        0.1800000       -0.30615861    0.00000000
                                                     2        0.2600000        0.41506950    0.00000000
                                                     2        0.5000000       -0.36252345    0.00000000
                                                     2        0.9000000        0.15124193    0.00000000
                                                     2        3.0000000       -0.80425677    0.00000000
                                      D - G
                                                     0        0.0000010        0.01149631    0.00000000
                                                     2        0.1200000       -0.04713561    0.00000000
                                                     2        0.1600000        0.10865096    0.00000000
                                                     2        0.2800000       -0.15816701    0.00000000
                                                     2        0.7000000        0.65478804    0.00000000
                                                     2        1.3000000       -1.73816624    0.00000000
                                      F - G
                                                     0        0.0000010        0.00481868    0.00000000
                                                     2        0.1200000       -0.04746842    0.00000000
                                                     2        0.1600000        0.09327889    0.00000000
                                                     2        0.4000000       -0.19693326    0.00000000
                                                     2        0.9000000        0.34938253    0.00000000
    2          6            6
                                      G and up 
                                                     0        0.0000010       -0.00011185    0.00000000
                                                     2        0.1200000       -0.02301220    0.00000000
                                                     2        0.1400000        0.13317600    0.00000000
                                                     2        0.1600000       -0.19690668    0.00000000
                                                     2        0.2200000        0.23163694    0.00000000
                                                     2        0.3000000       -0.36920489    0.00000000
                                                     2        0.4000000        0.36389709    0.00000000
                                                     2        0.7000000       -0.38862160    0.00000000
                                                     2        1.3000000        0.80803421    0.00000000
                                      S - G
                                                     0        0.0000010        0.00312304    0.00000000
                                                     2        0.1200000       -0.00632892    0.00000000
                                                     2        0.2200000       -0.03780897    0.00000000
                                                     2        0.4000000        0.26269560    0.00000000
                                                     2        0.9000000       -0.28209514    0.00000000
                                                     2        1.5000000       -0.72686737    0.00000000
                                      P - G
                                                     0        0.0000010       -0.01465594    0.00000000
                                                     2        0.1200000        0.07908409    0.00000000
                                                     2        0.1800000       -0.30615861    0.00000000
                                                     2        0.2600000        0.41506950    0.00000000
                                                     2        0.5000000       -0.36252345    0.00000000
                                                     2        0.9000000        0.15124193    0.00000000
                                                     2        3.0000000       -0.80425677    0.00000000
                                      D - G
                                                     0        0.0000010        0.01149631    0.00000000
                                                     2        0.1200000       -0.04713561    0.00000000
                                                     2        0.1600000        0.10865096    0.00000000
                                                     2        0.2800000       -0.15816701    0.00000000
                                                     2        0.7000000        0.65478804    0.00000000
                                                     2        1.3000000       -1.73816624    0.00000000
                                      F - G
                                                     0        0.0000010        0.00481868    0.00000000
                                                     2        0.1200000       -0.04746842    0.00000000
                                                     2        0.1600000        0.09327889    0.00000000
                                                     2        0.4000000       -0.19693326    0.00000000
                                                     2        0.9000000        0.34938253    0.00000000
    3          6            6
                                      G and up 
                                                     0        0.0000010       -0.00011185    0.00000000
                                                     2        0.1200000       -0.02301220    0.00000000
                                                     2        0.1400000        0.13317600    0.00000000
                                                     2        0.1600000       -0.19690668    0.00000000
                                                     2        0.2200000        0.23163694    0.00000000
                                                     2        0.3000000       -0.36920489    0.00000000
                                                     2        0.4000000        0.36389709    0.00000000
                                                     2        0.7000000       -0.38862160    0.00000000
                                                     2        1.3000000        0.80803421    0.00000000
                                      S - G
                                                     0        0.0000010        0.00312304    0.00000000
                                                     2        0.1200000       -0.00632892    0.00000000
                                                     2        0.2200000       -0.03780897    0.00000000
                                                     2        0.4000000        0.26269560    0.00000000
                                                     2        0.9000000       -0.28209514    0.00000000
                                                     2        1.5000000       -0.72686737    0.00000000
                                      P - G
                                                     0        0.0000010       -0.01465594    0.00000000
                                                     2        0.1200000        0.07908409    0.00000000
                                                     2        0.1800000       -0.30615861    0.00000000
                                                     2        0.2600000        0.41506950    0.00000000
                                                     2        0.5000000       -0.36252345    0.00000000
                                                     2        0.9000000        0.15124193    0.00000000
                                                     2        3.0000000       -0.80425677    0.00000000
                                      D - G
                                                     0        0.0000010        0.01149631    0.00000000
                                                     2        0.1200000       -0.04713561    0.00000000
                                                     2        0.1600000        0.10865096    0.00000000
                                                     2        0.2800000       -0.15816701    0.00000000
                                                     2        0.7000000        0.65478804    0.00000000
                                                     2        1.3000000       -1.73816624    0.00000000
                                      F - G
                                                     0        0.0000010        0.00481868    0.00000000
                                                     2        0.1200000       -0.04746842    0.00000000
                                                     2        0.1600000        0.09327889    0.00000000
                                                     2        0.4000000       -0.19693326    0.00000000
                                                     2        0.9000000        0.34938253    0.00000000
    4         16           16
                                      G and up 
                                                     0        0.0000010       -0.00108337    0.00000000
                                                     2        0.1200000        0.02393503    0.00000000
                                                     2        0.1400000       -0.04929246    0.00000000
                                                     2        0.2200000        0.11673929    0.00000000
                                                     2        0.3000000       -0.24406081    0.00000000
                                                     2        0.5000000        0.65938599    0.00000000
                                                     2        0.9000000       -2.67146103    0.00000000
                                                     2        1.6000000        1.72231217    0.00000000
                                      S - G
                                                     0        0.0000010       -0.00315363    0.00000000
                                                     2        0.1600000        0.09915567    0.00000000
                                                     2        0.3000000       -0.42531365    0.00000000
                                                     2        0.6000000        1.27985937    0.00000000
                                      P - G
                                                     0        0.0000010        0.05906535    0.00000000
                                                     2        0.1200000       -0.03516302    0.00000000
                                                     2        0.1600000        0.00585339    0.00000000
                                                     2        0.5000000        0.34013084    0.00000000
                                      D - G
                                                     0        0.0000010        0.03484679    0.00000000
                                                     2        0.1200000        0.00763944    0.00000000
                                                     2        0.2400000       -0.16368217    0.00000000
                                                     2        0.7000000        1.04339930    0.00000000
                                      F - G
                                                     0        0.0000010       -0.02227713    0.00000000
                                                     2        0.1200000       -0.15866626    0.00000000
                                                     2        0.1600000        0.42479417    0.00000000
                                                     2        0.2600000       -0.42884495    0.00000000
    5          6            6
                                      G and up 
                                                     0        0.0000010       -0.00011185    0.00000000
                                                     2        0.1200000       -0.02301220    0.00000000
                                                     2        0.1400000        0.13317600    0.00000000
                                                     2        0.1600000       -0.19690668    0.00000000
                                                     2        0.2200000        0.23163694    0.00000000
                                                     2        0.3000000       -0.36920489    0.00000000
                                                     2        0.4000000        0.36389709    0.00000000
                                                     2        0.7000000       -0.38862160    0.00000000
                                                     2        1.3000000        0.80803421    0.00000000
                                      S - G
                                                     0        0.0000010        0.00312304    0.00000000
                                                     2        0.1200000       -0.00632892    0.00000000
                                                     2        0.2200000       -0.03780897    0.00000000
                                                     2        0.4000000        0.26269560    0.00000000
                                                     2        0.9000000       -0.28209514    0.00000000
                                                     2        1.5000000       -0.72686737    0.00000000
                                      P - G
                                                     0        0.0000010       -0.01465594    0.00000000
                                                     2        0.1200000        0.07908409    0.00000000
                                                     2        0.1800000       -0.30615861    0.00000000
                                                     2        0.2600000        0.41506950    0.00000000
                                                     2        0.5000000       -0.36252345    0.00000000
                                                     2        0.9000000        0.15124193    0.00000000
                                                     2        3.0000000       -0.80425677    0.00000000
                                      D - G
                                                     0        0.0000010        0.01149631    0.00000000
                                                     2        0.1200000       -0.04713561    0.00000000
                                                     2        0.1600000        0.10865096    0.00000000
                                                     2        0.2800000       -0.15816701    0.00000000
                                                     2        0.7000000        0.65478804    0.00000000
                                                     2        1.3000000       -1.73816624    0.00000000
                                      F - G
                                                     0        0.0000010        0.00481868    0.00000000
                                                     2        0.1200000       -0.04746842    0.00000000
                                                     2        0.1600000        0.09327889    0.00000000
                                                     2        0.4000000       -0.19693326    0.00000000
                                                     2        0.9000000        0.34938253    0.00000000
    6          8            8
                                      G and up 
                                                     0        0.0000010        0.00001165    0.00000000
                                                     2        0.1200000       -0.01744018    0.00000000
                                                     2        0.1400000        0.05401326    0.00000000
                                                     2        0.1800000       -0.08231208    0.00000000
                                                     2        0.2600000        0.11570222    0.00000000
                                                     2        0.4000000       -0.20630360    0.00000000
                                                     2        0.7000000        0.38074319    0.00000000
                                                     2        1.2000000       -0.17045091    0.00000000
                                                     2        2.0000000       -1.45433187    0.00000000
                                      S - G
                                                     0        0.0000010       -0.00117944    0.00000000
                                                     2        0.1400000        0.04368312    0.00000000
                                                     2        0.3000000       -0.33477926    0.00000000
                                                     2        0.6000000        1.52630657    0.00000000
                                                     2        1.5000000       -2.50804716    0.00000000
                                                     2        3.0000000        2.89751681    0.00000000
                                      P - G
                                                     0        0.0000010        0.06576007    0.00000000
                                                     2        0.1200000       -0.10329304    0.00000000
                                                     2        0.2000000        0.24891756    0.00000000
                                                     2        0.4000000       -0.50800022    0.00000000
                                                     2        0.9000000        0.81480796    0.00000000
                                      D - G
                                                     0        0.0000010       -0.14101855    0.00000000
                                                     2        0.1200000        0.22105937    0.00000000
                                                     2        0.1800000       -0.45814988    0.00000000
                                                     2        0.3000000        0.46029282    0.00000000
                                      F - G
                                                     0        0.0000010        0.07483044    0.00000000
                                                     2        0.1200000       -0.09134252    0.00000000
                                                     2        0.1400000        0.04125459    0.00000000
                                                     2        0.3000000        0.37914837    0.00000000
                                                     2        0.5000000       -0.86881279    0.00000000
    7          8            8
                                      G and up 
                                                     0        0.0000010        0.00001165    0.00000000
                                                     2        0.1200000       -0.01744018    0.00000000
                                                     2        0.1400000        0.05401326    0.00000000
                                                     2        0.1800000       -0.08231208    0.00000000
                                                     2        0.2600000        0.11570222    0.00000000
                                                     2        0.4000000       -0.20630360    0.00000000
                                                     2        0.7000000        0.38074319    0.00000000
                                                     2        1.2000000       -0.17045091    0.00000000
                                                     2        2.0000000       -1.45433187    0.00000000
                                      S - G
                                                     0        0.0000010       -0.00117944    0.00000000
                                                     2        0.1400000        0.04368312    0.00000000
                                                     2        0.3000000       -0.33477926    0.00000000
                                                     2        0.6000000        1.52630657    0.00000000
                                                     2        1.5000000       -2.50804716    0.00000000
                                                     2        3.0000000        2.89751681    0.00000000
                                      P - G
                                                     0        0.0000010        0.06576007    0.00000000
                                                     2        0.1200000       -0.10329304    0.00000000
                                                     2        0.2000000        0.24891756    0.00000000
                                                     2        0.4000000       -0.50800022    0.00000000
                                                     2        0.9000000        0.81480796    0.00000000
                                      D - G
                                                     0        0.0000010       -0.14101855    0.00000000
                                                     2        0.1200000        0.22105937    0.00000000
                                                     2        0.1800000       -0.45814988    0.00000000
                                                     2        0.3000000        0.46029282    0.00000000
                                      F - G
                                                     0        0.0000010        0.07483044    0.00000000
                                                     2        0.1200000       -0.09134252    0.00000000
                                                     2        0.1400000        0.04125459    0.00000000
                                                     2        0.3000000        0.37914837    0.00000000
                                                     2        0.5000000       -0.86881279    0.00000000
    8          1            1
                                      F and up 
                                                     0        0.0000010       -0.00000699    0.00000000
                                                     2        0.1200000        0.00123686    0.00000000
                                                     2        0.1800000       -0.00752022    0.00000000
                                                     2        0.2600000        0.02503380    0.00000000
                                                     2        0.4000000       -0.08702670    0.00000000
                                                     2        0.6000000        0.30134159    0.00000000
                                                     2        0.8000000       -0.50204959    0.00000000
                                                     2        1.2000000        0.52208372    0.00000000
                                      S - F
                                                     0        0.0000010       -0.01618346    0.00000000
                                                     2        0.1200000       -0.07880581    0.00000000
                                                     2        0.1600000        0.32040539    0.00000000
                                                     2        0.2400000       -0.47500956    0.00000000
                                                     2        0.5000000        0.54013668    0.00000000
                                                     2        1.5000000       -1.40434292    0.00000000
                                                     2        3.0000000        1.46283806    0.00000000
                                      P - F
                                                     0        0.0000010        0.00612970    0.00000000
                                                     2        0.1200000        0.02254406    0.00000000
                                                     2        0.1800000       -0.13874529    0.00000000
                                                     2        0.3000000        0.38299049    0.00000000
                                                     2        0.5000000       -0.57923512    0.00000000
                                                     2        1.0000000        0.63021625    0.00000000
                                                     2        2.0000000       -0.79201034    0.00000000
                                      D - F
                                                     0        0.0000010       -0.00296226    0.00000000
                                                     2        0.1200000       -0.00547344    0.00000000
                                                     2        0.1400000        0.01837884    0.00000000
                                                     2        0.2400000       -0.05565704    0.00000000
                                                     2        0.4000000        0.15376597    0.00000000
                                                     2        0.8000000       -0.32464795    0.00000000
    9          1            1
                                      F and up 
                                                     0        0.0000010       -0.00000699    0.00000000
                                                     2        0.1200000        0.00123686    0.00000000
                                                     2        0.1800000       -0.00752022    0.00000000
                                                     2        0.2600000        0.02503380    0.00000000
                                                     2        0.4000000       -0.08702670    0.00000000
                                                     2        0.6000000        0.30134159    0.00000000
                                                     2        0.8000000       -0.50204959    0.00000000
                                                     2        1.2000000        0.52208372    0.00000000
                                      S - F
                                                     0        0.0000010       -0.01618346    0.00000000
                                                     2        0.1200000       -0.07880581    0.00000000
                                                     2        0.1600000        0.32040539    0.00000000
                                                     2        0.2400000       -0.47500956    0.00000000
                                                     2        0.5000000        0.54013668    0.00000000
                                                     2        1.5000000       -1.40434292    0.00000000
                                                     2        3.0000000        1.46283806    0.00000000
                                      P - F
                                                     0        0.0000010        0.00612970    0.00000000
                                                     2        0.1200000        0.02254406    0.00000000
                                                     2        0.1800000       -0.13874529    0.00000000
                                                     2        0.3000000        0.38299049    0.00000000
                                                     2        0.5000000       -0.57923512    0.00000000
                                                     2        1.0000000        0.63021625    0.00000000
                                                     2        2.0000000       -0.79201034    0.00000000
                                      D - F
                                                     0        0.0000010       -0.00296226    0.00000000
                                                     2        0.1200000       -0.00547344    0.00000000
                                                     2        0.1400000        0.01837884    0.00000000
                                                     2        0.2400000       -0.05565704    0.00000000
                                                     2        0.4000000        0.15376597    0.00000000
                                                     2        0.8000000       -0.32464795    0.00000000
   10          1            1
                                      F and up 
                                                     0        0.0000010       -0.00000699    0.00000000
                                                     2        0.1200000        0.00123686    0.00000000
                                                     2        0.1800000       -0.00752022    0.00000000
                                                     2        0.2600000        0.02503380    0.00000000
                                                     2        0.4000000       -0.08702670    0.00000000
                                                     2        0.6000000        0.30134159    0.00000000
                                                     2        0.8000000       -0.50204959    0.00000000
                                                     2        1.2000000        0.52208372    0.00000000
                                      S - F
                                                     0        0.0000010       -0.01618346    0.00000000
                                                     2        0.1200000       -0.07880581    0.00000000
                                                     2        0.1600000        0.32040539    0.00000000
                                                     2        0.2400000       -0.47500956    0.00000000
                                                     2        0.5000000        0.54013668    0.00000000
                                                     2        1.5000000       -1.40434292    0.00000000
                                                     2        3.0000000        1.46283806    0.00000000
                                      P - F
                                                     0        0.0000010        0.00612970    0.00000000
                                                     2        0.1200000        0.02254406    0.00000000
                                                     2        0.1800000       -0.13874529    0.00000000
                                                     2        0.3000000        0.38299049    0.00000000
                                                     2        0.5000000       -0.57923512    0.00000000
                                                     2        1.0000000        0.63021625    0.00000000
                                                     2        2.0000000       -0.79201034    0.00000000
                                      D - F
                                                     0        0.0000010       -0.00296226    0.00000000
                                                     2        0.1200000       -0.00547344    0.00000000
                                                     2        0.1400000        0.01837884    0.00000000
                                                     2        0.2400000       -0.05565704    0.00000000
                                                     2        0.4000000        0.15376597    0.00000000
                                                     2        0.8000000       -0.32464795    0.00000000
   11          1            1
                                      F and up 
                                                     0        0.0000010       -0.00000699    0.00000000
                                                     2        0.1200000        0.00123686    0.00000000
                                                     2        0.1800000       -0.00752022    0.00000000
                                                     2        0.2600000        0.02503380    0.00000000
                                                     2        0.4000000       -0.08702670    0.00000000
                                                     2        0.6000000        0.30134159    0.00000000
                                                     2        0.8000000       -0.50204959    0.00000000
                                                     2        1.2000000        0.52208372    0.00000000
                                      S - F
                                                     0        0.0000010       -0.01618346    0.00000000
                                                     2        0.1200000       -0.07880581    0.00000000
                                                     2        0.1600000        0.32040539    0.00000000
                                                     2        0.2400000       -0.47500956    0.00000000
                                                     2        0.5000000        0.54013668    0.00000000
                                                     2        1.5000000       -1.40434292    0.00000000
                                                     2        3.0000000        1.46283806    0.00000000
                                      P - F
                                                     0        0.0000010        0.00612970    0.00000000
                                                     2        0.1200000        0.02254406    0.00000000
                                                     2        0.1800000       -0.13874529    0.00000000
                                                     2        0.3000000        0.38299049    0.00000000
                                                     2        0.5000000       -0.57923512    0.00000000
                                                     2        1.0000000        0.63021625    0.00000000
                                                     2        2.0000000       -0.79201034    0.00000000
                                      D - F
                                                     0        0.0000010       -0.00296226    0.00000000
                                                     2        0.1200000       -0.00547344    0.00000000
                                                     2        0.1400000        0.01837884    0.00000000
                                                     2        0.2400000       -0.05565704    0.00000000
                                                     2        0.4000000        0.15376597    0.00000000
                                                     2        0.8000000       -0.32464795    0.00000000
   12          1            1
                                      F and up 
                                                     0        0.0000010       -0.00000699    0.00000000
                                                     2        0.1200000        0.00123686    0.00000000
                                                     2        0.1800000       -0.00752022    0.00000000
                                                     2        0.2600000        0.02503380    0.00000000
                                                     2        0.4000000       -0.08702670    0.00000000
                                                     2        0.6000000        0.30134159    0.00000000
                                                     2        0.8000000       -0.50204959    0.00000000
                                                     2        1.2000000        0.52208372    0.00000000
                                      S - F
                                                     0        0.0000010       -0.01618346    0.00000000
                                                     2        0.1200000       -0.07880581    0.00000000
                                                     2        0.1600000        0.32040539    0.00000000
                                                     2        0.2400000       -0.47500956    0.00000000
                                                     2        0.5000000        0.54013668    0.00000000
                                                     2        1.5000000       -1.40434292    0.00000000
                                                     2        3.0000000        1.46283806    0.00000000
                                      P - F
                                                     0        0.0000010        0.00612970    0.00000000
                                                     2        0.1200000        0.02254406    0.00000000
                                                     2        0.1800000       -0.13874529    0.00000000
                                                     2        0.3000000        0.38299049    0.00000000
                                                     2        0.5000000       -0.57923512    0.00000000
                                                     2        1.0000000        0.63021625    0.00000000
                                                     2        2.0000000       -0.79201034    0.00000000
                                      D - F
                                                     0        0.0000010       -0.00296226    0.00000000
                                                     2        0.1200000       -0.00547344    0.00000000
                                                     2        0.1400000        0.01837884    0.00000000
                                                     2        0.2400000       -0.05565704    0.00000000
                                                     2        0.4000000        0.15376597    0.00000000
                                                     2        0.8000000       -0.32464795    0.00000000
   13          1            1
                                      F and up 
                                                     0        0.0000010       -0.00000699    0.00000000
                                                     2        0.1200000        0.00123686    0.00000000
                                                     2        0.1800000       -0.00752022    0.00000000
                                                     2        0.2600000        0.02503380    0.00000000
                                                     2        0.4000000       -0.08702670    0.00000000
                                                     2        0.6000000        0.30134159    0.00000000
                                                     2        0.8000000       -0.50204959    0.00000000
                                                     2        1.2000000        0.52208372    0.00000000
                                      S - F
                                                     0        0.0000010       -0.01618346    0.00000000
                                                     2        0.1200000       -0.07880581    0.00000000
                                                     2        0.1600000        0.32040539    0.00000000
                                                     2        0.2400000       -0.47500956    0.00000000
                                                     2        0.5000000        0.54013668    0.00000000
                                                     2        1.5000000       -1.40434292    0.00000000
                                                     2        3.0000000        1.46283806    0.00000000
                                      P - F
                                                     0        0.0000010        0.00612970    0.00000000
                                                     2        0.1200000        0.02254406    0.00000000
                                                     2        0.1800000       -0.13874529    0.00000000
                                                     2        0.3000000        0.38299049    0.00000000
                                                     2        0.5000000       -0.57923512    0.00000000
                                                     2        1.0000000        0.63021625    0.00000000
                                                     2        2.0000000       -0.79201034    0.00000000
                                      D - F
                                                     0        0.0000010       -0.00296226    0.00000000
                                                     2        0.1200000       -0.00547344    0.00000000
                                                     2        0.1400000        0.01837884    0.00000000
                                                     2        0.2400000       -0.05565704    0.00000000
                                                     2        0.4000000        0.15376597    0.00000000
                                                     2        0.8000000       -0.32464795    0.00000000
   14          1            1
                                      F and up 
                                                     0        0.0000010       -0.00000699    0.00000000
                                                     2        0.1200000        0.00123686    0.00000000
                                                     2        0.1800000       -0.00752022    0.00000000
                                                     2        0.2600000        0.02503380    0.00000000
                                                     2        0.4000000       -0.08702670    0.00000000
                                                     2        0.6000000        0.30134159    0.00000000
                                                     2        0.8000000       -0.50204959    0.00000000
                                                     2        1.2000000        0.52208372    0.00000000
                                      S - F
                                                     0        0.0000010       -0.01618346    0.00000000
                                                     2        0.1200000       -0.07880581    0.00000000
                                                     2        0.1600000        0.32040539    0.00000000
                                                     2        0.2400000       -0.47500956    0.00000000
                                                     2        0.5000000        0.54013668    0.00000000
                                                     2        1.5000000       -1.40434292    0.00000000
                                                     2        3.0000000        1.46283806    0.00000000
                                      P - F
                                                     0        0.0000010        0.00612970    0.00000000
                                                     2        0.1200000        0.02254406    0.00000000
                                                     2        0.1800000       -0.13874529    0.00000000
                                                     2        0.3000000        0.38299049    0.00000000
                                                     2        0.5000000       -0.57923512    0.00000000
                                                     2        1.0000000        0.63021625    0.00000000
                                                     2        2.0000000       -0.79201034    0.00000000
                                      D - F
                                                     0        0.0000010       -0.00296226    0.00000000
                                                     2        0.1200000       -0.00547344    0.00000000
                                                     2        0.1400000        0.01837884    0.00000000
                                                     2        0.2400000       -0.05565704    0.00000000
                                                     2        0.4000000        0.15376597    0.00000000
                                                     2        0.8000000       -0.32464795    0.00000000
   15          1            1
                                      F and up 
                                                     0        0.0000010       -0.00000699    0.00000000
                                                     2        0.1200000        0.00123686    0.00000000
                                                     2        0.1800000       -0.00752022    0.00000000
                                                     2        0.2600000        0.02503380    0.00000000
                                                     2        0.4000000       -0.08702670    0.00000000
                                                     2        0.6000000        0.30134159    0.00000000
                                                     2        0.8000000       -0.50204959    0.00000000
                                                     2        1.2000000        0.52208372    0.00000000
                                      S - F
                                                     0        0.0000010       -0.01618346    0.00000000
                                                     2        0.1200000       -0.07880581    0.00000000
                                                     2        0.1600000        0.32040539    0.00000000
                                                     2        0.2400000       -0.47500956    0.00000000
                                                     2        0.5000000        0.54013668    0.00000000
                                                     2        1.5000000       -1.40434292    0.00000000
                                                     2        3.0000000        1.46283806    0.00000000
                                      P - F
                                                     0        0.0000010        0.00612970    0.00000000
                                                     2        0.1200000        0.02254406    0.00000000
                                                     2        0.1800000       -0.13874529    0.00000000
                                                     2        0.3000000        0.38299049    0.00000000
                                                     2        0.5000000       -0.57923512    0.00000000
                                                     2        1.0000000        0.63021625    0.00000000
                                                     2        2.0000000       -0.79201034    0.00000000
                                      D - F
                                                     0        0.0000010       -0.00296226    0.00000000
                                                     2        0.1200000       -0.00547344    0.00000000
                                                     2        0.1400000        0.01837884    0.00000000
                                                     2        0.2400000       -0.05565704    0.00000000
                                                     2        0.4000000        0.15376597    0.00000000
                                                     2        0.8000000       -0.32464795    0.00000000
   16          1            1
                                      F and up 
                                                     0        0.0000010       -0.00000699    0.00000000
                                                     2        0.1200000        0.00123686    0.00000000
                                                     2        0.1800000       -0.00752022    0.00000000
                                                     2        0.2600000        0.02503380    0.00000000
                                                     2        0.4000000       -0.08702670    0.00000000
                                                     2        0.6000000        0.30134159    0.00000000
                                                     2        0.8000000       -0.50204959    0.00000000
                                                     2        1.2000000        0.52208372    0.00000000
                                      S - F
                                                     0        0.0000010       -0.01618346    0.00000000
                                                     2        0.1200000       -0.07880581    0.00000000
                                                     2        0.1600000        0.32040539    0.00000000
                                                     2        0.2400000       -0.47500956    0.00000000
                                                     2        0.5000000        0.54013668    0.00000000
                                                     2        1.5000000       -1.40434292    0.00000000
                                                     2        3.0000000        1.46283806    0.00000000
                                      P - F
                                                     0        0.0000010        0.00612970    0.00000000
                                                     2        0.1200000        0.02254406    0.00000000
                                                     2        0.1800000       -0.13874529    0.00000000
                                                     2        0.3000000        0.38299049    0.00000000
                                                     2        0.5000000       -0.57923512    0.00000000
                                                     2        1.0000000        0.63021625    0.00000000
                                                     2        2.0000000       -0.79201034    0.00000000
                                      D - F
                                                     0        0.0000010       -0.00296226    0.00000000
                                                     2        0.1200000       -0.00547344    0.00000000
                                                     2        0.1400000        0.01837884    0.00000000
                                                     2        0.2400000       -0.05565704    0.00000000
                                                     2        0.4000000        0.15376597    0.00000000
                                                     2        0.8000000       -0.32464795    0.00000000
   17          1            1
                                      F and up 
                                                     0        0.0000010       -0.00000699    0.00000000
                                                     2        0.1200000        0.00123686    0.00000000
                                                     2        0.1800000       -0.00752022    0.00000000
                                                     2        0.2600000        0.02503380    0.00000000
                                                     2        0.4000000       -0.08702670    0.00000000
                                                     2        0.6000000        0.30134159    0.00000000
                                                     2        0.8000000       -0.50204959    0.00000000
                                                     2        1.2000000        0.52208372    0.00000000
                                      S - F
                                                     0        0.0000010       -0.01618346    0.00000000
                                                     2        0.1200000       -0.07880581    0.00000000
                                                     2        0.1600000        0.32040539    0.00000000
                                                     2        0.2400000       -0.47500956    0.00000000
                                                     2        0.5000000        0.54013668    0.00000000
                                                     2        1.5000000       -1.40434292    0.00000000
                                                     2        3.0000000        1.46283806    0.00000000
                                      P - F
                                                     0        0.0000010        0.00612970    0.00000000
                                                     2        0.1200000        0.02254406    0.00000000
                                                     2        0.1800000       -0.13874529    0.00000000
                                                     2        0.3000000        0.38299049    0.00000000
                                                     2        0.5000000       -0.57923512    0.00000000
                                                     2        1.0000000        0.63021625    0.00000000
                                                     2        2.0000000       -0.79201034    0.00000000
                                      D - F
                                                     0        0.0000010       -0.00296226    0.00000000
                                                     2        0.1200000       -0.00547344    0.00000000
                                                     2        0.1400000        0.01837884    0.00000000
                                                     2        0.2400000       -0.05565704    0.00000000
                                                     2        0.4000000        0.15376597    0.00000000
                                                     2        0.8000000       -0.32464795    0.00000000
 ======================================================================================================
   255 basis functions,   449 primitive gaussians,   269 cartesian basis functions
    33 alpha electrons       33 beta electrons
       nuclear repulsion energy       441.0886023082 Hartrees.
 NAtoms=   17 NActive=   17 NUniq=   17 SFac= 1.00D+00 NAtFMM=   60 NAOKFM=F Big=F
   1 Symmetry operations used in ECPInt.
 ECPInt:  NShTT=    6670 NPrTT=   32048 LenC2=    6665 LenP2D=   24870.
 LDataN:  DoStor=T MaxTD1= 6 Len=  172
 Initial guess from the checkpoint file:  "2-methylsulphonylpropane.chk"
 B after Tr=     0.000000    0.000000   -0.000000
         Rot=    1.000000   -0.000000    0.000000    0.000000 Ang=   0.00 deg.
 >>>>>>>>>> Convergence criterion not met.
 SCF Done:  E(RHF) =  -704.684973293     A.U. after    2 cycles
            NFock=  1  Conv=0.60D-02     -V/T= 2.0036

 **********************************************************************

            Population analysis using the SCF Density.

 **********************************************************************

 Orbital symmetries:
       Occupied  (A) (A) (A) (A) (A) (A) (A) (A) (A) (A) (A) (A)
                 (A) (A) (A) (A) (A) (A) (A) (A) (A) (A) (A) (A)
                 (A) (A) (A) (A) (A) (A) (A) (A) (A)
       Virtual   (A) (A) (A) (A) (A) (A) (A) (A) (A) (A) (A) (A)
                 (A) (A) (A) (A) (A) (A) (A) (A) (A) (A) (A) (A)
                 (A) (A) (A) (A) (A) (A) (A) (A) (A) (A) (A) (A)
                 (A) (A) (A) (A) (A) (A) (A) (A) (A) (A) (A) (A)
                 (A) (A) (A) (A) (A) (A) (A) (A) (A) (A) (A) (A)
                 (A) (A) (A) (A) (A) (A) (A) (A) (A) (A) (A) (A)
                 (A) (A) (A) (A) (A) (A) (A) (A) (A) (A) (A) (A)
                 (A) (A) (A) (A) (A) (A) (A) (A) (A) (A) (A) (A)
                 (A) (A) (A) (A) (A) (A) (A) (A) (A) (A) (A) (A)
                 (A) (A) (A) (A) (A) (A) (A) (A) (A) (A) (A) (A)
                 (A) (A) (A) (A) (A) (A) (A) (A) (A) (A) (A) (A)
                 (A) (A) (A) (A) (A) (A) (A) (A) (A) (A) (A) (A)
                 (A) (A) (A) (A) (A) (A) (A) (A) (A) (A) (A) (A)
                 (A) (A) (A) (A) (A) (A) (A) (A) (A) (A) (A) (A)
                 (A) (A) (A) (A) (A) (A) (A) (A) (A) (A) (A) (A)
                 (A) (A) (A) (A) (A) (A) (A) (A) (A) (A) (A) (A)
                 (A) (A) (A) (A) (A) (A) (A) (A) (A) (A) (A) (A)
                 (A) (A) (A) (A) (A) (A) (A) (A) (A) (A) (A) (A)
                 (A) (A) (A) (A) (A) (A)
 The electronic state is 1-A.
 Alpha  occ. eigenvalues --  -93.76890 -20.54898 -20.54825 -11.29584 -11.28607
 Alpha  occ. eigenvalues --  -11.25520 -11.24568  -9.03708  -6.38321  -6.38111
 Alpha  occ. eigenvalues --   -6.38040  -1.40231  -1.28869  -1.10239  -1.03008
 Alpha  occ. eigenvalues --   -0.95840  -0.88554  -0.78296  -0.70195  -0.66919
 Alpha  occ. eigenvalues --   -0.66288  -0.64726  -0.61233  -0.60358  -0.59123
 Alpha  occ. eigenvalues --   -0.56766  -0.56144  -0.52090  -0.51924  -0.50678
 Alpha  occ. eigenvalues --   -0.49450  -0.48003  -0.43346
 Alpha virt. eigenvalues --    0.02654   0.03853   0.04471   0.04886   0.06157
 Alpha virt. eigenvalues --    0.06479   0.06929   0.07649   0.08332   0.09122
 Alpha virt. eigenvalues --    0.11641   0.12337   0.13505   0.14145   0.14196
 Alpha virt. eigenvalues --    0.14996   0.15427   0.15913   0.16163   0.16859
 Alpha virt. eigenvalues --    0.17426   0.17893   0.18357   0.18768   0.19788
 Alpha virt. eigenvalues --    0.20835   0.21279   0.21953   0.23093   0.24000
 Alpha virt. eigenvalues --    0.25534   0.25838   0.26284   0.26827   0.28242
 Alpha virt. eigenvalues --    0.28836   0.30054   0.30656   0.31501   0.32953
 Alpha virt. eigenvalues --    0.33560   0.35058   0.35534   0.36702   0.37035
 Alpha virt. eigenvalues --    0.37785   0.38096   0.38947   0.39689   0.40927
 Alpha virt. eigenvalues --    0.41732   0.43735   0.44313   0.45067   0.45814
 Alpha virt. eigenvalues --    0.46689   0.46967   0.47523   0.47998   0.49040
 Alpha virt. eigenvalues --    0.49532   0.50110   0.50837   0.52107   0.53114
 Alpha virt. eigenvalues --    0.54031   0.54551   0.55830   0.56469   0.56876
 Alpha virt. eigenvalues --    0.57606   0.58378   0.58794   0.59390   0.60170
 Alpha virt. eigenvalues --    0.60892   0.62333   0.63428   0.64725   0.65703
 Alpha virt. eigenvalues --    0.67599   0.67822   0.68462   0.68783   0.69812
 Alpha virt. eigenvalues --    0.70644   0.72749   0.73436   0.74266   0.75642
 Alpha virt. eigenvalues --    0.76157   0.76556   0.77844   0.78860   0.79752
 Alpha virt. eigenvalues --    0.82542   0.83615   0.84592   0.85547   0.87535
 Alpha virt. eigenvalues --    0.87882   0.88660   0.90550   0.91679   0.92454
 Alpha virt. eigenvalues --    0.93497   0.94415   0.96573   0.99580   1.00851
 Alpha virt. eigenvalues --    1.03751   1.09171   1.10309   1.11519   1.12716
 Alpha virt. eigenvalues --    1.14028   1.14712   1.16647   1.17297   1.19069
 Alpha virt. eigenvalues --    1.20111   1.21597   1.23833   1.25533   1.27093
 Alpha virt. eigenvalues --    1.29504   1.30680   1.33753   1.34745   1.36853
 Alpha virt. eigenvalues --    1.37187   1.38698   1.41231   1.42301   1.44559
 Alpha virt. eigenvalues --    1.44819   1.48314   1.48854   1.51351   1.53139
 Alpha virt. eigenvalues --    1.56785   1.58579   1.61309   1.63845   1.65523
 Alpha virt. eigenvalues --    1.67509   1.68861   1.72318   1.73812   1.75367
 Alpha virt. eigenvalues --    1.78733   1.81861   1.82353   1.84784   1.87390
 Alpha virt. eigenvalues --    1.89338   1.90417   1.92780   1.93625   1.95955
 Alpha virt. eigenvalues --    1.96496   2.00147   2.01008   2.02365   2.04342
 Alpha virt. eigenvalues --    2.09168   2.09619   2.10481   2.12719   2.16093
 Alpha virt. eigenvalues --    2.16524   2.18127   2.19964   2.21175   2.23337
 Alpha virt. eigenvalues --    2.24929   2.26102   2.29082   2.31577   2.33188
 Alpha virt. eigenvalues --    2.35495   2.36332   2.41402   2.42754   2.45655
 Alpha virt. eigenvalues --    2.46188   2.47453   2.50778   2.52400   2.53488
 Alpha virt. eigenvalues --    2.54383   2.60619   2.65053   2.68518   2.72422
 Alpha virt. eigenvalues --    2.73873   2.75753   2.80446   2.86877   2.87781
 Alpha virt. eigenvalues --    2.90628   2.94077   2.96462   2.97863   3.02077
 Alpha virt. eigenvalues --    3.07223   3.10194   3.18167   3.20179   3.23457
 Alpha virt. eigenvalues --    3.25393   3.48988   3.60487   3.60937   3.63877
 Alpha virt. eigenvalues --    3.65708   3.67250   3.68449   3.70241   3.72251
 Alpha virt. eigenvalues --    3.73387   3.87918
          Condensed to atoms (all electrons):
 Mulliken charges:
               1
     1  C    0.729022
     2  C   -1.394636
     3  C    0.767298
     4  S    2.450382
     5  C    0.075581
     6  O   -1.144852
     7  O   -1.167030
     8  H   -0.045478
     9  H   -0.033097
    10  H    0.018669
    11  H   -0.146806
    12  H   -0.033477
    13  H   -0.134647
    14  H    0.032720
    15  H   -0.009279
    16  H    0.036083
    17  H   -0.000452
 Sum of Mulliken charges =  -0.00000
 Mulliken charges with hydrogens summed into heavy atoms:
               1
     1  C    0.669115
     2  C   -1.541443
     3  C    0.631894
     4  S    2.450382
     5  C    0.101933
     6  O   -1.144852
     7  O   -1.167030
 Electronic spatial extent (au):  <R**2>=            896.2705
 Charge=             -0.0000 electrons
 Dipole moment (field-independent basis, Debye):
    X=              2.2423    Y=              4.0972    Z=             -2.8941  Tot=              5.4946

 Test job not archived.
 1\1\GINC-SE040\SP\RHF\Aug-CC-pVDZ\C4H10O2S1\OHZDE\05-Apr-2025\0\\#t hf
  aug-cc-pvdz iop(5/13=1,5/36=2,99/5=2) pseudo=read geom=check guess=(r
 ead,tcheck) scf=(maxcycle=1)\\title\\0,1\C,0,1.914502,-1.078827,-0.104
 407\C,0,1.061527,0.128342,-0.489304\C,0,1.601028,1.440504,0.068529\S,0
 ,-0.649449,-0.198934,0.095737\C,0,-1.646361,1.149604,-0.566671\O,0,-1.
 109835,-1.428241,-0.547411\O,0,-0.671628,-0.09497,1.553917\H,0,1.50096
 8,-2.001807,-0.504676\H,0,2.919668,-0.945747,-0.50554\H,0,1.988659,-1.
 170348,0.978888\H,0,0.955561,0.177066,-1.574814\H,0,2.625979,1.581977,
 -0.276903\H,0,1.023346,2.303886,-0.259803\H,0,1.607003,1.421611,1.1575
 7\H,0,-1.554403,1.165975,-1.649467\H,0,-2.667243,0.908253,-0.27932\H,0
 ,-1.340836,2.090018,-0.118649\\Version=ES64L-G16RevC.01\State=1-A\HF=-
 704.6849733\RMSD=5.964e-03\Dipole=0.8821877,1.611978,-1.1386156\Quadru
 pole=3.7310473,-0.6744163,-3.056631,-4.3588731,1.0152153,-1.7849951\PG
 =C01 [X(C4H10O2S1)]\\@


 There are more things in heaven and earth, Horatio,
 than are dreamt of in your philosophy.
                   -- Hamlet, Act I, Scene 5
 Job cpu time:       0 days  0 hours  1 minutes 32.4 seconds.
 Elapsed time:       0 days  0 hours  0 minutes  6.8 seconds.
 File lengths (MBytes):  RWF=     14 Int=      0 D2E=      0 Chk=      9 Scr=      1
 Normal termination of Gaussian 16 at Sat Apr  5 22:32:21 2025.
