 Entering Gaussian System, Link 0=g16
 Input=indane.gjf
 Output=indane.log
 Initial command:
 /arc/software/Gaussian/g16.c01/l1.exe "/tmp/slurm/4816457/Gau-3184954.inp" -scrdir="/tmp/slurm/4816457/"
 Entering Link 1 = /arc/software/Gaussian/g16.c01/l1.exe PID=   3184956.
  
 Copyright (c) 1988-2019, Gaussian, Inc.  All Rights Reserved.
  
 This is part of the Gaussian(R) 16 program.  It is based on
 the Gaussian(R) 09 system (copyright 2009, Gaussian, Inc.),
 the Gaussian(R) 03 system (copyright 2003, Gaussian, Inc.),
 the Gaussian(R) 98 system (copyright 1998, Gaussian, Inc.),
 the Gaussian(R) 94 system (copyright 1995, Gaussian, Inc.),
 the Gaussian 92(TM) system (copyright 1992, Gaussian, Inc.),
 the Gaussian 90(TM) system (copyright 1990, Gaussian, Inc.),
 the Gaussian 88(TM) system (copyright 1988, Gaussian, Inc.),
 the Gaussian 86(TM) system (copyright 1986, Carnegie Mellon
 University), and the Gaussian 82(TM) system (copyright 1983,
 Carnegie Mellon University). Gaussian is a federally registered
 trademark of Gaussian, Inc.
  
 This software contains proprietary and confidential information,
 including trade secrets, belonging to Gaussian, Inc.
  
 This software is provided under written license and may be
 used, copied, transmitted, or stored only in accord with that
 written license.
  
 The following legend is applicable only to US Government
 contracts under FAR:
  
                    RESTRICTED RIGHTS LEGEND
  
 Use, reproduction and disclosure by the US Government is
 subject to restrictions as set forth in subparagraphs (a)
 and (c) of the Commercial Computer Software - Restricted
 Rights clause in FAR 52.227-19.
  
 Gaussian, Inc.
 340 Quinnipiac St., Bldg. 40, Wallingford CT 06492
  
  
 ---------------------------------------------------------------
 Warning -- This program may not be used in any manner that
 competes with the business of Gaussian, Inc. or will provide
 assistance to any competitor of Gaussian, Inc.  The licensee
 of this program is prohibited from giving any competitor of
 Gaussian, Inc. access to this program.  By using this program,
 the user acknowledges that Gaussian, Inc. is engaged in the
 business of creating and licensing software in the field of
 computational chemistry and represents and warrants to the
 licensee that it is not a competitor of Gaussian, Inc. and that
 it will not use this program in any manner prohibited above.
 ---------------------------------------------------------------
  

 Cite this work as:
 Gaussian 16, Revision C.01,
 M. J. Frisch, G. W. Trucks, H. B. Schlegel, G. E. Scuseria, 
 M. A. Robb, J. R. Cheeseman, G. Scalmani, V. Barone, 
 G. A. Petersson, H. Nakatsuji, X. Li, M. Caricato, A. V. Marenich, 
 J. Bloino, B. G. Janesko, R. Gomperts, B. Mennucci, H. P. Hratchian, 
 J. V. Ortiz, A. F. Izmaylov, J. L. Sonnenberg, D. Williams-Young, 
 F. Ding, F. Lipparini, F. Egidi, J. Goings, B. Peng, A. Petrone, 
 T. Henderson, D. Ranasinghe, V. G. Zakrzewski, J. Gao, N. Rega, 
 G. Zheng, W. Liang, M. Hada, M. Ehara, K. Toyota, R. Fukuda, 
 J. Hasegawa, M. Ishida, T. Nakajima, Y. Honda, O. Kitao, H. Nakai, 
 T. Vreven, K. Throssell, J. A. Montgomery, Jr., J. E. Peralta, 
 F. Ogliaro, M. J. Bearpark, J. J. Heyd, E. N. Brothers, K. N. Kudin, 
 V. N. Staroverov, T. A. Keith, R. Kobayashi, J. Normand, 
 K. Raghavachari, A. P. Rendell, J. C. Burant, S. S. Iyengar, 
 J. Tomasi, M. Cossi, J. M. Millam, M. Klene, C. Adamo, R. Cammi, 
 J. W. Ochterski, R. L. Martin, K. Morokuma, O. Farkas, 
 J. B. Foresman, and D. J. Fox, Gaussian, Inc., Wallingford CT, 2019.
 
 ******************************************
 Gaussian 16:  ES64L-G16RevC.01  3-Jul-2019
                 5-Apr-2025 
 ******************************************
 %nprocs=16
 Will use up to   16 processors via shared memory.
 %mem=30GB
 %chk=indane.chk
 ----------------------------------------------------------------------
 #t hf aug-cc-pvdz symm=none int=(grid=ultrafine) guess=(read,tcheck) s
 table=(opt,rrhf)
 ----------------------------------------------------------------------
 -----
 title
 -----
 Symbolic Z-matrix:
 Charge =  0 Multiplicity = 1
 C                    -0.04557  -2.24909   0.69614 
 C                    -0.04557  -2.24909  -0.69614 
 C                     0.0041   -1.04832   1.40052 
 C                     0.0041   -1.04832  -1.40052 
 C                     0.04967   0.1485    0.69824 
 C                     0.04967   0.1485   -0.69824 
 C                     0.12574   1.56134   1.22744 
 C                     0.12574   1.56134  -1.22744 
 C                    -0.25869   2.41885   0. 
 H                    -0.08979  -3.18713   1.23342 
 H                    -0.08979  -3.18713  -1.23342 
 H                     0.0011   -1.05376   2.48343 
 H                     0.0011   -1.05376  -2.48343 
 H                    -0.52645   1.73385   2.08432 
 H                     1.14599   1.78577   1.55601 
 H                     1.14599   1.78577  -1.55601 
 H                    -0.52645   1.73385  -2.08432 
 H                    -1.33765   2.58351   0. 
 H                     0.2208    3.39681   0. 
 
                    Distance matrix (angstroms):
                    1          2          3          4          5
     1  C    0.000000
     2  C    1.392274   0.000000
     3  C    1.393003   2.416666   0.000000
     4  C    2.416666   1.393003   2.801040   0.000000
     5  C    2.399486   2.775215   1.388407   2.416459   0.000000
     6  C    2.775215   2.399486   2.416459   1.388407   1.396482
     7  C    3.851102   4.271867   2.618224   3.705577   1.510608
     8  C    4.271867   3.851102   3.705577   2.618224   2.389587
     9  C    4.724371   4.724371   3.748574   3.748574   2.395223
    10  H    1.081922   2.145946   2.147377   3.394255   3.381173
    11  H    2.145946   1.081922   3.394255   2.147377   3.857103
    12  H    2.150676   3.397151   1.082926   3.883953   2.152832
    13  H    3.397151   2.150676   3.883953   1.082926   3.401589
    14  H    4.245245   4.881189   2.913683   4.490668   2.183221
    15  H    4.294097   4.772006   3.059442   4.251712   2.149023
    16  H    4.772006   4.294097   4.251712   3.059442   2.994022
    17  H    4.881189   4.245245   4.490668   2.913683   3.253905
    18  H    5.050550   5.050550   4.117271   4.117271   2.888153
    19  H    5.694887   5.694887   4.665580   4.665580   3.326907
                    6          7          8          9         10
     6  C    0.000000
     7  C    2.389587   0.000000
     8  C    1.510608   2.454876   0.000000
     9  C    2.395223   1.545869   1.545869   0.000000
    10  H    3.857103   4.753362   5.352593   5.742549   0.000000
    11  H    3.381173   5.352593   4.753362   5.742549   2.466848
    12  H    3.401589   2.903751   4.541452   4.277136   2.474279
    13  H    2.152832   4.541452   2.903751   4.277136   4.286553
    14  H    3.253905   1.090577   3.379774   2.210278   5.013056
    15  H    2.994022   1.095093   2.973017   2.189758   5.134292
    16  H    2.149023   2.973017   1.095093   2.189758   5.834194
    17  H    2.183221   3.379774   1.090577   2.210278   5.950979
    18  H    2.888153   2.166316   2.166316   1.091452   6.031477
    19  H    3.326907   2.210112   2.210112   1.089179   6.705674
                   11         12         13         14         15
    11  H    0.000000
    12  H    4.286553   0.000000
    13  H    2.474279   4.966856   0.000000
    14  H    5.950979   2.865017   5.377118   0.000000
    15  H    5.834194   3.199031   5.068601   1.754663   0.000000
    16  H    5.134292   5.068601   3.199031   4.006460   3.112012
    17  H    5.013056   5.377118   2.865017   4.168648   4.006460
    18  H    6.031477   4.603186   4.603186   2.392565   3.037426
    19  H    6.705674   5.101296   5.101296   2.769155   2.423339
                   16         17         18         19
    16  H    0.000000
    17  H    1.754663   0.000000
    18  H    3.037426   2.392565   0.000000
    19  H    2.423339   2.769155   1.757899   0.000000
 Symmetry turned off by external request.
 Rotational constants (GHZ):           3.5573516           1.5006501           1.0842555
   297 basis functions,   497 primitive gaussians,   315 cartesian basis functions
    32 alpha electrons       32 beta electrons
       nuclear repulsion energy       416.2816560831 Hartrees.
 NAtoms=   19 NActive=   19 NUniq=   19 SFac= 1.00D+00 NAtFMM=   60 NAOKFM=F Big=F
 ExpMin= 2.97D-02 ExpMax= 6.67D+03 ExpMxC= 2.28D+02 IAcc=3 IRadAn=         5 AccDes= 0.00D+00
 Harris functional with IExCor=  205 and IRadAn=       5 diagonalized for initial guess.
 HarFok:  IExCor=  205 AccDes= 0.00D+00 IRadAn=         5 IDoV= 1 UseB2=F ITyADJ=14
 ICtDFT=  3500011 ScaDFX=  1.000000  1.000000  1.000000  1.000000
 FoFCou: FMM=F IPFlag=           0 FMFlag=      100000 FMFlg1=           0
         NFxFlg=           0 DoJE=T BraDBF=F KetDBF=T FulRan=T
         wScrn=  0.000000 ICntrl=       500 IOpCl=  0 I1Cent=   200000004 NGrid=           0
         NMat0=    1 NMatS0=      1 NMatT0=    0 NMatD0=    1 NMtDS0=    0 NMtDT0=    0
 Symmetry not used in FoFCou.
 SCF Done:  E(RHF) =  -346.682765246     A.U. after   14 cycles
            NFock= 14  Conv=0.80D-08     -V/T= 2.0005

 **********************************************************************

            Population analysis using the SCF Density.

 **********************************************************************

 Alpha  occ. eigenvalues --  -11.23392 -11.23341 -11.23307 -11.23206 -11.23203
 Alpha  occ. eigenvalues --  -11.23135 -11.23089 -11.23068 -11.22882  -1.16992
 Alpha  occ. eigenvalues --   -1.09146  -1.02510  -0.97428  -0.94116  -0.83165
 Alpha  occ. eigenvalues --   -0.79206  -0.78259  -0.68358  -0.64745  -0.62967
 Alpha  occ. eigenvalues --   -0.61905  -0.57263  -0.56662  -0.55703  -0.51121
 Alpha  occ. eigenvalues --   -0.49730  -0.49069  -0.47368  -0.46735  -0.46149
 Alpha  occ. eigenvalues --   -0.32855  -0.31445
 Alpha virt. eigenvalues --    0.03689   0.04003   0.04183   0.05017   0.05413
 Alpha virt. eigenvalues --    0.05509   0.06936   0.07086   0.07518   0.08225
 Alpha virt. eigenvalues --    0.10666   0.11870   0.12369   0.12607   0.12643
 Alpha virt. eigenvalues --    0.13659   0.14375   0.14766   0.14988   0.15281
 Alpha virt. eigenvalues --    0.15586   0.15754   0.15907   0.16347   0.17406
 Alpha virt. eigenvalues --    0.18134   0.18715   0.18795   0.19280   0.19322
 Alpha virt. eigenvalues --    0.20356   0.20660   0.20955   0.21457   0.21743
 Alpha virt. eigenvalues --    0.22655   0.23215   0.24935   0.24944   0.25605
 Alpha virt. eigenvalues --    0.26975   0.28393   0.29024   0.30740   0.31476
 Alpha virt. eigenvalues --    0.32201   0.32969   0.33256   0.33851   0.34718
 Alpha virt. eigenvalues --    0.36138   0.36477   0.37194   0.37515   0.37856
 Alpha virt. eigenvalues --    0.39169   0.39402   0.40511   0.41199   0.41324
 Alpha virt. eigenvalues --    0.42611   0.43164   0.44034   0.44717   0.45359
 Alpha virt. eigenvalues --    0.46144   0.46881   0.46914   0.47785   0.48789
 Alpha virt. eigenvalues --    0.49902   0.50224   0.51592   0.52566   0.53679
 Alpha virt. eigenvalues --    0.53997   0.55330   0.55403   0.56414   0.57531
 Alpha virt. eigenvalues --    0.57637   0.58352   0.59332   0.60527   0.60675
 Alpha virt. eigenvalues --    0.60974   0.61335   0.62800   0.63318   0.64914
 Alpha virt. eigenvalues --    0.65736   0.65787   0.66629   0.67517   0.68197
 Alpha virt. eigenvalues --    0.69170   0.69217   0.70347   0.70522   0.70790
 Alpha virt. eigenvalues --    0.71109   0.71416   0.73858   0.74217   0.76197
 Alpha virt. eigenvalues --    0.76338   0.76758   0.77028   0.77857   0.79097
 Alpha virt. eigenvalues --    0.80220   0.81397   0.82049   0.82208   0.82922
 Alpha virt. eigenvalues --    0.84822   0.85196   0.85798   0.86477   0.87774
 Alpha virt. eigenvalues --    0.88577   0.89639   0.89909   0.90876   0.91167
 Alpha virt. eigenvalues --    0.93745   0.93954   0.95715   0.95994   0.98601
 Alpha virt. eigenvalues --    0.98942   0.99381   1.00273   1.01986   1.02659
 Alpha virt. eigenvalues --    1.04701   1.05454   1.06494   1.08315   1.09335
 Alpha virt. eigenvalues --    1.10587   1.14043   1.15817   1.15973   1.17075
 Alpha virt. eigenvalues --    1.18680   1.22011   1.22769   1.22795   1.24374
 Alpha virt. eigenvalues --    1.25753   1.25955   1.26143   1.28788   1.33247
 Alpha virt. eigenvalues --    1.36504   1.36813   1.41724   1.46315   1.49769
 Alpha virt. eigenvalues --    1.51587   1.52365   1.54912   1.55775   1.57379
 Alpha virt. eigenvalues --    1.58500   1.58765   1.59869   1.59954   1.60558
 Alpha virt. eigenvalues --    1.63777   1.64216   1.65046   1.68083   1.71141
 Alpha virt. eigenvalues --    1.72047   1.72085   1.73523   1.75421   1.78573
 Alpha virt. eigenvalues --    1.79483   1.80854   1.81990   1.83216   1.83771
 Alpha virt. eigenvalues --    1.86420   1.86821   1.87302   1.88710   1.93531
 Alpha virt. eigenvalues --    1.94193   1.95506   1.96031   1.97061   1.98814
 Alpha virt. eigenvalues --    2.00660   2.02942   2.03714   2.03988   2.06785
 Alpha virt. eigenvalues --    2.09732   2.09737   2.12578   2.12832   2.14734
 Alpha virt. eigenvalues --    2.16116   2.16989   2.18524   2.22152   2.22224
 Alpha virt. eigenvalues --    2.22634   2.25697   2.26928   2.26937   2.27897
 Alpha virt. eigenvalues --    2.29408   2.29512   2.33182   2.33663   2.37951
 Alpha virt. eigenvalues --    2.39593   2.40035   2.41738   2.42172   2.45456
 Alpha virt. eigenvalues --    2.46179   2.48691   2.50294   2.50750   2.53405
 Alpha virt. eigenvalues --    2.57210   2.57490   2.59017   2.61552   2.64196
 Alpha virt. eigenvalues --    2.67623   2.68819   2.70125   2.73226   2.78985
 Alpha virt. eigenvalues --    2.83436   2.85138   2.85588   2.87154   2.92866
 Alpha virt. eigenvalues --    2.93364   2.95409   2.98086   2.98798   3.08435
 Alpha virt. eigenvalues --    3.09213   3.12190   3.12516   3.17022   3.19123
 Alpha virt. eigenvalues --    3.27184   3.33686   3.35146   3.36315   3.57995
 Alpha virt. eigenvalues --    3.66591   3.79007   3.88291   4.09072   4.88379
          Condensed to atoms (all electrons):
 Mulliken charges:
               1
     1  C    0.249510
     2  C    0.249510
     3  C    0.996153
     4  C    0.996153
     5  C   -0.654153
     6  C   -0.654153
     7  C    0.092889
     8  C    0.092889
     9  C    0.723462
    10  H   -0.475281
    11  H   -0.475281
    12  H   -0.529000
    13  H   -0.529000
    14  H    0.003316
    15  H    0.091140
    16  H    0.091140
    17  H    0.003316
    18  H   -0.148672
    19  H   -0.123942
 Sum of Mulliken charges =  -0.00000
 Mulliken charges with hydrogens summed into heavy atoms:
               1
     1  C   -0.225771
     2  C   -0.225771
     3  C    0.467154
     4  C    0.467154
     5  C   -0.654153
     6  C   -0.654153
     7  C    0.187345
     8  C    0.187345
     9  C    0.450848
 Electronic spatial extent (au):  <R**2>=           1117.4497
 Charge=             -0.0000 electrons
 Dipole moment (field-independent basis, Debye):
    X=              0.0501    Y=              0.6978    Z=              0.0000  Tot=              0.6996
 NROrb=    297 NOA=    32 NOB=    32 NVA=   265 NVB=   265

 **** Warning!!: The largest alpha MO coefficient is  0.14435393D+03

    12 initial guesses have been made.
 Iteration     1 Dimension    12 NMult     0 NNew     12
 Iteration     2 Dimension    24 NMult    12 NNew     12
 Iteration     3 Dimension    27 NMult    24 NNew      3
 Iteration     4 Dimension    30 NMult    27 NNew      3
 Iteration     5 Dimension    33 NMult    30 NNew      3
 Iteration     6 Dimension    36 NMult    33 NNew      3
 ***********************************************************************
 Stability analysis using <AA,BB:AA,BB> singles matrix:
 ***********************************************************************
 Ground to excited state transition densities written to RWF  633

 Eigenvectors of the stability matrix:
 
 Excited state symmetry could not be determined.
 Eigenvector   1:      Singlet-?Sym  Eigenvalue= 0.1664464  <S**2>=0.000
      31 -> 45        -0.39110
      31 -> 52         0.11919
      31 -> 61        -0.11967
      31 -> 64        -0.11597
      32 -> 36        -0.11478
      32 -> 43         0.33879
      32 -> 44        -0.30516
      32 -> 63         0.13474
 The wavefunction is stable under the perturbations considered.
 The wavefunction is already stable.

 **********************************************************************

            Population analysis using the SCF Density.

 **********************************************************************

 Alpha  occ. eigenvalues --  -11.23392 -11.23341 -11.23307 -11.23206 -11.23203
 Alpha  occ. eigenvalues --  -11.23135 -11.23089 -11.23068 -11.22882  -1.16992
 Alpha  occ. eigenvalues --   -1.09146  -1.02510  -0.97428  -0.94116  -0.83165
 Alpha  occ. eigenvalues --   -0.79206  -0.78259  -0.68358  -0.64745  -0.62967
 Alpha  occ. eigenvalues --   -0.61905  -0.57263  -0.56662  -0.55703  -0.51121
 Alpha  occ. eigenvalues --   -0.49730  -0.49069  -0.47368  -0.46735  -0.46149
 Alpha  occ. eigenvalues --   -0.32855  -0.31445
 Alpha virt. eigenvalues --    0.03689   0.04003   0.04183   0.05017   0.05413
 Alpha virt. eigenvalues --    0.05509   0.06936   0.07086   0.07518   0.08225
 Alpha virt. eigenvalues --    0.10666   0.11870   0.12369   0.12607   0.12643
 Alpha virt. eigenvalues --    0.13659   0.14375   0.14766   0.14988   0.15281
 Alpha virt. eigenvalues --    0.15586   0.15754   0.15907   0.16347   0.17406
 Alpha virt. eigenvalues --    0.18134   0.18715   0.18795   0.19280   0.19322
 Alpha virt. eigenvalues --    0.20356   0.20660   0.20955   0.21457   0.21743
 Alpha virt. eigenvalues --    0.22655   0.23215   0.24935   0.24944   0.25605
 Alpha virt. eigenvalues --    0.26975   0.28393   0.29024   0.30740   0.31476
 Alpha virt. eigenvalues --    0.32201   0.32969   0.33256   0.33851   0.34718
 Alpha virt. eigenvalues --    0.36138   0.36477   0.37194   0.37515   0.37856
 Alpha virt. eigenvalues --    0.39169   0.39402   0.40511   0.41199   0.41324
 Alpha virt. eigenvalues --    0.42611   0.43164   0.44034   0.44717   0.45359
 Alpha virt. eigenvalues --    0.46144   0.46881   0.46914   0.47785   0.48789
 Alpha virt. eigenvalues --    0.49902   0.50224   0.51592   0.52566   0.53679
 Alpha virt. eigenvalues --    0.53997   0.55330   0.55403   0.56414   0.57531
 Alpha virt. eigenvalues --    0.57637   0.58352   0.59332   0.60527   0.60675
 Alpha virt. eigenvalues --    0.60974   0.61335   0.62800   0.63318   0.64914
 Alpha virt. eigenvalues --    0.65736   0.65787   0.66629   0.67517   0.68197
 Alpha virt. eigenvalues --    0.69170   0.69217   0.70347   0.70522   0.70790
 Alpha virt. eigenvalues --    0.71109   0.71416   0.73858   0.74217   0.76197
 Alpha virt. eigenvalues --    0.76338   0.76758   0.77028   0.77857   0.79097
 Alpha virt. eigenvalues --    0.80220   0.81397   0.82049   0.82208   0.82922
 Alpha virt. eigenvalues --    0.84822   0.85196   0.85798   0.86477   0.87774
 Alpha virt. eigenvalues --    0.88577   0.89639   0.89909   0.90876   0.91167
 Alpha virt. eigenvalues --    0.93745   0.93954   0.95715   0.95994   0.98601
 Alpha virt. eigenvalues --    0.98942   0.99381   1.00273   1.01986   1.02659
 Alpha virt. eigenvalues --    1.04701   1.05454   1.06494   1.08315   1.09335
 Alpha virt. eigenvalues --    1.10587   1.14043   1.15817   1.15973   1.17075
 Alpha virt. eigenvalues --    1.18680   1.22011   1.22769   1.22795   1.24374
 Alpha virt. eigenvalues --    1.25753   1.25955   1.26143   1.28788   1.33247
 Alpha virt. eigenvalues --    1.36504   1.36813   1.41724   1.46315   1.49769
 Alpha virt. eigenvalues --    1.51587   1.52365   1.54912   1.55775   1.57379
 Alpha virt. eigenvalues --    1.58500   1.58765   1.59869   1.59954   1.60558
 Alpha virt. eigenvalues --    1.63777   1.64216   1.65046   1.68083   1.71141
 Alpha virt. eigenvalues --    1.72047   1.72085   1.73523   1.75421   1.78573
 Alpha virt. eigenvalues --    1.79483   1.80854   1.81990   1.83216   1.83771
 Alpha virt. eigenvalues --    1.86420   1.86821   1.87302   1.88710   1.93531
 Alpha virt. eigenvalues --    1.94193   1.95506   1.96031   1.97061   1.98814
 Alpha virt. eigenvalues --    2.00660   2.02942   2.03714   2.03988   2.06785
 Alpha virt. eigenvalues --    2.09732   2.09737   2.12578   2.12832   2.14734
 Alpha virt. eigenvalues --    2.16116   2.16989   2.18524   2.22152   2.22224
 Alpha virt. eigenvalues --    2.22634   2.25697   2.26928   2.26937   2.27897
 Alpha virt. eigenvalues --    2.29408   2.29512   2.33182   2.33663   2.37951
 Alpha virt. eigenvalues --    2.39593   2.40035   2.41738   2.42172   2.45456
 Alpha virt. eigenvalues --    2.46179   2.48691   2.50294   2.50750   2.53405
 Alpha virt. eigenvalues --    2.57210   2.57490   2.59017   2.61552   2.64196
 Alpha virt. eigenvalues --    2.67623   2.68819   2.70125   2.73226   2.78985
 Alpha virt. eigenvalues --    2.83436   2.85138   2.85588   2.87154   2.92866
 Alpha virt. eigenvalues --    2.93364   2.95409   2.98086   2.98798   3.08435
 Alpha virt. eigenvalues --    3.09213   3.12190   3.12516   3.17022   3.19123
 Alpha virt. eigenvalues --    3.27184   3.33686   3.35146   3.36315   3.57995
 Alpha virt. eigenvalues --    3.66591   3.79007   3.88291   4.09072   4.88379
          Condensed to atoms (all electrons):
 Mulliken charges:
               1
     1  C    0.249510
     2  C    0.249510
     3  C    0.996153
     4  C    0.996153
     5  C   -0.654153
     6  C   -0.654153
     7  C    0.092889
     8  C    0.092889
     9  C    0.723462
    10  H   -0.475281
    11  H   -0.475281
    12  H   -0.529000
    13  H   -0.529000
    14  H    0.003316
    15  H    0.091140
    16  H    0.091140
    17  H    0.003316
    18  H   -0.148672
    19  H   -0.123942
 Sum of Mulliken charges =  -0.00000
 Mulliken charges with hydrogens summed into heavy atoms:
               1
     1  C   -0.225771
     2  C   -0.225771
     3  C    0.467154
     4  C    0.467154
     5  C   -0.654153
     6  C   -0.654153
     7  C    0.187345
     8  C    0.187345
     9  C    0.450848
 Electronic spatial extent (au):  <R**2>=           1117.4497
 Charge=             -0.0000 electrons
 Dipole moment (field-independent basis, Debye):
    X=              0.0501    Y=              0.6978    Z=              0.0000  Tot=              0.6996
 Unable to Open any file for archive entry.
 1\1\GINC-SE190\Stability\RHF\Aug-CC-pVDZ\C9H10\OHZDE\05-Apr-2025\0\\#t
  hf aug-cc-pvdz symm=none int=(grid=ultrafine) guess=(read,tcheck) sta
 ble=(opt,rrhf)\\title\\0,1\C,0,-0.045568,-2.24909,0.696137\C,0,-0.0455
 68,-2.24909,-0.696137\C,0,0.004095,-1.048325,1.40052\C,0,0.004095,-1.0
 48325,-1.40052\C,0,0.049674,0.148504,0.698241\C,0,0.049674,0.148504,-0
 .698241\C,0,0.125739,1.561338,1.227438\C,0,0.125739,1.561338,-1.227438
 \C,0,-0.258685,2.418849,0.\H,0,-0.089794,-3.187131,1.233424\H,0,-0.089
 794,-3.187131,-1.233424\H,0,0.001095,-1.053757,2.483428\H,0,0.001095,-
 1.053757,-2.483428\H,0,-0.526446,1.733848,2.084324\H,0,1.145985,1.7857
 7,1.556006\H,0,1.145985,1.78577,-1.556006\H,0,-0.526446,1.733848,-2.08
 4324\H,0,-1.337645,2.583506,0.\H,0,0.220799,3.396809,0.\\Version=ES64L
 -G16RevC.01\HF=-346.6827652\RMSD=7.954e-09\Dipole=0.0197151,0.2745356,
 0.\Quadrupole=-3.5622728,1.6593262,1.9029466,0.3370256,0.,0.\PG=Unknow
 n\\@
 The archive entry for this job was punched.


 DEFINE YOUR TERMS, YOU WILL PERMIT ME AGAIN TO SAY, 
 OR WE SHALL NEVER UNDERSTAND ONE ANOTHER.

                                    -- VOLTAIRE
 Job cpu time:       0 days  0 hours 18 minutes 32.1 seconds.
 Elapsed time:       0 days  0 hours  1 minutes 25.6 seconds.
 File lengths (MBytes):  RWF=    358 Int=      0 D2E=      0 Chk=     12 Scr=      1
 Normal termination of Gaussian 16 at Sat Apr  5 22:59:57 2025.
 Initial command:
 /arc/software/Gaussian/g16.c01/l1.exe "/tmp/slurm/4816457/Gau-3184954.inp" -scrdir="/tmp/slurm/4816457/"
 Entering Link 1 = /arc/software/Gaussian/g16.c01/l1.exe PID=   3185469.
  
 Copyright (c) 1988-2019, Gaussian, Inc.  All Rights Reserved.
  
 This is part of the Gaussian(R) 16 program.  It is based on
 the Gaussian(R) 09 system (copyright 2009, Gaussian, Inc.),
 the Gaussian(R) 03 system (copyright 2003, Gaussian, Inc.),
 the Gaussian(R) 98 system (copyright 1998, Gaussian, Inc.),
 the Gaussian(R) 94 system (copyright 1995, Gaussian, Inc.),
 the Gaussian 92(TM) system (copyright 1992, Gaussian, Inc.),
 the Gaussian 90(TM) system (copyright 1990, Gaussian, Inc.),
 the Gaussian 88(TM) system (copyright 1988, Gaussian, Inc.),
 the Gaussian 86(TM) system (copyright 1986, Carnegie Mellon
 University), and the Gaussian 82(TM) system (copyright 1983,
 Carnegie Mellon University). Gaussian is a federally registered
 trademark of Gaussian, Inc.
  
 This software contains proprietary and confidential information,
 including trade secrets, belonging to Gaussian, Inc.
  
 This software is provided under written license and may be
 used, copied, transmitted, or stored only in accord with that
 written license.
  
 The following legend is applicable only to US Government
 contracts under FAR:
  
                    RESTRICTED RIGHTS LEGEND
  
 Use, reproduction and disclosure by the US Government is
 subject to restrictions as set forth in subparagraphs (a)
 and (c) of the Commercial Computer Software - Restricted
 Rights clause in FAR 52.227-19.
  
 Gaussian, Inc.
 340 Quinnipiac St., Bldg. 40, Wallingford CT 06492
  
  
 ---------------------------------------------------------------
 Warning -- This program may not be used in any manner that
 competes with the business of Gaussian, Inc. or will provide
 assistance to any competitor of Gaussian, Inc.  The licensee
 of this program is prohibited from giving any competitor of
 Gaussian, Inc. access to this program.  By using this program,
 the user acknowledges that Gaussian, Inc. is engaged in the
 business of creating and licensing software in the field of
 computational chemistry and represents and warrants to the
 licensee that it is not a competitor of Gaussian, Inc. and that
 it will not use this program in any manner prohibited above.
 ---------------------------------------------------------------
  

 Cite this work as:
 Gaussian 16, Revision C.01,
 M. J. Frisch, G. W. Trucks, H. B. Schlegel, G. E. Scuseria, 
 M. A. Robb, J. R. Cheeseman, G. Scalmani, V. Barone, 
 G. A. Petersson, H. Nakatsuji, X. Li, M. Caricato, A. V. Marenich, 
 J. Bloino, B. G. Janesko, R. Gomperts, B. Mennucci, H. P. Hratchian, 
 J. V. Ortiz, A. F. Izmaylov, J. L. Sonnenberg, D. Williams-Young, 
 F. Ding, F. Lipparini, F. Egidi, J. Goings, B. Peng, A. Petrone, 
 T. Henderson, D. Ranasinghe, V. G. Zakrzewski, J. Gao, N. Rega, 
 G. Zheng, W. Liang, M. Hada, M. Ehara, K. Toyota, R. Fukuda, 
 J. Hasegawa, M. Ishida, T. Nakajima, Y. Honda, O. Kitao, H. Nakai, 
 T. Vreven, K. Throssell, J. A. Montgomery, Jr., J. E. Peralta, 
 F. Ogliaro, M. J. Bearpark, J. J. Heyd, E. N. Brothers, K. N. Kudin, 
 V. N. Staroverov, T. A. Keith, R. Kobayashi, J. Normand, 
 K. Raghavachari, A. P. Rendell, J. C. Burant, S. S. Iyengar, 
 J. Tomasi, M. Cossi, J. M. Millam, M. Klene, C. Adamo, R. Cammi, 
 J. W. Ochterski, R. L. Martin, K. Morokuma, O. Farkas, 
 J. B. Foresman, and D. J. Fox, Gaussian, Inc., Wallingford CT, 2019.
 
 ******************************************
 Gaussian 16:  ES64L-G16RevC.01  3-Jul-2019
                 5-Apr-2025 
 ******************************************
 %nprocs=16
 Will use up to   16 processors via shared memory.
 %mem=30GB
 %chk=indane.chk
 ----------------------------------------------------------------------
 #t hf aug-cc-pvdz iop(5/13=1,5/36=2,99/5=2) pseudo=read geom=check gue
 ss=(read,tcheck) scf=(maxcycle=1)
 ----------------------------------------------------------------------
 -----
 title
 -----
 Structure from the checkpoint file:  "indane.chk"
 Charge =  0 Multiplicity = 1
 Z-Matrix found in chk file.
 C,0,-0.045568,-2.24909,0.696137
 C,0,-0.045568,-2.24909,-0.696137
 C,0,0.004095,-1.048325,1.40052
 C,0,0.004095,-1.048325,-1.40052
 C,0,0.049674,0.148504,0.698241
 C,0,0.049674,0.148504,-0.698241
 C,0,0.125739,1.561338,1.227438
 C,0,0.125739,1.561338,-1.227438
 C,0,-0.258685,2.418849,0.
 H,0,-0.089794,-3.187131,1.233424
 H,0,-0.089794,-3.187131,-1.233424
 H,0,0.001095,-1.053757,2.483428
 H,0,0.001095,-1.053757,-2.483428
 H,0,-0.526446,1.733848,2.084324
 H,0,1.145985,1.78577,1.556006
 H,0,1.145985,1.78577,-1.556006
 H,0,-0.526446,1.733848,-2.084324
 H,0,-1.337645,2.583506,0.
 H,0,0.220799,3.396809,0.
 Recover connectivity data from disk.
                    Distance matrix (angstroms):
                    1          2          3          4          5
     1  C    0.000000
     2  C    1.392274   0.000000
     3  C    1.393003   2.416666   0.000000
     4  C    2.416666   1.393003   2.801040   0.000000
     5  C    2.399486   2.775215   1.388407   2.416459   0.000000
     6  C    2.775215   2.399486   2.416459   1.388407   1.396482
     7  C    3.851102   4.271867   2.618224   3.705577   1.510608
     8  C    4.271867   3.851102   3.705577   2.618224   2.389587
     9  C    4.724371   4.724371   3.748574   3.748574   2.395223
    10  H    1.081922   2.145946   2.147377   3.394255   3.381173
    11  H    2.145946   1.081922   3.394255   2.147377   3.857103
    12  H    2.150676   3.397151   1.082926   3.883953   2.152832
    13  H    3.397151   2.150676   3.883953   1.082926   3.401589
    14  H    4.245245   4.881189   2.913683   4.490668   2.183221
    15  H    4.294097   4.772006   3.059442   4.251712   2.149023
    16  H    4.772006   4.294097   4.251712   3.059442   2.994022
    17  H    4.881189   4.245245   4.490668   2.913683   3.253905
    18  H    5.050550   5.050550   4.117271   4.117271   2.888153
    19  H    5.694887   5.694887   4.665580   4.665580   3.326907
                    6          7          8          9         10
     6  C    0.000000
     7  C    2.389587   0.000000
     8  C    1.510608   2.454876   0.000000
     9  C    2.395223   1.545869   1.545869   0.000000
    10  H    3.857103   4.753362   5.352593   5.742549   0.000000
    11  H    3.381173   5.352593   4.753362   5.742549   2.466848
    12  H    3.401589   2.903751   4.541452   4.277136   2.474279
    13  H    2.152832   4.541452   2.903751   4.277136   4.286553
    14  H    3.253905   1.090577   3.379774   2.210278   5.013056
    15  H    2.994022   1.095093   2.973017   2.189758   5.134292
    16  H    2.149023   2.973017   1.095093   2.189758   5.834194
    17  H    2.183221   3.379774   1.090577   2.210278   5.950979
    18  H    2.888153   2.166316   2.166316   1.091452   6.031477
    19  H    3.326907   2.210112   2.210112   1.089179   6.705674
                   11         12         13         14         15
    11  H    0.000000
    12  H    4.286553   0.000000
    13  H    2.474279   4.966856   0.000000
    14  H    5.950979   2.865017   5.377118   0.000000
    15  H    5.834194   3.199031   5.068601   1.754663   0.000000
    16  H    5.134292   5.068601   3.199031   4.006460   3.112012
    17  H    5.013056   5.377118   2.865017   4.168648   4.006460
    18  H    6.031477   4.603186   4.603186   2.392565   3.037426
    19  H    6.705674   5.101296   5.101296   2.769155   2.423339
                   16         17         18         19
    16  H    0.000000
    17  H    1.754663   0.000000
    18  H    3.037426   2.392565   0.000000
    19  H    2.423339   2.769155   1.757899   0.000000
 Framework group  CS[SG(CH2),X(C8H8)]
 Deg. of freedom    27
                         Standard orientation:                         
 ---------------------------------------------------------------------
 Center     Atomic      Atomic             Coordinates (Angstroms)
 Number     Number       Type             X           Y           Z
 ---------------------------------------------------------------------
      1          6           0       -0.045568   -2.249090    0.696137
      2          6           0       -0.045568   -2.249090   -0.696137
      3          6           0        0.004095   -1.048325    1.400520
      4          6           0        0.004095   -1.048325   -1.400520
      5          6           0        0.049674    0.148504    0.698241
      6          6           0        0.049674    0.148504   -0.698241
      7          6           0        0.125739    1.561338    1.227438
      8          6           0        0.125739    1.561338   -1.227438
      9          6           0       -0.258685    2.418849    0.000000
     10          1           0       -0.089794   -3.187131    1.233424
     11          1           0       -0.089794   -3.187131   -1.233424
     12          1           0        0.001095   -1.053757    2.483428
     13          1           0        0.001095   -1.053757   -2.483428
     14          1           0       -0.526446    1.733848    2.084324
     15          1           0        1.145985    1.785770    1.556006
     16          1           0        1.145985    1.785770   -1.556006
     17          1           0       -0.526446    1.733848   -2.084324
     18          1           0       -1.337645    2.583506    0.000000
     19          1           0        0.220799    3.396809    0.000000
 ---------------------------------------------------------------------
 Rotational constants (GHZ):           3.5573516           1.5006501           1.0842555
 ======================================================================================================
                                       Pseudopotential Parameters
 ======================================================================================================
  Center     Atomic      Valence      Angular      Power
  Number     Number     Electrons     Momentum     of R      Exponent        Coefficient   SO-Coeffient
 ======================================================================================================
    1          6            6
                                      G and up 
                                                     0        0.0000010       -0.00011185    0.00000000
                                                     2        0.1200000       -0.02301220    0.00000000
                                                     2        0.1400000        0.13317600    0.00000000
                                                     2        0.1600000       -0.19690668    0.00000000
                                                     2        0.2200000        0.23163694    0.00000000
                                                     2        0.3000000       -0.36920489    0.00000000
                                                     2        0.4000000        0.36389709    0.00000000
                                                     2        0.7000000       -0.38862160    0.00000000
                                                     2        1.3000000        0.80803421    0.00000000
                                      S - G
                                                     0        0.0000010        0.00312304    0.00000000
                                                     2        0.1200000       -0.00632892    0.00000000
                                                     2        0.2200000       -0.03780897    0.00000000
                                                     2        0.4000000        0.26269560    0.00000000
                                                     2        0.9000000       -0.28209514    0.00000000
                                                     2        1.5000000       -0.72686737    0.00000000
                                      P - G
                                                     0        0.0000010       -0.01465594    0.00000000
                                                     2        0.1200000        0.07908409    0.00000000
                                                     2        0.1800000       -0.30615861    0.00000000
                                                     2        0.2600000        0.41506950    0.00000000
                                                     2        0.5000000       -0.36252345    0.00000000
                                                     2        0.9000000        0.15124193    0.00000000
                                                     2        3.0000000       -0.80425677    0.00000000
                                      D - G
                                                     0        0.0000010        0.01149631    0.00000000
                                                     2        0.1200000       -0.04713561    0.00000000
                                                     2        0.1600000        0.10865096    0.00000000
                                                     2        0.2800000       -0.15816701    0.00000000
                                                     2        0.7000000        0.65478804    0.00000000
                                                     2        1.3000000       -1.73816624    0.00000000
                                      F - G
                                                     0        0.0000010        0.00481868    0.00000000
                                                     2        0.1200000       -0.04746842    0.00000000
                                                     2        0.1600000        0.09327889    0.00000000
                                                     2        0.4000000       -0.19693326    0.00000000
                                                     2        0.9000000        0.34938253    0.00000000
    2          6            6
                                      G and up 
                                                     0        0.0000010       -0.00011185    0.00000000
                                                     2        0.1200000       -0.02301220    0.00000000
                                                     2        0.1400000        0.13317600    0.00000000
                                                     2        0.1600000       -0.19690668    0.00000000
                                                     2        0.2200000        0.23163694    0.00000000
                                                     2        0.3000000       -0.36920489    0.00000000
                                                     2        0.4000000        0.36389709    0.00000000
                                                     2        0.7000000       -0.38862160    0.00000000
                                                     2        1.3000000        0.80803421    0.00000000
                                      S - G
                                                     0        0.0000010        0.00312304    0.00000000
                                                     2        0.1200000       -0.00632892    0.00000000
                                                     2        0.2200000       -0.03780897    0.00000000
                                                     2        0.4000000        0.26269560    0.00000000
                                                     2        0.9000000       -0.28209514    0.00000000
                                                     2        1.5000000       -0.72686737    0.00000000
                                      P - G
                                                     0        0.0000010       -0.01465594    0.00000000
                                                     2        0.1200000        0.07908409    0.00000000
                                                     2        0.1800000       -0.30615861    0.00000000
                                                     2        0.2600000        0.41506950    0.00000000
                                                     2        0.5000000       -0.36252345    0.00000000
                                                     2        0.9000000        0.15124193    0.00000000
                                                     2        3.0000000       -0.80425677    0.00000000
                                      D - G
                                                     0        0.0000010        0.01149631    0.00000000
                                                     2        0.1200000       -0.04713561    0.00000000
                                                     2        0.1600000        0.10865096    0.00000000
                                                     2        0.2800000       -0.15816701    0.00000000
                                                     2        0.7000000        0.65478804    0.00000000
                                                     2        1.3000000       -1.73816624    0.00000000
                                      F - G
                                                     0        0.0000010        0.00481868    0.00000000
                                                     2        0.1200000       -0.04746842    0.00000000
                                                     2        0.1600000        0.09327889    0.00000000
                                                     2        0.4000000       -0.19693326    0.00000000
                                                     2        0.9000000        0.34938253    0.00000000
    3          6            6
                                      G and up 
                                                     0        0.0000010       -0.00011185    0.00000000
                                                     2        0.1200000       -0.02301220    0.00000000
                                                     2        0.1400000        0.13317600    0.00000000
                                                     2        0.1600000       -0.19690668    0.00000000
                                                     2        0.2200000        0.23163694    0.00000000
                                                     2        0.3000000       -0.36920489    0.00000000
                                                     2        0.4000000        0.36389709    0.00000000
                                                     2        0.7000000       -0.38862160    0.00000000
                                                     2        1.3000000        0.80803421    0.00000000
                                      S - G
                                                     0        0.0000010        0.00312304    0.00000000
                                                     2        0.1200000       -0.00632892    0.00000000
                                                     2        0.2200000       -0.03780897    0.00000000
                                                     2        0.4000000        0.26269560    0.00000000
                                                     2        0.9000000       -0.28209514    0.00000000
                                                     2        1.5000000       -0.72686737    0.00000000
                                      P - G
                                                     0        0.0000010       -0.01465594    0.00000000
                                                     2        0.1200000        0.07908409    0.00000000
                                                     2        0.1800000       -0.30615861    0.00000000
                                                     2        0.2600000        0.41506950    0.00000000
                                                     2        0.5000000       -0.36252345    0.00000000
                                                     2        0.9000000        0.15124193    0.00000000
                                                     2        3.0000000       -0.80425677    0.00000000
                                      D - G
                                                     0        0.0000010        0.01149631    0.00000000
                                                     2        0.1200000       -0.04713561    0.00000000
                                                     2        0.1600000        0.10865096    0.00000000
                                                     2        0.2800000       -0.15816701    0.00000000
                                                     2        0.7000000        0.65478804    0.00000000
                                                     2        1.3000000       -1.73816624    0.00000000
                                      F - G
                                                     0        0.0000010        0.00481868    0.00000000
                                                     2        0.1200000       -0.04746842    0.00000000
                                                     2        0.1600000        0.09327889    0.00000000
                                                     2        0.4000000       -0.19693326    0.00000000
                                                     2        0.9000000        0.34938253    0.00000000
    4          6            6
                                      G and up 
                                                     0        0.0000010       -0.00011185    0.00000000
                                                     2        0.1200000       -0.02301220    0.00000000
                                                     2        0.1400000        0.13317600    0.00000000
                                                     2        0.1600000       -0.19690668    0.00000000
                                                     2        0.2200000        0.23163694    0.00000000
                                                     2        0.3000000       -0.36920489    0.00000000
                                                     2        0.4000000        0.36389709    0.00000000
                                                     2        0.7000000       -0.38862160    0.00000000
                                                     2        1.3000000        0.80803421    0.00000000
                                      S - G
                                                     0        0.0000010        0.00312304    0.00000000
                                                     2        0.1200000       -0.00632892    0.00000000
                                                     2        0.2200000       -0.03780897    0.00000000
                                                     2        0.4000000        0.26269560    0.00000000
                                                     2        0.9000000       -0.28209514    0.00000000
                                                     2        1.5000000       -0.72686737    0.00000000
                                      P - G
                                                     0        0.0000010       -0.01465594    0.00000000
                                                     2        0.1200000        0.07908409    0.00000000
                                                     2        0.1800000       -0.30615861    0.00000000
                                                     2        0.2600000        0.41506950    0.00000000
                                                     2        0.5000000       -0.36252345    0.00000000
                                                     2        0.9000000        0.15124193    0.00000000
                                                     2        3.0000000       -0.80425677    0.00000000
                                      D - G
                                                     0        0.0000010        0.01149631    0.00000000
                                                     2        0.1200000       -0.04713561    0.00000000
                                                     2        0.1600000        0.10865096    0.00000000
                                                     2        0.2800000       -0.15816701    0.00000000
                                                     2        0.7000000        0.65478804    0.00000000
                                                     2        1.3000000       -1.73816624    0.00000000
                                      F - G
                                                     0        0.0000010        0.00481868    0.00000000
                                                     2        0.1200000       -0.04746842    0.00000000
                                                     2        0.1600000        0.09327889    0.00000000
                                                     2        0.4000000       -0.19693326    0.00000000
                                                     2        0.9000000        0.34938253    0.00000000
    5          6            6
                                      G and up 
                                                     0        0.0000010       -0.00011185    0.00000000
                                                     2        0.1200000       -0.02301220    0.00000000
                                                     2        0.1400000        0.13317600    0.00000000
                                                     2        0.1600000       -0.19690668    0.00000000
                                                     2        0.2200000        0.23163694    0.00000000
                                                     2        0.3000000       -0.36920489    0.00000000
                                                     2        0.4000000        0.36389709    0.00000000
                                                     2        0.7000000       -0.38862160    0.00000000
                                                     2        1.3000000        0.80803421    0.00000000
                                      S - G
                                                     0        0.0000010        0.00312304    0.00000000
                                                     2        0.1200000       -0.00632892    0.00000000
                                                     2        0.2200000       -0.03780897    0.00000000
                                                     2        0.4000000        0.26269560    0.00000000
                                                     2        0.9000000       -0.28209514    0.00000000
                                                     2        1.5000000       -0.72686737    0.00000000
                                      P - G
                                                     0        0.0000010       -0.01465594    0.00000000
                                                     2        0.1200000        0.07908409    0.00000000
                                                     2        0.1800000       -0.30615861    0.00000000
                                                     2        0.2600000        0.41506950    0.00000000
                                                     2        0.5000000       -0.36252345    0.00000000
                                                     2        0.9000000        0.15124193    0.00000000
                                                     2        3.0000000       -0.80425677    0.00000000
                                      D - G
                                                     0        0.0000010        0.01149631    0.00000000
                                                     2        0.1200000       -0.04713561    0.00000000
                                                     2        0.1600000        0.10865096    0.00000000
                                                     2        0.2800000       -0.15816701    0.00000000
                                                     2        0.7000000        0.65478804    0.00000000
                                                     2        1.3000000       -1.73816624    0.00000000
                                      F - G
                                                     0        0.0000010        0.00481868    0.00000000
                                                     2        0.1200000       -0.04746842    0.00000000
                                                     2        0.1600000        0.09327889    0.00000000
                                                     2        0.4000000       -0.19693326    0.00000000
                                                     2        0.9000000        0.34938253    0.00000000
    6          6            6
                                      G and up 
                                                     0        0.0000010       -0.00011185    0.00000000
                                                     2        0.1200000       -0.02301220    0.00000000
                                                     2        0.1400000        0.13317600    0.00000000
                                                     2        0.1600000       -0.19690668    0.00000000
                                                     2        0.2200000        0.23163694    0.00000000
                                                     2        0.3000000       -0.36920489    0.00000000
                                                     2        0.4000000        0.36389709    0.00000000
                                                     2        0.7000000       -0.38862160    0.00000000
                                                     2        1.3000000        0.80803421    0.00000000
                                      S - G
                                                     0        0.0000010        0.00312304    0.00000000
                                                     2        0.1200000       -0.00632892    0.00000000
                                                     2        0.2200000       -0.03780897    0.00000000
                                                     2        0.4000000        0.26269560    0.00000000
                                                     2        0.9000000       -0.28209514    0.00000000
                                                     2        1.5000000       -0.72686737    0.00000000
                                      P - G
                                                     0        0.0000010       -0.01465594    0.00000000
                                                     2        0.1200000        0.07908409    0.00000000
                                                     2        0.1800000       -0.30615861    0.00000000
                                                     2        0.2600000        0.41506950    0.00000000
                                                     2        0.5000000       -0.36252345    0.00000000
                                                     2        0.9000000        0.15124193    0.00000000
                                                     2        3.0000000       -0.80425677    0.00000000
                                      D - G
                                                     0        0.0000010        0.01149631    0.00000000
                                                     2        0.1200000       -0.04713561    0.00000000
                                                     2        0.1600000        0.10865096    0.00000000
                                                     2        0.2800000       -0.15816701    0.00000000
                                                     2        0.7000000        0.65478804    0.00000000
                                                     2        1.3000000       -1.73816624    0.00000000
                                      F - G
                                                     0        0.0000010        0.00481868    0.00000000
                                                     2        0.1200000       -0.04746842    0.00000000
                                                     2        0.1600000        0.09327889    0.00000000
                                                     2        0.4000000       -0.19693326    0.00000000
                                                     2        0.9000000        0.34938253    0.00000000
    7          6            6
                                      G and up 
                                                     0        0.0000010       -0.00011185    0.00000000
                                                     2        0.1200000       -0.02301220    0.00000000
                                                     2        0.1400000        0.13317600    0.00000000
                                                     2        0.1600000       -0.19690668    0.00000000
                                                     2        0.2200000        0.23163694    0.00000000
                                                     2        0.3000000       -0.36920489    0.00000000
                                                     2        0.4000000        0.36389709    0.00000000
                                                     2        0.7000000       -0.38862160    0.00000000
                                                     2        1.3000000        0.80803421    0.00000000
                                      S - G
                                                     0        0.0000010        0.00312304    0.00000000
                                                     2        0.1200000       -0.00632892    0.00000000
                                                     2        0.2200000       -0.03780897    0.00000000
                                                     2        0.4000000        0.26269560    0.00000000
                                                     2        0.9000000       -0.28209514    0.00000000
                                                     2        1.5000000       -0.72686737    0.00000000
                                      P - G
                                                     0        0.0000010       -0.01465594    0.00000000
                                                     2        0.1200000        0.07908409    0.00000000
                                                     2        0.1800000       -0.30615861    0.00000000
                                                     2        0.2600000        0.41506950    0.00000000
                                                     2        0.5000000       -0.36252345    0.00000000
                                                     2        0.9000000        0.15124193    0.00000000
                                                     2        3.0000000       -0.80425677    0.00000000
                                      D - G
                                                     0        0.0000010        0.01149631    0.00000000
                                                     2        0.1200000       -0.04713561    0.00000000
                                                     2        0.1600000        0.10865096    0.00000000
                                                     2        0.2800000       -0.15816701    0.00000000
                                                     2        0.7000000        0.65478804    0.00000000
                                                     2        1.3000000       -1.73816624    0.00000000
                                      F - G
                                                     0        0.0000010        0.00481868    0.00000000
                                                     2        0.1200000       -0.04746842    0.00000000
                                                     2        0.1600000        0.09327889    0.00000000
                                                     2        0.4000000       -0.19693326    0.00000000
                                                     2        0.9000000        0.34938253    0.00000000
    8          6            6
                                      G and up 
                                                     0        0.0000010       -0.00011185    0.00000000
                                                     2        0.1200000       -0.02301220    0.00000000
                                                     2        0.1400000        0.13317600    0.00000000
                                                     2        0.1600000       -0.19690668    0.00000000
                                                     2        0.2200000        0.23163694    0.00000000
                                                     2        0.3000000       -0.36920489    0.00000000
                                                     2        0.4000000        0.36389709    0.00000000
                                                     2        0.7000000       -0.38862160    0.00000000
                                                     2        1.3000000        0.80803421    0.00000000
                                      S - G
                                                     0        0.0000010        0.00312304    0.00000000
                                                     2        0.1200000       -0.00632892    0.00000000
                                                     2        0.2200000       -0.03780897    0.00000000
                                                     2        0.4000000        0.26269560    0.00000000
                                                     2        0.9000000       -0.28209514    0.00000000
                                                     2        1.5000000       -0.72686737    0.00000000
                                      P - G
                                                     0        0.0000010       -0.01465594    0.00000000
                                                     2        0.1200000        0.07908409    0.00000000
                                                     2        0.1800000       -0.30615861    0.00000000
                                                     2        0.2600000        0.41506950    0.00000000
                                                     2        0.5000000       -0.36252345    0.00000000
                                                     2        0.9000000        0.15124193    0.00000000
                                                     2        3.0000000       -0.80425677    0.00000000
                                      D - G
                                                     0        0.0000010        0.01149631    0.00000000
                                                     2        0.1200000       -0.04713561    0.00000000
                                                     2        0.1600000        0.10865096    0.00000000
                                                     2        0.2800000       -0.15816701    0.00000000
                                                     2        0.7000000        0.65478804    0.00000000
                                                     2        1.3000000       -1.73816624    0.00000000
                                      F - G
                                                     0        0.0000010        0.00481868    0.00000000
                                                     2        0.1200000       -0.04746842    0.00000000
                                                     2        0.1600000        0.09327889    0.00000000
                                                     2        0.4000000       -0.19693326    0.00000000
                                                     2        0.9000000        0.34938253    0.00000000
    9          6            6
                                      G and up 
                                                     0        0.0000010       -0.00011185    0.00000000
                                                     2        0.1200000       -0.02301220    0.00000000
                                                     2        0.1400000        0.13317600    0.00000000
                                                     2        0.1600000       -0.19690668    0.00000000
                                                     2        0.2200000        0.23163694    0.00000000
                                                     2        0.3000000       -0.36920489    0.00000000
                                                     2        0.4000000        0.36389709    0.00000000
                                                     2        0.7000000       -0.38862160    0.00000000
                                                     2        1.3000000        0.80803421    0.00000000
                                      S - G
                                                     0        0.0000010        0.00312304    0.00000000
                                                     2        0.1200000       -0.00632892    0.00000000
                                                     2        0.2200000       -0.03780897    0.00000000
                                                     2        0.4000000        0.26269560    0.00000000
                                                     2        0.9000000       -0.28209514    0.00000000
                                                     2        1.5000000       -0.72686737    0.00000000
                                      P - G
                                                     0        0.0000010       -0.01465594    0.00000000
                                                     2        0.1200000        0.07908409    0.00000000
                                                     2        0.1800000       -0.30615861    0.00000000
                                                     2        0.2600000        0.41506950    0.00000000
                                                     2        0.5000000       -0.36252345    0.00000000
                                                     2        0.9000000        0.15124193    0.00000000
                                                     2        3.0000000       -0.80425677    0.00000000
                                      D - G
                                                     0        0.0000010        0.01149631    0.00000000
                                                     2        0.1200000       -0.04713561    0.00000000
                                                     2        0.1600000        0.10865096    0.00000000
                                                     2        0.2800000       -0.15816701    0.00000000
                                                     2        0.7000000        0.65478804    0.00000000
                                                     2        1.3000000       -1.73816624    0.00000000
                                      F - G
                                                     0        0.0000010        0.00481868    0.00000000
                                                     2        0.1200000       -0.04746842    0.00000000
                                                     2        0.1600000        0.09327889    0.00000000
                                                     2        0.4000000       -0.19693326    0.00000000
                                                     2        0.9000000        0.34938253    0.00000000
   10          1            1
                                      F and up 
                                                     0        0.0000010       -0.00000699    0.00000000
                                                     2        0.1200000        0.00123686    0.00000000
                                                     2        0.1800000       -0.00752022    0.00000000
                                                     2        0.2600000        0.02503380    0.00000000
                                                     2        0.4000000       -0.08702670    0.00000000
                                                     2        0.6000000        0.30134159    0.00000000
                                                     2        0.8000000       -0.50204959    0.00000000
                                                     2        1.2000000        0.52208372    0.00000000
                                      S - F
                                                     0        0.0000010       -0.01618346    0.00000000
                                                     2        0.1200000       -0.07880581    0.00000000
                                                     2        0.1600000        0.32040539    0.00000000
                                                     2        0.2400000       -0.47500956    0.00000000
                                                     2        0.5000000        0.54013668    0.00000000
                                                     2        1.5000000       -1.40434292    0.00000000
                                                     2        3.0000000        1.46283806    0.00000000
                                      P - F
                                                     0        0.0000010        0.00612970    0.00000000
                                                     2        0.1200000        0.02254406    0.00000000
                                                     2        0.1800000       -0.13874529    0.00000000
                                                     2        0.3000000        0.38299049    0.00000000
                                                     2        0.5000000       -0.57923512    0.00000000
                                                     2        1.0000000        0.63021625    0.00000000
                                                     2        2.0000000       -0.79201034    0.00000000
                                      D - F
                                                     0        0.0000010       -0.00296226    0.00000000
                                                     2        0.1200000       -0.00547344    0.00000000
                                                     2        0.1400000        0.01837884    0.00000000
                                                     2        0.2400000       -0.05565704    0.00000000
                                                     2        0.4000000        0.15376597    0.00000000
                                                     2        0.8000000       -0.32464795    0.00000000
   11          1            1
                                      F and up 
                                                     0        0.0000010       -0.00000699    0.00000000
                                                     2        0.1200000        0.00123686    0.00000000
                                                     2        0.1800000       -0.00752022    0.00000000
                                                     2        0.2600000        0.02503380    0.00000000
                                                     2        0.4000000       -0.08702670    0.00000000
                                                     2        0.6000000        0.30134159    0.00000000
                                                     2        0.8000000       -0.50204959    0.00000000
                                                     2        1.2000000        0.52208372    0.00000000
                                      S - F
                                                     0        0.0000010       -0.01618346    0.00000000
                                                     2        0.1200000       -0.07880581    0.00000000
                                                     2        0.1600000        0.32040539    0.00000000
                                                     2        0.2400000       -0.47500956    0.00000000
                                                     2        0.5000000        0.54013668    0.00000000
                                                     2        1.5000000       -1.40434292    0.00000000
                                                     2        3.0000000        1.46283806    0.00000000
                                      P - F
                                                     0        0.0000010        0.00612970    0.00000000
                                                     2        0.1200000        0.02254406    0.00000000
                                                     2        0.1800000       -0.13874529    0.00000000
                                                     2        0.3000000        0.38299049    0.00000000
                                                     2        0.5000000       -0.57923512    0.00000000
                                                     2        1.0000000        0.63021625    0.00000000
                                                     2        2.0000000       -0.79201034    0.00000000
                                      D - F
                                                     0        0.0000010       -0.00296226    0.00000000
                                                     2        0.1200000       -0.00547344    0.00000000
                                                     2        0.1400000        0.01837884    0.00000000
                                                     2        0.2400000       -0.05565704    0.00000000
                                                     2        0.4000000        0.15376597    0.00000000
                                                     2        0.8000000       -0.32464795    0.00000000
   12          1            1
                                      F and up 
                                                     0        0.0000010       -0.00000699    0.00000000
                                                     2        0.1200000        0.00123686    0.00000000
                                                     2        0.1800000       -0.00752022    0.00000000
                                                     2        0.2600000        0.02503380    0.00000000
                                                     2        0.4000000       -0.08702670    0.00000000
                                                     2        0.6000000        0.30134159    0.00000000
                                                     2        0.8000000       -0.50204959    0.00000000
                                                     2        1.2000000        0.52208372    0.00000000
                                      S - F
                                                     0        0.0000010       -0.01618346    0.00000000
                                                     2        0.1200000       -0.07880581    0.00000000
                                                     2        0.1600000        0.32040539    0.00000000
                                                     2        0.2400000       -0.47500956    0.00000000
                                                     2        0.5000000        0.54013668    0.00000000
                                                     2        1.5000000       -1.40434292    0.00000000
                                                     2        3.0000000        1.46283806    0.00000000
                                      P - F
                                                     0        0.0000010        0.00612970    0.00000000
                                                     2        0.1200000        0.02254406    0.00000000
                                                     2        0.1800000       -0.13874529    0.00000000
                                                     2        0.3000000        0.38299049    0.00000000
                                                     2        0.5000000       -0.57923512    0.00000000
                                                     2        1.0000000        0.63021625    0.00000000
                                                     2        2.0000000       -0.79201034    0.00000000
                                      D - F
                                                     0        0.0000010       -0.00296226    0.00000000
                                                     2        0.1200000       -0.00547344    0.00000000
                                                     2        0.1400000        0.01837884    0.00000000
                                                     2        0.2400000       -0.05565704    0.00000000
                                                     2        0.4000000        0.15376597    0.00000000
                                                     2        0.8000000       -0.32464795    0.00000000
   13          1            1
                                      F and up 
                                                     0        0.0000010       -0.00000699    0.00000000
                                                     2        0.1200000        0.00123686    0.00000000
                                                     2        0.1800000       -0.00752022    0.00000000
                                                     2        0.2600000        0.02503380    0.00000000
                                                     2        0.4000000       -0.08702670    0.00000000
                                                     2        0.6000000        0.30134159    0.00000000
                                                     2        0.8000000       -0.50204959    0.00000000
                                                     2        1.2000000        0.52208372    0.00000000
                                      S - F
                                                     0        0.0000010       -0.01618346    0.00000000
                                                     2        0.1200000       -0.07880581    0.00000000
                                                     2        0.1600000        0.32040539    0.00000000
                                                     2        0.2400000       -0.47500956    0.00000000
                                                     2        0.5000000        0.54013668    0.00000000
                                                     2        1.5000000       -1.40434292    0.00000000
                                                     2        3.0000000        1.46283806    0.00000000
                                      P - F
                                                     0        0.0000010        0.00612970    0.00000000
                                                     2        0.1200000        0.02254406    0.00000000
                                                     2        0.1800000       -0.13874529    0.00000000
                                                     2        0.3000000        0.38299049    0.00000000
                                                     2        0.5000000       -0.57923512    0.00000000
                                                     2        1.0000000        0.63021625    0.00000000
                                                     2        2.0000000       -0.79201034    0.00000000
                                      D - F
                                                     0        0.0000010       -0.00296226    0.00000000
                                                     2        0.1200000       -0.00547344    0.00000000
                                                     2        0.1400000        0.01837884    0.00000000
                                                     2        0.2400000       -0.05565704    0.00000000
                                                     2        0.4000000        0.15376597    0.00000000
                                                     2        0.8000000       -0.32464795    0.00000000
   14          1            1
                                      F and up 
                                                     0        0.0000010       -0.00000699    0.00000000
[...]
                                                     2        0.1200000        0.02254406    0.00000000
                                                     2        0.1800000       -0.13874529    0.00000000
                                                     2        0.3000000        0.38299049    0.00000000
                                                     2        0.5000000       -0.57923512    0.00000000
                                                     2        1.0000000        0.63021625    0.00000000
                                                     2        2.0000000       -0.79201034    0.00000000
                                      D - F
                                                     0        0.0000010       -0.00296226    0.00000000
                                                     2        0.1200000       -0.00547344    0.00000000
                                                     2        0.1400000        0.01837884    0.00000000
                                                     2        0.2400000       -0.05565704    0.00000000
                                                     2        0.4000000        0.15376597    0.00000000
                                                     2        0.8000000       -0.32464795    0.00000000
   18          1            1
                                      F and up 
                                                     0        0.0000010       -0.00000699    0.00000000
                                                     2        0.1200000        0.00123686    0.00000000
                                                     2        0.1800000       -0.00752022    0.00000000
                                                     2        0.2600000        0.02503380    0.00000000
                                                     2        0.4000000       -0.08702670    0.00000000
                                                     2        0.6000000        0.30134159    0.00000000
                                                     2        0.8000000       -0.50204959    0.00000000
                                                     2        1.2000000        0.52208372    0.00000000
                                      S - F
                                                     0        0.0000010       -0.01618346    0.00000000
                                                     2        0.1200000       -0.07880581    0.00000000
                                                     2        0.1600000        0.32040539    0.00000000
                                                     2        0.2400000       -0.47500956    0.00000000
                                                     2        0.5000000        0.54013668    0.00000000
                                                     2        1.5000000       -1.40434292    0.00000000
                                                     2        3.0000000        1.46283806    0.00000000
                                      P - F
                                                     0        0.0000010        0.00612970    0.00000000
                                                     2        0.1200000        0.02254406    0.00000000
                                                     2        0.1800000       -0.13874529    0.00000000
                                                     2        0.3000000        0.38299049    0.00000000
                                                     2        0.5000000       -0.57923512    0.00000000
                                                     2        1.0000000        0.63021625    0.00000000
                                                     2        2.0000000       -0.79201034    0.00000000
                                      D - F
                                                     0        0.0000010       -0.00296226    0.00000000
                                                     2        0.1200000       -0.00547344    0.00000000
                                                     2        0.1400000        0.01837884    0.00000000
                                                     2        0.2400000       -0.05565704    0.00000000
                                                     2        0.4000000        0.15376597    0.00000000
                                                     2        0.8000000       -0.32464795    0.00000000
   19          1            1
                                      F and up 
                                                     0        0.0000010       -0.00000699    0.00000000
                                                     2        0.1200000        0.00123686    0.00000000
                                                     2        0.1800000       -0.00752022    0.00000000
                                                     2        0.2600000        0.02503380    0.00000000
                                                     2        0.4000000       -0.08702670    0.00000000
                                                     2        0.6000000        0.30134159    0.00000000
                                                     2        0.8000000       -0.50204959    0.00000000
                                                     2        1.2000000        0.52208372    0.00000000
                                      S - F
                                                     0        0.0000010       -0.01618346    0.00000000
                                                     2        0.1200000       -0.07880581    0.00000000
                                                     2        0.1600000        0.32040539    0.00000000
                                                     2        0.2400000       -0.47500956    0.00000000
                                                     2        0.5000000        0.54013668    0.00000000
                                                     2        1.5000000       -1.40434292    0.00000000
                                                     2        3.0000000        1.46283806    0.00000000
                                      P - F
                                                     0        0.0000010        0.00612970    0.00000000
                                                     2        0.1200000        0.02254406    0.00000000
                                                     2        0.1800000       -0.13874529    0.00000000
                                                     2        0.3000000        0.38299049    0.00000000
                                                     2        0.5000000       -0.57923512    0.00000000
                                                     2        1.0000000        0.63021625    0.00000000
                                                     2        2.0000000       -0.79201034    0.00000000
                                      D - F
                                                     0        0.0000010       -0.00296226    0.00000000
                                                     2        0.1200000       -0.00547344    0.00000000
                                                     2        0.1400000        0.01837884    0.00000000
                                                     2        0.2400000       -0.05565704    0.00000000
                                                     2        0.4000000        0.15376597    0.00000000
                                                     2        0.8000000       -0.32464795    0.00000000
 ======================================================================================================
   297 basis functions,   497 primitive gaussians,   315 cartesian basis functions
    32 alpha electrons       32 beta electrons
       nuclear repulsion energy       416.2816560831 Hartrees.
 NAtoms=   19 NActive=   19 NUniq=   11 SFac= 2.98D+00 NAtFMM=   60 NAOKFM=F Big=F
   2 Symmetry operations used in ECPInt.
 ECPInt:  NShTT=    8646 NPrTT=   38938 LenC2=    8629 LenP2D=   30153.
 LDataN:  DoStor=T MaxTD1= 6 Len=  172
 Initial guess from the checkpoint file:  "indane.chk"
 B after Tr=    -0.000000    0.000000   -0.000000
         Rot=    1.000000   -0.000000   -0.000000   -0.000000 Ang=  -0.00 deg.
 Initial guess orbital symmetries:
       Occupied  (A') (A") (A') (A') (A") (A") (A') (A") (A') (A')
                 (A') (A") (A') (A") (A') (A') (A") (A') (A') (A')
                 (A") (A") (A') (A") (A') (A') (A") (A") (A') (A')
                 (A") (A')
       Virtual   (A') (A') (A") (A') (A") (A') (A") (A') (A") (A')
                 (A') (A') (A") (A') (A") (A") (A') (A') (A') (A")
                 (A') (A") (A") (A') (A') (A') (A") (A") (A") (A')
                 (A') (A") (A') (A") (A') (A") (A') (A") (A') (A')
                 (A") (A") (A') (A') (A") (A') (A") (A') (A') (A")
                 (A') (A") (A") (A') (A") (A') (A") (A') (A") (A')
                 (A") (A') (A") (A') (A') (A") (A') (A") (A') (A")
                 (A') (A') (A") (A') (A') (A") (A") (A') (A') (A")
                 (A') (A") (A') (A') (A") (A') (A") (A') (A') (A")
                 (A") (A') (A') (A') (A") (A") (A") (A') (A') (A")
                 (A') (A") (A') (A") (A") (A') (A") (A') (A') (A')
                 (A") (A") (A") (A') (A') (A") (A') (A") (A') (A')
                 (A") (A') (A") (A') (A") (A') (A") (A") (A') (A')
                 (A") (A") (A') (A') (A") (A") (A') (A") (A") (A')
                 (A') (A') (A') (A") (A") (A") (A') (A") (A') (A")
                 (A') (A") (A') (A') (A") (A") (A') (A") (A") (A')
                 (A') (A") (A') (A") (A") (A') (A') (A') (A") (A')
                 (A') (A") (A') (A") (A') (A') (A") (A") (A') (A')
                 (A") (A') (A") (A') (A') (A') (A") (A') (A") (A')
                 (A") (A') (A") (A') (A") (A") (A') (A') (A") (A')
                 (A") (A') (A") (A') (A") (A') (A") (A') (A') (A")
                 (A") (A') (A') (A") (A") (A') (A") (A") (A') (A')
                 (A") (A') (A') (A") (A") (A') (A') (A") (A") (A')
                 (A") (A') (A") (A') (A") (A") (A") (A') (A") (A')
                 (A') (A') (A") (A') (A") (A') (A") (A") (A') (A")
                 (A') (A") (A') (A") (A') (A') (A") (A') (A") (A")
                 (A') (A') (A") (A") (A")
 >>>>>>>>>> Convergence criterion not met.
 SCF Done:  E(RHF) =  -346.784512994     A.U. after    2 cycles
            NFock=  1  Conv=0.18D-01     -V/T= 2.0015

 **********************************************************************

            Population analysis using the SCF Density.

 **********************************************************************

 Orbital symmetries:
       Occupied  (A') (A") (A') (A") (A') (A") (A') (A") (A') (A')
                 (A') (A") (A') (A") (A') (A') (A") (A') (A') (A')
                 (A") (A") (A') (A") (A') (A') (A") (A") (A') (A')
                 (A") (A')
       Virtual   (A') (A') (A") (A') (A") (A') (A") (A') (A") (A')
                 (A') (A') (A") (A') (A") (A") (A') (A') (A') (A")
                 (A') (A") (A") (A') (A') (A') (A") (A") (A") (A')
                 (A') (A") (A') (A") (A') (A") (A') (A') (A") (A')
                 (A") (A") (A') (A') (A") (A') (A") (A') (A') (A")
                 (A') (A") (A") (A') (A") (A') (A") (A') (A") (A')
                 (A") (A') (A") (A') (A') (A") (A') (A") (A') (A")
                 (A') (A') (A") (A') (A') (A") (A") (A') (A') (A")
                 (A') (A") (A') (A') (A") (A') (A") (A') (A') (A")
                 (A") (A') (A') (A') (A") (A") (A") (A') (A') (A")
                 (A') (A") (A') (A") (A") (A') (A") (A') (A') (A')
                 (A") (A") (A") (A') (A') (A") (A') (A") (A') (A')
                 (A") (A') (A") (A') (A") (A") (A') (A") (A') (A')
                 (A") (A") (A') (A') (A") (A") (A') (A") (A") (A')
                 (A') (A') (A') (A") (A") (A") (A') (A') (A") (A")
                 (A') (A") (A') (A') (A") (A") (A') (A") (A") (A')
                 (A') (A") (A') (A") (A") (A') (A') (A') (A") (A')
                 (A') (A") (A') (A") (A') (A") (A') (A") (A') (A')
                 (A") (A') (A") (A') (A') (A') (A") (A') (A") (A')
                 (A") (A') (A") (A') (A") (A") (A') (A') (A") (A')
                 (A") (A') (A") (A') (A") (A') (A") (A') (A') (A")
                 (A") (A') (A') (A") (A") (A") (A') (A") (A') (A')
                 (A") (A') (A') (A") (A') (A") (A') (A") (A") (A')
                 (A") (A') (A") (A') (A") (A") (A") (A') (A") (A')
                 (A') (A') (A") (A') (A") (A') (A") (A") (A') (A")
                 (A') (A") (A') (A") (A') (A') (A") (A") (A') (A")
                 (A') (A') (A") (A") (A")
 The electronic state is 1-A'.
 Alpha  occ. eigenvalues --  -11.23763 -11.23721 -11.23683 -11.23587 -11.23585
 Alpha  occ. eigenvalues --  -11.23520 -11.23442 -11.23433 -11.23234  -1.15726
 Alpha  occ. eigenvalues --   -1.08203  -1.01703  -0.96843  -0.93685  -0.83164
 Alpha  occ. eigenvalues --   -0.79331  -0.78377  -0.68758  -0.65181  -0.63369
 Alpha  occ. eigenvalues --   -0.62157  -0.57704  -0.57122  -0.56047  -0.51488
 Alpha  occ. eigenvalues --   -0.50146  -0.49494  -0.47784  -0.47147  -0.46488
 Alpha  occ. eigenvalues --   -0.33223  -0.31809
 Alpha virt. eigenvalues --    0.03597   0.03927   0.04114   0.05005   0.05450
 Alpha virt. eigenvalues --    0.05545   0.06990   0.07123   0.07545   0.08250
 Alpha virt. eigenvalues --    0.10584   0.11798   0.12201   0.12619   0.12657
 Alpha virt. eigenvalues --    0.13656   0.14359   0.14754   0.14990   0.15270
 Alpha virt. eigenvalues --    0.15578   0.15757   0.15885   0.16333   0.17379
 Alpha virt. eigenvalues --    0.18142   0.18700   0.18781   0.19225   0.19299
 Alpha virt. eigenvalues --    0.20309   0.20617   0.20933   0.21438   0.21714
 Alpha virt. eigenvalues --    0.22641   0.23189   0.24907   0.24916   0.25580
 Alpha virt. eigenvalues --    0.26966   0.28332   0.28986   0.30698   0.31440
 Alpha virt. eigenvalues --    0.32121   0.32861   0.33183   0.33779   0.34502
 Alpha virt. eigenvalues --    0.36091   0.36365   0.37124   0.37420   0.37747
 Alpha virt. eigenvalues --    0.39059   0.39299   0.40468   0.41064   0.41206
 Alpha virt. eigenvalues --    0.42540   0.43058   0.43927   0.44617   0.45282
 Alpha virt. eigenvalues --    0.46093   0.46784   0.46818   0.47658   0.48705
 Alpha virt. eigenvalues --    0.49766   0.50153   0.51520   0.52508   0.53524
 Alpha virt. eigenvalues --    0.53799   0.55184   0.55371   0.56341   0.57385
 Alpha virt. eigenvalues --    0.57592   0.58245   0.59173   0.60529   0.60532
 Alpha virt. eigenvalues --    0.60923   0.61171   0.62718   0.63172   0.64875
 Alpha virt. eigenvalues --    0.65664   0.65745   0.66588   0.67470   0.68165
 Alpha virt. eigenvalues --    0.68973   0.69036   0.70273   0.70444   0.70678
 Alpha virt. eigenvalues --    0.71076   0.71250   0.73821   0.74093   0.76088
 Alpha virt. eigenvalues --    0.76257   0.76671   0.77017   0.77749   0.78981
 Alpha virt. eigenvalues --    0.80079   0.81313   0.81985   0.82097   0.82610
 Alpha virt. eigenvalues --    0.84694   0.84936   0.85537   0.86200   0.87559
 Alpha virt. eigenvalues --    0.88386   0.89426   0.89637   0.90679   0.90975
 Alpha virt. eigenvalues --    0.93545   0.93610   0.95487   0.95753   0.98193
 Alpha virt. eigenvalues --    0.98455   0.98931   0.99973   1.01451   1.02216
 Alpha virt. eigenvalues --    1.04460   1.04797   1.06264   1.07758   1.08969
 Alpha virt. eigenvalues --    1.10295   1.13718   1.15369   1.15594   1.16556
 Alpha virt. eigenvalues --    1.18305   1.21424   1.22169   1.22248   1.24057
 Alpha virt. eigenvalues --    1.24901   1.25329   1.25594   1.28157   1.32807
 Alpha virt. eigenvalues --    1.35849   1.36120   1.41173   1.45519   1.48990
 Alpha virt. eigenvalues --    1.50793   1.51682   1.54077   1.54872   1.56428
 Alpha virt. eigenvalues --    1.57678   1.57948   1.59119   1.59297   1.59685
 Alpha virt. eigenvalues --    1.63117   1.63420   1.64339   1.67353   1.70185
 Alpha virt. eigenvalues --    1.71059   1.71111   1.72389   1.74217   1.77554
 Alpha virt. eigenvalues --    1.78399   1.79648   1.80756   1.82278   1.82716
 Alpha virt. eigenvalues --    1.85450   1.85751   1.86124   1.87626   1.92406
 Alpha virt. eigenvalues --    1.93212   1.94336   1.95024   1.95877   1.97501
 Alpha virt. eigenvalues --    1.99591   2.02177   2.02985   2.03316   2.05906
 Alpha virt. eigenvalues --    2.08587   2.09074   2.11239   2.12068   2.13332
 Alpha virt. eigenvalues --    2.14406   2.15255   2.17326   2.21073   2.21608
 Alpha virt. eigenvalues --    2.21794   2.23801   2.25838   2.26066   2.26336
 Alpha virt. eigenvalues --    2.27799   2.28308   2.32196   2.32436   2.36543
 Alpha virt. eigenvalues --    2.38014   2.38834   2.40715   2.40821   2.44658
 Alpha virt. eigenvalues --    2.44755   2.47616   2.48890   2.49302   2.51979
 Alpha virt. eigenvalues --    2.55726   2.56012   2.57567   2.60501   2.62763
 Alpha virt. eigenvalues --    2.66353   2.67611   2.69138   2.71226   2.77471
 Alpha virt. eigenvalues --    2.82127   2.83509   2.84117   2.86294   2.91583
 Alpha virt. eigenvalues --    2.92383   2.93685   2.97178   2.97537   3.06329
 Alpha virt. eigenvalues --    3.07285   3.10386   3.10493   3.14434   3.16678
 Alpha virt. eigenvalues --    3.25271   3.32530   3.33109   3.33459   3.57311
 Alpha virt. eigenvalues --    3.66703   3.78871   3.85595   4.08534   4.89016
          Condensed to atoms (all electrons):
 Mulliken charges:
               1
     1  C    0.286651
     2  C    0.286651
     3  C    0.909217
     4  C    0.909217
     5  C   -0.739111
     6  C   -0.739111
     7  C    0.140600
     8  C    0.140600
     9  C    0.731305
    10  H   -0.470777
    11  H   -0.470777
    12  H   -0.528752
    13  H   -0.528752
    14  H    0.031172
    15  H    0.115041
    16  H    0.115041
    17  H    0.031172
    18  H   -0.115808
    19  H   -0.103578
 Sum of Mulliken charges =  -0.00000
 Mulliken charges with hydrogens summed into heavy atoms:
               1
     1  C   -0.184126
     2  C   -0.184126
     3  C    0.380465
     4  C    0.380465
     5  C   -0.739111
     6  C   -0.739111
     7  C    0.286812
     8  C    0.286812
     9  C    0.511918
 Electronic spatial extent (au):  <R**2>=           1116.4329
 Charge=             -0.0000 electrons
 Dipole moment (field-independent basis, Debye):
    X=              0.0495    Y=              0.7001    Z=             -0.0000  Tot=              0.7018

 Test job not archived.
 1\1\GINC-SE190\SP\RHF\Aug-CC-pVDZ\C9H10\OHZDE\05-Apr-2025\0\\#t hf aug
 -cc-pvdz iop(5/13=1,5/36=2,99/5=2) pseudo=read geom=check guess=(read,
 tcheck) scf=(maxcycle=1)\\title\\0,1\C,0,-0.045568,-2.24909,0.696137\C
 ,0,-0.045568,-2.24909,-0.696137\C,0,0.004095,-1.048325,1.40052\C,0,0.0
 04095,-1.048325,-1.40052\C,0,0.049674,0.148504,0.698241\C,0,0.049674,0
 .148504,-0.698241\C,0,0.125739,1.561338,1.227438\C,0,0.125739,1.561338
 ,-1.227438\C,0,-0.258685,2.418849,0.\H,0,-0.089794,-3.187131,1.233424\
 H,0,-0.089794,-3.187131,-1.233424\H,0,0.001095,-1.053757,2.483428\H,0,
 0.001095,-1.053757,-2.483428\H,0,-0.526446,1.733848,2.084324\H,0,1.145
 985,1.78577,1.556006\H,0,1.145985,1.78577,-1.556006\H,0,-0.526446,1.73
 3848,-2.084324\H,0,-1.337645,2.583506,0.\H,0,0.220799,3.396809,0.\\Ver
 sion=ES64L-G16RevC.01\State=1-A'\HF=-346.784513\RMSD=1.794e-02\Dipole=
 0.019483,0.2754391,0.\Quadrupole=-3.6050789,1.691057,1.9140219,0.33949
 02,0.,0.\PG=CS [SG(C1H2),X(C8H8)]\\@


 WORK FAITHFULLY FOR EIGHT HOURS A DAY AND DON'T WORRY.
 IN TIME YOU MAY BECOME BOSS AND WORK TWELVE HOURS A DAY
 AND HAVE ALL THE WORRY.
 Job cpu time:       0 days  0 hours  1 minutes 12.2 seconds.
 Elapsed time:       0 days  0 hours  0 minutes  6.0 seconds.
 File lengths (MBytes):  RWF=     18 Int=      0 D2E=      0 Chk=     12 Scr=      1
 Normal termination of Gaussian 16 at Sat Apr  5 23:00:04 2025.
