 Entering Gaussian System, Link 0=g16
 Input=N-methylacetamide.gjf
 Output=N-methylacetamide.log
 Initial command:
 /arc/software/Gaussian/g16.c01/l1.exe "/tmp/slurm/4815679/Gau-2660696.inp" -scrdir="/tmp/slurm/4815679/"
 Entering Link 1 = /arc/software/Gaussian/g16.c01/l1.exe PID=   2660712.
  
 Copyright (c) 1988-2019, Gaussian, Inc.  All Rights Reserved.
  
 This is part of the Gaussian(R) 16 program.  It is based on
 the Gaussian(R) 09 system (copyright 2009, Gaussian, Inc.),
 the Gaussian(R) 03 system (copyright 2003, Gaussian, Inc.),
 the Gaussian(R) 98 system (copyright 1998, Gaussian, Inc.),
 the Gaussian(R) 94 system (copyright 1995, Gaussian, Inc.),
 the Gaussian 92(TM) system (copyright 1992, Gaussian, Inc.),
 the Gaussian 90(TM) system (copyright 1990, Gaussian, Inc.),
 the Gaussian 88(TM) system (copyright 1988, Gaussian, Inc.),
 the Gaussian 86(TM) system (copyright 1986, Carnegie Mellon
 University), and the Gaussian 82(TM) system (copyright 1983,
 Carnegie Mellon University). Gaussian is a federally registered
 trademark of Gaussian, Inc.
  
 This software contains proprietary and confidential information,
 including trade secrets, belonging to Gaussian, Inc.
  
 This software is provided under written license and may be
 used, copied, transmitted, or stored only in accord with that
 written license.
  
 The following legend is applicable only to US Government
 contracts under FAR:
  
                    RESTRICTED RIGHTS LEGEND
  
 Use, reproduction and disclosure by the US Government is
 subject to restrictions as set forth in subparagraphs (a)
 and (c) of the Commercial Computer Software - Restricted
 Rights clause in FAR 52.227-19.
  
 Gaussian, Inc.
 340 Quinnipiac St., Bldg. 40, Wallingford CT 06492
  
  
 ---------------------------------------------------------------
 Warning -- This program may not be used in any manner that
 competes with the business of Gaussian, Inc. or will provide
 assistance to any competitor of Gaussian, Inc.  The licensee
 of this program is prohibited from giving any competitor of
 Gaussian, Inc. access to this program.  By using this program,
 the user acknowledges that Gaussian, Inc. is engaged in the
 business of creating and licensing software in the field of
 computational chemistry and represents and warrants to the
 licensee that it is not a competitor of Gaussian, Inc. and that
 it will not use this program in any manner prohibited above.
 ---------------------------------------------------------------
  

 Cite this work as:
 Gaussian 16, Revision C.01,
 M. J. Frisch, G. W. Trucks, H. B. Schlegel, G. E. Scuseria, 
 M. A. Robb, J. R. Cheeseman, G. Scalmani, V. Barone, 
 G. A. Petersson, H. Nakatsuji, X. Li, M. Caricato, A. V. Marenich, 
 J. Bloino, B. G. Janesko, R. Gomperts, B. Mennucci, H. P. Hratchian, 
 J. V. Ortiz, A. F. Izmaylov, J. L. Sonnenberg, D. Williams-Young, 
 F. Ding, F. Lipparini, F. Egidi, J. Goings, B. Peng, A. Petrone, 
 T. Henderson, D. Ranasinghe, V. G. Zakrzewski, J. Gao, N. Rega, 
 G. Zheng, W. Liang, M. Hada, M. Ehara, K. Toyota, R. Fukuda, 
 J. Hasegawa, M. Ishida, T. Nakajima, Y. Honda, O. Kitao, H. Nakai, 
 T. Vreven, K. Throssell, J. A. Montgomery, Jr., J. E. Peralta, 
 F. Ogliaro, M. J. Bearpark, J. J. Heyd, E. N. Brothers, K. N. Kudin, 
 V. N. Staroverov, T. A. Keith, R. Kobayashi, J. Normand, 
 K. Raghavachari, A. P. Rendell, J. C. Burant, S. S. Iyengar, 
 J. Tomasi, M. Cossi, J. M. Millam, M. Klene, C. Adamo, R. Cammi, 
 J. W. Ochterski, R. L. Martin, K. Morokuma, O. Farkas, 
 J. B. Foresman, and D. J. Fox, Gaussian, Inc., Wallingford CT, 2019.
 
 ******************************************
 Gaussian 16:  ES64L-G16RevC.01  3-Jul-2019
                 5-Apr-2025 
 ******************************************
 %nprocs=16
 Will use up to   16 processors via shared memory.
 %mem=30GB
 %chk=N-methylacetamide.chk
 ----------------------------------------------------------------------
 #t hf aug-cc-pvdz symm=none int=(grid=ultrafine) guess=(read,tcheck) s
 table=(opt,rrhf)
 ----------------------------------------------------------------------
 -----
 title
 -----
 Symbolic Z-matrix:
 Charge =  0 Multiplicity = 1
 C                     0.48453   0.16559   0.00002 
 C                     1.81248  -0.56593  -0.00001 
 C                    -1.97512  -0.10192  -0.00002 
 N                    -0.62364  -0.62907   0.00004 
 O                     0.42596   1.38417   0. 
 H                     2.37856  -0.25844  -0.8784 
 H                     2.37884  -0.25798   0.87804 
 H                     1.71686  -1.65129   0.00029 
 H                    -2.52319  -0.42366  -0.8871 
 H                    -1.90674   0.98227  -0.00085 
 H                    -2.5228   -0.42229   0.88781 
 H                    -0.49504  -1.6249    0.00001 
 
                    Distance matrix (angstroms):
                    1          2          3          4          5
     1  C    0.000000
     2  C    1.516111   0.000000
     3  C    2.474148   3.815916   0.000000
     4  N    1.363646   2.436941   1.450648   0.000000
     5  O    1.219984   2.392772   2.823754   2.270417   0.000000
     6  H    2.130442   1.089298   4.444159   3.149957   2.698598
     7  H    2.130433   1.089295   4.444350   3.150155   2.698398
     8  H    2.195383   1.089564   4.003902   2.553990   3.298554
     9  H    3.190695   4.427774   1.091246   2.106531   3.571083
    10  H    2.526881   4.028591   1.086334   2.059795   2.367066
    11  H    3.190268   4.427588   1.091253   2.106587   3.570245
    12  H    2.040934   2.538910   2.123701   1.004096   3.146859
                    6          7          8          9         10
     6  H    0.000000
     7  H    1.756442   0.000000
     8  H    1.774819   1.774822   0.000000
     9  H    4.904536   5.212772   4.502498   0.000000
    10  H    4.546786   4.547180   4.479520   1.772590   0.000000
    11  H    5.212455   4.904402   4.502538   1.774910   1.772571
    12  H    3.300965   3.301301   2.212054   2.518590   2.964828
                   11         12
    11  H    0.000000
    12  H    2.519185   0.000000
 Symmetry turned off by external request.
 Rotational constants (GHZ):          10.0637404           3.8358536           2.8766200
   178 basis functions,   292 primitive gaussians,   188 cartesian basis functions
    20 alpha electrons       20 beta electrons
       nuclear repulsion energy       180.0739727096 Hartrees.
 NAtoms=   12 NActive=   12 NUniq=   12 SFac= 1.00D+00 NAtFMM=   60 NAOKFM=F Big=F
 ExpMin= 2.97D-02 ExpMax= 1.17D+04 ExpMxC= 4.01D+02 IAcc=3 IRadAn=         5 AccDes= 0.00D+00
 Harris functional with IExCor=  205 and IRadAn=       5 diagonalized for initial guess.
 HarFok:  IExCor=  205 AccDes= 0.00D+00 IRadAn=         5 IDoV= 1 UseB2=F ITyADJ=14
 ICtDFT=  3500011 ScaDFX=  1.000000  1.000000  1.000000  1.000000
 FoFCou: FMM=F IPFlag=           0 FMFlag=      100000 FMFlg1=           0
         NFxFlg=           0 DoJE=T BraDBF=F KetDBF=T FulRan=T
         wScrn=  0.000000 ICntrl=       500 IOpCl=  0 I1Cent=   200000004 NGrid=           0
         NMat0=    1 NMatS0=      1 NMatT0=    0 NMatD0=    1 NMtDS0=    0 NMtDT0=    0
 Symmetry not used in FoFCou.
 SCF Done:  E(RHF) =  -247.042321938     A.U. after   13 cycles
            NFock= 13  Conv=0.51D-08     -V/T= 2.0014

 **********************************************************************

            Population analysis using the SCF Density.

 **********************************************************************

 Alpha  occ. eigenvalues --  -20.52105 -15.59342 -11.35600 -11.26490 -11.24292
 Alpha  occ. eigenvalues --   -1.38028  -1.23110  -1.01767  -0.93352  -0.78950
 Alpha  occ. eigenvalues --   -0.69066  -0.65214  -0.63134  -0.58576  -0.58152
 Alpha  occ. eigenvalues --   -0.55376  -0.54446  -0.50465  -0.41934  -0.38992
 Alpha virt. eigenvalues --    0.02912   0.04287   0.05200   0.05289   0.06820
 Alpha virt. eigenvalues --    0.06984   0.07998   0.11070   0.12434   0.13077
 Alpha virt. eigenvalues --    0.13369   0.14872   0.15186   0.16517   0.17012
 Alpha virt. eigenvalues --    0.18204   0.18664   0.19173   0.19556   0.21194
 Alpha virt. eigenvalues --    0.22386   0.23042   0.25966   0.28409   0.28615
 Alpha virt. eigenvalues --    0.30074   0.31182   0.31664   0.33303   0.33825
 Alpha virt. eigenvalues --    0.35469   0.38531   0.40022   0.40724   0.40935
 Alpha virt. eigenvalues --    0.42173   0.43053   0.43151   0.43464   0.44893
 Alpha virt. eigenvalues --    0.46326   0.47681   0.49127   0.51058   0.51539
 Alpha virt. eigenvalues --    0.52695   0.54100   0.55878   0.55889   0.56713
 Alpha virt. eigenvalues --    0.60164   0.60313   0.60626   0.62270   0.62493
 Alpha virt. eigenvalues --    0.63077   0.63750   0.66775   0.68675   0.68951
 Alpha virt. eigenvalues --    0.69163   0.70014   0.71406   0.73029   0.73950
 Alpha virt. eigenvalues --    0.75639   0.77676   0.79096   0.79186   0.82002
 Alpha virt. eigenvalues --    0.82864   0.83170   0.87811   0.90380   0.91921
 Alpha virt. eigenvalues --    0.95247   0.98808   0.99698   1.01663   1.05457
 Alpha virt. eigenvalues --    1.07502   1.11672   1.12264   1.12361   1.14957
 Alpha virt. eigenvalues --    1.17235   1.17789   1.20447   1.23974   1.29930
 Alpha virt. eigenvalues --    1.32133   1.35001   1.36586   1.44741   1.46894
 Alpha virt. eigenvalues --    1.47234   1.50371   1.51956   1.56212   1.67383
 Alpha virt. eigenvalues --    1.67757   1.72346   1.73505   1.74793   1.74997
 Alpha virt. eigenvalues --    1.83706   1.84388   1.88340   1.88682   1.89592
 Alpha virt. eigenvalues --    1.93098   1.93464   1.98309   2.00247   2.08227
 Alpha virt. eigenvalues --    2.11489   2.12873   2.15210   2.16422   2.19289
 Alpha virt. eigenvalues --    2.19876   2.23215   2.24854   2.29634   2.30431
 Alpha virt. eigenvalues --    2.33608   2.37895   2.38041   2.41464   2.43162
 Alpha virt. eigenvalues --    2.47607   2.48553   2.57163   2.60321   2.60656
 Alpha virt. eigenvalues --    2.65116   2.68566   2.76035   2.77467   2.77651
 Alpha virt. eigenvalues --    2.85940   2.89498   2.90717   2.92236   2.98742
 Alpha virt. eigenvalues --    3.01311   3.03387   3.08377   3.12466   3.25906
 Alpha virt. eigenvalues --    3.41830   3.50030   3.67417   3.79617   3.82342
 Alpha virt. eigenvalues --    3.93360   4.03264   4.18655
          Condensed to atoms (all electrons):
 Mulliken charges:
               1
     1  C    0.721183
     2  C    0.388974
     3  C    0.738220
     4  N   -0.470529
     5  O   -0.841762
     6  H    0.037445
     7  H    0.037418
     8  H   -0.137548
     9  H   -0.101786
    10  H   -0.155707
    11  H   -0.101654
    12  H   -0.114254
 Sum of Mulliken charges =  -0.00000
 Mulliken charges with hydrogens summed into heavy atoms:
               1
     1  C    0.721183
     2  C    0.326289
     3  C    0.379072
     4  N   -0.584783
     5  O   -0.841762
 Electronic spatial extent (au):  <R**2>=            460.6996
 Charge=             -0.0000 electrons
 Dipole moment (field-independent basis, Debye):
    X=             -0.6035    Y=             -4.0676    Z=             -0.0002  Tot=              4.1121
 NROrb=    178 NOA=    20 NOB=    20 NVA=   158 NVB=   158

 **** Warning!!: The largest alpha MO coefficient is  0.52143902D+02

    12 initial guesses have been made.
 Iteration     1 Dimension    12 NMult     0 NNew     12
 New state      1 was old state      2
 Iteration     2 Dimension    24 NMult    12 NNew     12
 Iteration     3 Dimension    27 NMult    24 NNew      3
 Iteration     4 Dimension    30 NMult    27 NNew      3
 Iteration     5 Dimension    33 NMult    30 NNew      3
 Iteration     6 Dimension    36 NMult    33 NNew      3
 ***********************************************************************
 Stability analysis using <AA,BB:AA,BB> singles matrix:
 ***********************************************************************
 Ground to excited state transition densities written to RWF  633

 Eigenvectors of the stability matrix:
 
 Excited state symmetry could not be determined.
 Eigenvector   1:      Singlet-?Sym  Eigenvalue= 0.2515555  <S**2>=0.000
      19 -> 31        -0.11803
      19 -> 36         0.31444
      19 -> 38         0.50672
      19 -> 41         0.15994
      19 -> 49         0.15899
      20 -> 21         0.10363
 The wavefunction is stable under the perturbations considered.
 The wavefunction is already stable.

 **********************************************************************

            Population analysis using the SCF Density.

 **********************************************************************

 Alpha  occ. eigenvalues --  -20.52105 -15.59342 -11.35600 -11.26490 -11.24292
 Alpha  occ. eigenvalues --   -1.38028  -1.23110  -1.01767  -0.93352  -0.78950
 Alpha  occ. eigenvalues --   -0.69066  -0.65214  -0.63134  -0.58576  -0.58152
 Alpha  occ. eigenvalues --   -0.55376  -0.54446  -0.50465  -0.41934  -0.38992
 Alpha virt. eigenvalues --    0.02912   0.04287   0.05200   0.05289   0.06820
 Alpha virt. eigenvalues --    0.06984   0.07998   0.11070   0.12434   0.13077
 Alpha virt. eigenvalues --    0.13369   0.14872   0.15186   0.16517   0.17012
 Alpha virt. eigenvalues --    0.18204   0.18664   0.19173   0.19556   0.21194
 Alpha virt. eigenvalues --    0.22386   0.23042   0.25966   0.28409   0.28615
 Alpha virt. eigenvalues --    0.30074   0.31182   0.31664   0.33303   0.33825
 Alpha virt. eigenvalues --    0.35469   0.38531   0.40022   0.40724   0.40935
 Alpha virt. eigenvalues --    0.42173   0.43053   0.43151   0.43464   0.44893
 Alpha virt. eigenvalues --    0.46326   0.47681   0.49127   0.51058   0.51539
 Alpha virt. eigenvalues --    0.52695   0.54100   0.55878   0.55889   0.56713
 Alpha virt. eigenvalues --    0.60164   0.60313   0.60626   0.62270   0.62493
 Alpha virt. eigenvalues --    0.63077   0.63750   0.66775   0.68675   0.68951
 Alpha virt. eigenvalues --    0.69163   0.70014   0.71406   0.73029   0.73950
 Alpha virt. eigenvalues --    0.75639   0.77676   0.79096   0.79186   0.82002
 Alpha virt. eigenvalues --    0.82864   0.83170   0.87811   0.90380   0.91921
 Alpha virt. eigenvalues --    0.95247   0.98808   0.99698   1.01663   1.05457
 Alpha virt. eigenvalues --    1.07502   1.11672   1.12264   1.12361   1.14957
 Alpha virt. eigenvalues --    1.17235   1.17789   1.20447   1.23974   1.29930
 Alpha virt. eigenvalues --    1.32133   1.35001   1.36586   1.44741   1.46894
 Alpha virt. eigenvalues --    1.47234   1.50371   1.51956   1.56212   1.67383
 Alpha virt. eigenvalues --    1.67757   1.72346   1.73505   1.74793   1.74997
 Alpha virt. eigenvalues --    1.83706   1.84388   1.88340   1.88682   1.89592
 Alpha virt. eigenvalues --    1.93098   1.93464   1.98309   2.00247   2.08227
 Alpha virt. eigenvalues --    2.11489   2.12873   2.15210   2.16422   2.19289
 Alpha virt. eigenvalues --    2.19876   2.23215   2.24854   2.29634   2.30431
 Alpha virt. eigenvalues --    2.33608   2.37895   2.38041   2.41464   2.43162
 Alpha virt. eigenvalues --    2.47607   2.48553   2.57163   2.60321   2.60656
 Alpha virt. eigenvalues --    2.65116   2.68566   2.76035   2.77467   2.77651
 Alpha virt. eigenvalues --    2.85940   2.89498   2.90717   2.92236   2.98742
 Alpha virt. eigenvalues --    3.01311   3.03387   3.08377   3.12466   3.25906
 Alpha virt. eigenvalues --    3.41830   3.50030   3.67417   3.79617   3.82342
 Alpha virt. eigenvalues --    3.93360   4.03264   4.18655
          Condensed to atoms (all electrons):
 Mulliken charges:
               1
     1  C    0.721183
     2  C    0.388974
     3  C    0.738220
     4  N   -0.470529
     5  O   -0.841762
     6  H    0.037445
     7  H    0.037418
     8  H   -0.137548
     9  H   -0.101786
    10  H   -0.155707
    11  H   -0.101654
    12  H   -0.114254
 Sum of Mulliken charges =  -0.00000
 Mulliken charges with hydrogens summed into heavy atoms:
               1
     1  C    0.721183
     2  C    0.326289
     3  C    0.379072
     4  N   -0.584783
     5  O   -0.841762
 Electronic spatial extent (au):  <R**2>=            460.6996
 Charge=             -0.0000 electrons
 Dipole moment (field-independent basis, Debye):
    X=             -0.6035    Y=             -4.0676    Z=             -0.0002  Tot=              4.1121
 Unable to Open any file for archive entry.
 1\1\GINC-SE047\Stability\RHF\Aug-CC-pVDZ\C3H7N1O1\OHZDE\05-Apr-2025\0\
 \#t hf aug-cc-pvdz symm=none int=(grid=ultrafine) guess=(read,tcheck) 
 stable=(opt,rrhf)\\title\\0,1\C,0,0.484528,0.165592,0.000016\C,0,1.812
 482,-0.565934,-0.000009\C,0,-1.975116,-0.101915,-0.000016\N,0,-0.62364
 1,-0.629072,0.000038\O,0,0.425955,1.384169,0.\H,0,2.378559,-0.258444,-
 0.878404\H,0,2.378838,-0.257978,0.878038\H,0,1.716856,-1.651294,0.0002
 88\H,0,-2.523186,-0.423664,-0.887098\H,0,-1.906742,0.982265,-0.00085\H
 ,0,-2.522801,-0.422285,0.887811\H,0,-0.49504,-1.624899,0.000005\\Versi
 on=ES64L-G16RevC.01\HF=-247.0423219\RMSD=5.089e-09\Dipole=-0.2374479,-
 1.6003236,-0.0000789\Quadrupole=2.8749838,-2.4737345,-0.4012492,-1.168
 673,0.0002764,0.000049\PG=Unknown\\@
 The archive entry for this job was punched.


 A successful marriage requires falling in love
 many times, always with the same person.
                           -- Mignon McLaughlin
 Job cpu time:       0 days  0 hours  1 minutes 10.8 seconds.
 Elapsed time:       0 days  0 hours  0 minutes  9.0 seconds.
 File lengths (MBytes):  RWF=    155 Int=      0 D2E=      0 Chk=      5 Scr=      1
 Normal termination of Gaussian 16 at Sat Apr  5 22:48:06 2025.
 Initial command:
 /arc/software/Gaussian/g16.c01/l1.exe "/tmp/slurm/4815679/Gau-2660696.inp" -scrdir="/tmp/slurm/4815679/"
 Entering Link 1 = /arc/software/Gaussian/g16.c01/l1.exe PID=   2660954.
  
 Copyright (c) 1988-2019, Gaussian, Inc.  All Rights Reserved.
  
 This is part of the Gaussian(R) 16 program.  It is based on
 the Gaussian(R) 09 system (copyright 2009, Gaussian, Inc.),
 the Gaussian(R) 03 system (copyright 2003, Gaussian, Inc.),
 the Gaussian(R) 98 system (copyright 1998, Gaussian, Inc.),
 the Gaussian(R) 94 system (copyright 1995, Gaussian, Inc.),
 the Gaussian 92(TM) system (copyright 1992, Gaussian, Inc.),
 the Gaussian 90(TM) system (copyright 1990, Gaussian, Inc.),
 the Gaussian 88(TM) system (copyright 1988, Gaussian, Inc.),
 the Gaussian 86(TM) system (copyright 1986, Carnegie Mellon
 University), and the Gaussian 82(TM) system (copyright 1983,
 Carnegie Mellon University). Gaussian is a federally registered
 trademark of Gaussian, Inc.
  
 This software contains proprietary and confidential information,
 including trade secrets, belonging to Gaussian, Inc.
  
 This software is provided under written license and may be
 used, copied, transmitted, or stored only in accord with that
 written license.
  
 The following legend is applicable only to US Government
 contracts under FAR:
  
                    RESTRICTED RIGHTS LEGEND
  
 Use, reproduction and disclosure by the US Government is
 subject to restrictions as set forth in subparagraphs (a)
 and (c) of the Commercial Computer Software - Restricted
 Rights clause in FAR 52.227-19.
  
 Gaussian, Inc.
 340 Quinnipiac St., Bldg. 40, Wallingford CT 06492
  
  
 ---------------------------------------------------------------
 Warning -- This program may not be used in any manner that
 competes with the business of Gaussian, Inc. or will provide
 assistance to any competitor of Gaussian, Inc.  The licensee
 of this program is prohibited from giving any competitor of
 Gaussian, Inc. access to this program.  By using this program,
 the user acknowledges that Gaussian, Inc. is engaged in the
 business of creating and licensing software in the field of
 computational chemistry and represents and warrants to the
 licensee that it is not a competitor of Gaussian, Inc. and that
 it will not use this program in any manner prohibited above.
 ---------------------------------------------------------------
  

 Cite this work as:
 Gaussian 16, Revision C.01,
 M. J. Frisch, G. W. Trucks, H. B. Schlegel, G. E. Scuseria, 
 M. A. Robb, J. R. Cheeseman, G. Scalmani, V. Barone, 
 G. A. Petersson, H. Nakatsuji, X. Li, M. Caricato, A. V. Marenich, 
 J. Bloino, B. G. Janesko, R. Gomperts, B. Mennucci, H. P. Hratchian, 
 J. V. Ortiz, A. F. Izmaylov, J. L. Sonnenberg, D. Williams-Young, 
 F. Ding, F. Lipparini, F. Egidi, J. Goings, B. Peng, A. Petrone, 
 T. Henderson, D. Ranasinghe, V. G. Zakrzewski, J. Gao, N. Rega, 
 G. Zheng, W. Liang, M. Hada, M. Ehara, K. Toyota, R. Fukuda, 
 J. Hasegawa, M. Ishida, T. Nakajima, Y. Honda, O. Kitao, H. Nakai, 
 T. Vreven, K. Throssell, J. A. Montgomery, Jr., J. E. Peralta, 
 F. Ogliaro, M. J. Bearpark, J. J. Heyd, E. N. Brothers, K. N. Kudin, 
 V. N. Staroverov, T. A. Keith, R. Kobayashi, J. Normand, 
 K. Raghavachari, A. P. Rendell, J. C. Burant, S. S. Iyengar, 
 J. Tomasi, M. Cossi, J. M. Millam, M. Klene, C. Adamo, R. Cammi, 
 J. W. Ochterski, R. L. Martin, K. Morokuma, O. Farkas, 
 J. B. Foresman, and D. J. Fox, Gaussian, Inc., Wallingford CT, 2019.
 
 ******************************************
 Gaussian 16:  ES64L-G16RevC.01  3-Jul-2019
                 5-Apr-2025 
 ******************************************
 %nprocs=16
 Will use up to   16 processors via shared memory.
 %mem=30GB
 %chk=N-methylacetamide.chk
 ----------------------------------------------------------------------
 #t hf aug-cc-pvdz iop(5/13=1,5/36=2,99/5=2) pseudo=read geom=check gue
 ss=(read,tcheck) scf=(maxcycle=1)
 ----------------------------------------------------------------------
 -----
 title
 -----
 Structure from the checkpoint file:  "N-methylacetamide.chk"
 Charge =  0 Multiplicity = 1
 Z-Matrix found in chk file.
 C,0,0.484528,0.165592,0.000016
 C,0,1.812482,-0.565934,-0.000009
 C,0,-1.975116,-0.101915,-0.000016
 N,0,-0.623641,-0.629072,0.000038
 O,0,0.425955,1.384169,0.
 H,0,2.378559,-0.258444,-0.878404
 H,0,2.378838,-0.257978,0.878038
 H,0,1.716856,-1.651294,0.000288
 H,0,-2.523186,-0.423664,-0.887098
 H,0,-1.906742,0.982265,-0.00085
 H,0,-2.522801,-0.422285,0.887811
 H,0,-0.49504,-1.624899,0.000005
 Recover connectivity data from disk.
                    Distance matrix (angstroms):
                    1          2          3          4          5
     1  C    0.000000
     2  C    1.516111   0.000000
     3  C    2.474148   3.815916   0.000000
     4  N    1.363646   2.436941   1.450648   0.000000
     5  O    1.219984   2.392772   2.823754   2.270417   0.000000
     6  H    2.130442   1.089298   4.444159   3.149957   2.698598
     7  H    2.130433   1.089295   4.444350   3.150155   2.698398
     8  H    2.195383   1.089564   4.003902   2.553990   3.298554
     9  H    3.190695   4.427774   1.091246   2.106531   3.571083
    10  H    2.526881   4.028591   1.086334   2.059795   2.367066
    11  H    3.190268   4.427588   1.091253   2.106587   3.570245
    12  H    2.040934   2.538910   2.123701   1.004096   3.146859
                    6          7          8          9         10
     6  H    0.000000
     7  H    1.756442   0.000000
     8  H    1.774819   1.774822   0.000000
     9  H    4.904536   5.212772   4.502498   0.000000
    10  H    4.546786   4.547180   4.479520   1.772590   0.000000
    11  H    5.212455   4.904402   4.502538   1.774910   1.772571
    12  H    3.300965   3.301301   2.212054   2.518590   2.964828
                   11         12
    11  H    0.000000
    12  H    2.519185   0.000000
 Framework group  C1[X(C3H7NO)]
 Deg. of freedom    30
                         Standard orientation:                         
 ---------------------------------------------------------------------
 Center     Atomic      Atomic             Coordinates (Angstroms)
 Number     Number       Type             X           Y           Z
 ---------------------------------------------------------------------
      1          6           0        0.484528    0.165592    0.000016
      2          6           0        1.812482   -0.565934   -0.000009
      3          6           0       -1.975116   -0.101915   -0.000016
      4          7           0       -0.623641   -0.629072    0.000038
      5          8           0        0.425955    1.384169   -0.000000
      6          1           0        2.378559   -0.258444   -0.878404
      7          1           0        2.378838   -0.257978    0.878038
      8          1           0        1.716856   -1.651294    0.000288
      9          1           0       -2.523186   -0.423664   -0.887098
     10          1           0       -1.906742    0.982265   -0.000850
     11          1           0       -2.522801   -0.422285    0.887811
     12          1           0       -0.495040   -1.624899    0.000005
 ---------------------------------------------------------------------
 Rotational constants (GHZ):          10.0637404           3.8358536           2.8766200
 ======================================================================================================
                                       Pseudopotential Parameters
 ======================================================================================================
  Center     Atomic      Valence      Angular      Power
  Number     Number     Electrons     Momentum     of R      Exponent        Coefficient   SO-Coeffient
 ======================================================================================================
    1          6            6
                                      G and up 
                                                     0        0.0000010       -0.00011185    0.00000000
                                                     2        0.1200000       -0.02301220    0.00000000
                                                     2        0.1400000        0.13317600    0.00000000
                                                     2        0.1600000       -0.19690668    0.00000000
                                                     2        0.2200000        0.23163694    0.00000000
                                                     2        0.3000000       -0.36920489    0.00000000
                                                     2        0.4000000        0.36389709    0.00000000
                                                     2        0.7000000       -0.38862160    0.00000000
                                                     2        1.3000000        0.80803421    0.00000000
                                      S - G
                                                     0        0.0000010        0.00312304    0.00000000
                                                     2        0.1200000       -0.00632892    0.00000000
                                                     2        0.2200000       -0.03780897    0.00000000
                                                     2        0.4000000        0.26269560    0.00000000
                                                     2        0.9000000       -0.28209514    0.00000000
                                                     2        1.5000000       -0.72686737    0.00000000
                                      P - G
                                                     0        0.0000010       -0.01465594    0.00000000
                                                     2        0.1200000        0.07908409    0.00000000
                                                     2        0.1800000       -0.30615861    0.00000000
                                                     2        0.2600000        0.41506950    0.00000000
                                                     2        0.5000000       -0.36252345    0.00000000
                                                     2        0.9000000        0.15124193    0.00000000
                                                     2        3.0000000       -0.80425677    0.00000000
                                      D - G
                                                     0        0.0000010        0.01149631    0.00000000
                                                     2        0.1200000       -0.04713561    0.00000000
                                                     2        0.1600000        0.10865096    0.00000000
                                                     2        0.2800000       -0.15816701    0.00000000
                                                     2        0.7000000        0.65478804    0.00000000
                                                     2        1.3000000       -1.73816624    0.00000000
                                      F - G
                                                     0        0.0000010        0.00481868    0.00000000
                                                     2        0.1200000       -0.04746842    0.00000000
                                                     2        0.1600000        0.09327889    0.00000000
                                                     2        0.4000000       -0.19693326    0.00000000
                                                     2        0.9000000        0.34938253    0.00000000
    2          6            6
                                      G and up 
                                                     0        0.0000010       -0.00011185    0.00000000
                                                     2        0.1200000       -0.02301220    0.00000000
                                                     2        0.1400000        0.13317600    0.00000000
                                                     2        0.1600000       -0.19690668    0.00000000
                                                     2        0.2200000        0.23163694    0.00000000
                                                     2        0.3000000       -0.36920489    0.00000000
                                                     2        0.4000000        0.36389709    0.00000000
                                                     2        0.7000000       -0.38862160    0.00000000
                                                     2        1.3000000        0.80803421    0.00000000
                                      S - G
                                                     0        0.0000010        0.00312304    0.00000000
                                                     2        0.1200000       -0.00632892    0.00000000
                                                     2        0.2200000       -0.03780897    0.00000000
                                                     2        0.4000000        0.26269560    0.00000000
                                                     2        0.9000000       -0.28209514    0.00000000
                                                     2        1.5000000       -0.72686737    0.00000000
                                      P - G
                                                     0        0.0000010       -0.01465594    0.00000000
                                                     2        0.1200000        0.07908409    0.00000000
                                                     2        0.1800000       -0.30615861    0.00000000
                                                     2        0.2600000        0.41506950    0.00000000
                                                     2        0.5000000       -0.36252345    0.00000000
                                                     2        0.9000000        0.15124193    0.00000000
                                                     2        3.0000000       -0.80425677    0.00000000
                                      D - G
                                                     0        0.0000010        0.01149631    0.00000000
                                                     2        0.1200000       -0.04713561    0.00000000
                                                     2        0.1600000        0.10865096    0.00000000
                                                     2        0.2800000       -0.15816701    0.00000000
                                                     2        0.7000000        0.65478804    0.00000000
                                                     2        1.3000000       -1.73816624    0.00000000
                                      F - G
                                                     0        0.0000010        0.00481868    0.00000000
                                                     2        0.1200000       -0.04746842    0.00000000
                                                     2        0.1600000        0.09327889    0.00000000
                                                     2        0.4000000       -0.19693326    0.00000000
                                                     2        0.9000000        0.34938253    0.00000000
    3          6            6
                                      G and up 
                                                     0        0.0000010       -0.00011185    0.00000000
                                                     2        0.1200000       -0.02301220    0.00000000
                                                     2        0.1400000        0.13317600    0.00000000
                                                     2        0.1600000       -0.19690668    0.00000000
                                                     2        0.2200000        0.23163694    0.00000000
                                                     2        0.3000000       -0.36920489    0.00000000
                                                     2        0.4000000        0.36389709    0.00000000
                                                     2        0.7000000       -0.38862160    0.00000000
                                                     2        1.3000000        0.80803421    0.00000000
                                      S - G
                                                     0        0.0000010        0.00312304    0.00000000
                                                     2        0.1200000       -0.00632892    0.00000000
                                                     2        0.2200000       -0.03780897    0.00000000
                                                     2        0.4000000        0.26269560    0.00000000
                                                     2        0.9000000       -0.28209514    0.00000000
                                                     2        1.5000000       -0.72686737    0.00000000
                                      P - G
                                                     0        0.0000010       -0.01465594    0.00000000
                                                     2        0.1200000        0.07908409    0.00000000
                                                     2        0.1800000       -0.30615861    0.00000000
                                                     2        0.2600000        0.41506950    0.00000000
                                                     2        0.5000000       -0.36252345    0.00000000
                                                     2        0.9000000        0.15124193    0.00000000
                                                     2        3.0000000       -0.80425677    0.00000000
                                      D - G
                                                     0        0.0000010        0.01149631    0.00000000
                                                     2        0.1200000       -0.04713561    0.00000000
                                                     2        0.1600000        0.10865096    0.00000000
                                                     2        0.2800000       -0.15816701    0.00000000
                                                     2        0.7000000        0.65478804    0.00000000
                                                     2        1.3000000       -1.73816624    0.00000000
                                      F - G
                                                     0        0.0000010        0.00481868    0.00000000
                                                     2        0.1200000       -0.04746842    0.00000000
                                                     2        0.1600000        0.09327889    0.00000000
                                                     2        0.4000000       -0.19693326    0.00000000
                                                     2        0.9000000        0.34938253    0.00000000
    4          7            7
                                      G and up 
                                                     0        0.0000010       -0.00000022    0.00000000
                                                     2        0.1200000       -0.00992020    0.00000000
                                                     2        0.1400000        0.02578711    0.00000000
                                                     2        0.2200000       -0.10543517    0.00000000
                                                     2        0.3000000        0.23013665    0.00000000
                                                     2        0.5000000       -0.60834094    0.00000000
                                                     2        0.8000000        1.81436815    0.00000000
                                                     2        1.2000000       -3.87539738    0.00000000
                                                     2        2.0000000        2.94656640    0.00000000
                                      S - G
                                                     0        0.0000010       -0.00223566    0.00000000
                                                     2        0.1200000        0.45247937    0.00000000
                                                     2        0.1600000       -0.78978304    0.00000000
                                                     2        0.4000000        0.84956595    0.00000000
                                                     2        3.0000000       -0.75910174    0.00000000
                                      P - G
                                                     0        0.0000010       -0.25576737    0.00000000
                                                     2        0.1200000       -0.19992277    0.00000000
                                                     2        0.1600000        0.88518512    0.00000000
                                                     2        0.2400000       -1.33293917    0.00000000
                                                     2        0.4000000        1.33451776    0.00000000
                                                     2        0.9000000       -0.55709210    0.00000000
                                                     2        2.5000000        2.48506502    0.00000000
                                      D - G
                                                     0        0.0000010        0.26143746    0.00000000
                                                     2        0.1200000       -0.04492212    0.00000000
                                                     2        0.1400000       -0.18274021    0.00000000
                                                     2        0.2400000        0.53490004    0.00000000
                                                     2        0.4000000       -0.74136473    0.00000000
                                                     2        1.3000000        1.71401021    0.00000000
                                      F - G
                                                     0        0.0000010       -0.07169988    0.00000000
                                                     2        0.1200000        0.04480029    0.00000000
                                                     2        0.2600000       -0.08050831    0.00000000
                                                     2        0.5000000        0.31290809    0.00000000
                                                     2        1.0000000       -0.45253098    0.00000000
    5          8            8
                                      G and up 
                                                     0        0.0000010        0.00001165    0.00000000
                                                     2        0.1200000       -0.01744018    0.00000000
                                                     2        0.1400000        0.05401326    0.00000000
                                                     2        0.1800000       -0.08231208    0.00000000
                                                     2        0.2600000        0.11570222    0.00000000
                                                     2        0.4000000       -0.20630360    0.00000000
                                                     2        0.7000000        0.38074319    0.00000000
                                                     2        1.2000000       -0.17045091    0.00000000
                                                     2        2.0000000       -1.45433187    0.00000000
                                      S - G
                                                     0        0.0000010       -0.00117944    0.00000000
                                                     2        0.1400000        0.04368312    0.00000000
                                                     2        0.3000000       -0.33477926    0.00000000
                                                     2        0.6000000        1.52630657    0.00000000
                                                     2        1.5000000       -2.50804716    0.00000000
                                                     2        3.0000000        2.89751681    0.00000000
                                      P - G
                                                     0        0.0000010        0.06576007    0.00000000
                                                     2        0.1200000       -0.10329304    0.00000000
                                                     2        0.2000000        0.24891756    0.00000000
                                                     2        0.4000000       -0.50800022    0.00000000
                                                     2        0.9000000        0.81480796    0.00000000
                                      D - G
                                                     0        0.0000010       -0.14101855    0.00000000
                                                     2        0.1200000        0.22105937    0.00000000
                                                     2        0.1800000       -0.45814988    0.00000000
                                                     2        0.3000000        0.46029282    0.00000000
                                      F - G
                                                     0        0.0000010        0.07483044    0.00000000
                                                     2        0.1200000       -0.09134252    0.00000000
                                                     2        0.1400000        0.04125459    0.00000000
                                                     2        0.3000000        0.37914837    0.00000000
                                                     2        0.5000000       -0.86881279    0.00000000
    6          1            1
                                      F and up 
                                                     0        0.0000010       -0.00000699    0.00000000
                                                     2        0.1200000        0.00123686    0.00000000
                                                     2        0.1800000       -0.00752022    0.00000000
                                                     2        0.2600000        0.02503380    0.00000000
                                                     2        0.4000000       -0.08702670    0.00000000
                                                     2        0.6000000        0.30134159    0.00000000
                                                     2        0.8000000       -0.50204959    0.00000000
                                                     2        1.2000000        0.52208372    0.00000000
                                      S - F
                                                     0        0.0000010       -0.01618346    0.00000000
                                                     2        0.1200000       -0.07880581    0.00000000
                                                     2        0.1600000        0.32040539    0.00000000
                                                     2        0.2400000       -0.47500956    0.00000000
                                                     2        0.5000000        0.54013668    0.00000000
                                                     2        1.5000000       -1.40434292    0.00000000
                                                     2        3.0000000        1.46283806    0.00000000
                                      P - F
                                                     0        0.0000010        0.00612970    0.00000000
                                                     2        0.1200000        0.02254406    0.00000000
                                                     2        0.1800000       -0.13874529    0.00000000
                                                     2        0.3000000        0.38299049    0.00000000
                                                     2        0.5000000       -0.57923512    0.00000000
                                                     2        1.0000000        0.63021625    0.00000000
                                                     2        2.0000000       -0.79201034    0.00000000
                                      D - F
                                                     0        0.0000010       -0.00296226    0.00000000
                                                     2        0.1200000       -0.00547344    0.00000000
                                                     2        0.1400000        0.01837884    0.00000000
                                                     2        0.2400000       -0.05565704    0.00000000
                                                     2        0.4000000        0.15376597    0.00000000
                                                     2        0.8000000       -0.32464795    0.00000000
    7          1            1
                                      F and up 
                                                     0        0.0000010       -0.00000699    0.00000000
                                                     2        0.1200000        0.00123686    0.00000000
                                                     2        0.1800000       -0.00752022    0.00000000
                                                     2        0.2600000        0.02503380    0.00000000
                                                     2        0.4000000       -0.08702670    0.00000000
                                                     2        0.6000000        0.30134159    0.00000000
                                                     2        0.8000000       -0.50204959    0.00000000
                                                     2        1.2000000        0.52208372    0.00000000
                                      S - F
                                                     0        0.0000010       -0.01618346    0.00000000
                                                     2        0.1200000       -0.07880581    0.00000000
                                                     2        0.1600000        0.32040539    0.00000000
                                                     2        0.2400000       -0.47500956    0.00000000
                                                     2        0.5000000        0.54013668    0.00000000
                                                     2        1.5000000       -1.40434292    0.00000000
                                                     2        3.0000000        1.46283806    0.00000000
                                      P - F
                                                     0        0.0000010        0.00612970    0.00000000
                                                     2        0.1200000        0.02254406    0.00000000
                                                     2        0.1800000       -0.13874529    0.00000000
                                                     2        0.3000000        0.38299049    0.00000000
                                                     2        0.5000000       -0.57923512    0.00000000
                                                     2        1.0000000        0.63021625    0.00000000
                                                     2        2.0000000       -0.79201034    0.00000000
                                      D - F
                                                     0        0.0000010       -0.00296226    0.00000000
                                                     2        0.1200000       -0.00547344    0.00000000
                                                     2        0.1400000        0.01837884    0.00000000
                                                     2        0.2400000       -0.05565704    0.00000000
                                                     2        0.4000000        0.15376597    0.00000000
                                                     2        0.8000000       -0.32464795    0.00000000
    8          1            1
                                      F and up 
                                                     0        0.0000010       -0.00000699    0.00000000
                                                     2        0.1200000        0.00123686    0.00000000
                                                     2        0.1800000       -0.00752022    0.00000000
                                                     2        0.2600000        0.02503380    0.00000000
                                                     2        0.4000000       -0.08702670    0.00000000
                                                     2        0.6000000        0.30134159    0.00000000
                                                     2        0.8000000       -0.50204959    0.00000000
                                                     2        1.2000000        0.52208372    0.00000000
                                      S - F
                                                     0        0.0000010       -0.01618346    0.00000000
                                                     2        0.1200000       -0.07880581    0.00000000
                                                     2        0.1600000        0.32040539    0.00000000
                                                     2        0.2400000       -0.47500956    0.00000000
                                                     2        0.5000000        0.54013668    0.00000000
                                                     2        1.5000000       -1.40434292    0.00000000
                                                     2        3.0000000        1.46283806    0.00000000
                                      P - F
                                                     0        0.0000010        0.00612970    0.00000000
                                                     2        0.1200000        0.02254406    0.00000000
                                                     2        0.1800000       -0.13874529    0.00000000
                                                     2        0.3000000        0.38299049    0.00000000
                                                     2        0.5000000       -0.57923512    0.00000000
                                                     2        1.0000000        0.63021625    0.00000000
                                                     2        2.0000000       -0.79201034    0.00000000
                                      D - F
                                                     0        0.0000010       -0.00296226    0.00000000
                                                     2        0.1200000       -0.00547344    0.00000000
                                                     2        0.1400000        0.01837884    0.00000000
                                                     2        0.2400000       -0.05565704    0.00000000
                                                     2        0.4000000        0.15376597    0.00000000
                                                     2        0.8000000       -0.32464795    0.00000000
    9          1            1
                                      F and up 
                                                     0        0.0000010       -0.00000699    0.00000000
                                                     2        0.1200000        0.00123686    0.00000000
                                                     2        0.1800000       -0.00752022    0.00000000
                                                     2        0.2600000        0.02503380    0.00000000
                                                     2        0.4000000       -0.08702670    0.00000000
                                                     2        0.6000000        0.30134159    0.00000000
                                                     2        0.8000000       -0.50204959    0.00000000
                                                     2        1.2000000        0.52208372    0.00000000
                                      S - F
                                                     0        0.0000010       -0.01618346    0.00000000
                                                     2        0.1200000       -0.07880581    0.00000000
                                                     2        0.1600000        0.32040539    0.00000000
                                                     2        0.2400000       -0.47500956    0.00000000
                                                     2        0.5000000        0.54013668    0.00000000
                                                     2        1.5000000       -1.40434292    0.00000000
                                                     2        3.0000000        1.46283806    0.00000000
                                      P - F
                                                     0        0.0000010        0.00612970    0.00000000
                                                     2        0.1200000        0.02254406    0.00000000
                                                     2        0.1800000       -0.13874529    0.00000000
                                                     2        0.3000000        0.38299049    0.00000000
                                                     2        0.5000000       -0.57923512    0.00000000
                                                     2        1.0000000        0.63021625    0.00000000
                                                     2        2.0000000       -0.79201034    0.00000000
                                      D - F
                                                     0        0.0000010       -0.00296226    0.00000000
                                                     2        0.1200000       -0.00547344    0.00000000
                                                     2        0.1400000        0.01837884    0.00000000
                                                     2        0.2400000       -0.05565704    0.00000000
                                                     2        0.4000000        0.15376597    0.00000000
                                                     2        0.8000000       -0.32464795    0.00000000
   10          1            1
                                      F and up 
                                                     0        0.0000010       -0.00000699    0.00000000
                                                     2        0.1200000        0.00123686    0.00000000
                                                     2        0.1800000       -0.00752022    0.00000000
                                                     2        0.2600000        0.02503380    0.00000000
                                                     2        0.4000000       -0.08702670    0.00000000
                                                     2        0.6000000        0.30134159    0.00000000
                                                     2        0.8000000       -0.50204959    0.00000000
                                                     2        1.2000000        0.52208372    0.00000000
                                      S - F
                                                     0        0.0000010       -0.01618346    0.00000000
                                                     2        0.1200000       -0.07880581    0.00000000
                                                     2        0.1600000        0.32040539    0.00000000
                                                     2        0.2400000       -0.47500956    0.00000000
                                                     2        0.5000000        0.54013668    0.00000000
                                                     2        1.5000000       -1.40434292    0.00000000
                                                     2        3.0000000        1.46283806    0.00000000
                                      P - F
                                                     0        0.0000010        0.00612970    0.00000000
                                                     2        0.1200000        0.02254406    0.00000000
                                                     2        0.1800000       -0.13874529    0.00000000
                                                     2        0.3000000        0.38299049    0.00000000
                                                     2        0.5000000       -0.57923512    0.00000000
                                                     2        1.0000000        0.63021625    0.00000000
                                                     2        2.0000000       -0.79201034    0.00000000
                                      D - F
                                                     0        0.0000010       -0.00296226    0.00000000
                                                     2        0.1200000       -0.00547344    0.00000000
                                                     2        0.1400000        0.01837884    0.00000000
                                                     2        0.2400000       -0.05565704    0.00000000
                                                     2        0.4000000        0.15376597    0.00000000
                                                     2        0.8000000       -0.32464795    0.00000000
   11          1            1
                                      F and up 
                                                     0        0.0000010       -0.00000699    0.00000000
                                                     2        0.1200000        0.00123686    0.00000000
                                                     2        0.1800000       -0.00752022    0.00000000
                                                     2        0.2600000        0.02503380    0.00000000
                                                     2        0.4000000       -0.08702670    0.00000000
                                                     2        0.6000000        0.30134159    0.00000000
                                                     2        0.8000000       -0.50204959    0.00000000
                                                     2        1.2000000        0.52208372    0.00000000
                                      S - F
                                                     0        0.0000010       -0.01618346    0.00000000
                                                     2        0.1200000       -0.07880581    0.00000000
                                                     2        0.1600000        0.32040539    0.00000000
                                                     2        0.2400000       -0.47500956    0.00000000
                                                     2        0.5000000        0.54013668    0.00000000
                                                     2        1.5000000       -1.40434292    0.00000000
                                                     2        3.0000000        1.46283806    0.00000000
                                      P - F
                                                     0        0.0000010        0.00612970    0.00000000
                                                     2        0.1200000        0.02254406    0.00000000
                                                     2        0.1800000       -0.13874529    0.00000000
                                                     2        0.3000000        0.38299049    0.00000000
                                                     2        0.5000000       -0.57923512    0.00000000
                                                     2        1.0000000        0.63021625    0.00000000
                                                     2        2.0000000       -0.79201034    0.00000000
                                      D - F
                                                     0        0.0000010       -0.00296226    0.00000000
                                                     2        0.1200000       -0.00547344    0.00000000
                                                     2        0.1400000        0.01837884    0.00000000
                                                     2        0.2400000       -0.05565704    0.00000000
                                                     2        0.4000000        0.15376597    0.00000000
                                                     2        0.8000000       -0.32464795    0.00000000
   12          1            1
                                      F and up 
                                                     0        0.0000010       -0.00000699    0.00000000
                                                     2        0.1200000        0.00123686    0.00000000
                                                     2        0.1800000       -0.00752022    0.00000000
                                                     2        0.2600000        0.02503380    0.00000000
                                                     2        0.4000000       -0.08702670    0.00000000
                                                     2        0.6000000        0.30134159    0.00000000
                                                     2        0.8000000       -0.50204959    0.00000000
                                                     2        1.2000000        0.52208372    0.00000000
                                      S - F
                                                     0        0.0000010       -0.01618346    0.00000000
                                                     2        0.1200000       -0.07880581    0.00000000
                                                     2        0.1600000        0.32040539    0.00000000
                                                     2        0.2400000       -0.47500956    0.00000000
                                                     2        0.5000000        0.54013668    0.00000000
                                                     2        1.5000000       -1.40434292    0.00000000
                                                     2        3.0000000        1.46283806    0.00000000
                                      P - F
                                                     0        0.0000010        0.00612970    0.00000000
                                                     2        0.1200000        0.02254406    0.00000000
                                                     2        0.1800000       -0.13874529    0.00000000
                                                     2        0.3000000        0.38299049    0.00000000
                                                     2        0.5000000       -0.57923512    0.00000000
                                                     2        1.0000000        0.63021625    0.00000000
                                                     2        2.0000000       -0.79201034    0.00000000
                                      D - F
                                                     0        0.0000010       -0.00296226    0.00000000
                                                     2        0.1200000       -0.00547344    0.00000000
                                                     2        0.1400000        0.01837884    0.00000000
                                                     2        0.2400000       -0.05565704    0.00000000
                                                     2        0.4000000        0.15376597    0.00000000
                                                     2        0.8000000       -0.32464795    0.00000000
 ======================================================================================================
   178 basis functions,   292 primitive gaussians,   188 cartesian basis functions
    20 alpha electrons       20 beta electrons
       nuclear repulsion energy       180.0739727096 Hartrees.
 NAtoms=   12 NActive=   12 NUniq=   12 SFac= 1.00D+00 NAtFMM=   60 NAOKFM=F Big=F
   1 Symmetry operations used in ECPInt.
 ECPInt:  NShTT=    3240 NPrTT=   13776 LenC2=    3240 LenP2D=   11401.
 LDataN:  DoStor=T MaxTD1= 6 Len=  172
 Initial guess from the checkpoint file:  "N-methylacetamide.chk"
 B after Tr=    -0.000000   -0.000000   -0.000000
         Rot=    1.000000   -0.000000    0.000000   -0.000000 Ang=  -0.00 deg.
 >>>>>>>>>> Convergence criterion not met.
 SCF Done:  E(RHF) =  -247.122656591     A.U. after    2 cycles
            NFock=  1  Conv=0.29D-02     -V/T= 1.9999

 **********************************************************************

            Population analysis using the SCF Density.

 **********************************************************************

 Orbital symmetries:
       Occupied  (A) (A) (A) (A) (A) (A) (A) (A) (A) (A) (A) (A)
                 (A) (A) (A) (A) (A) (A) (A) (A)
       Virtual   (A) (A) (A) (A) (A) (A) (A) (A) (A) (A) (A) (A)
                 (A) (A) (A) (A) (A) (A) (A) (A) (A) (A) (A) (A)
                 (A) (A) (A) (A) (A) (A) (A) (A) (A) (A) (A) (A)
                 (A) (A) (A) (A) (A) (A) (A) (A) (A) (A) (A) (A)
                 (A) (A) (A) (A) (A) (A) (A) (A) (A) (A) (A) (A)
                 (A) (A) (A) (A) (A) (A) (A) (A) (A) (A) (A) (A)
                 (A) (A) (A) (A) (A) (A) (A) (A) (A) (A) (A) (A)
                 (A) (A) (A) (A) (A) (A) (A) (A) (A) (A) (A) (A)
                 (A) (A) (A) (A) (A) (A) (A) (A) (A) (A) (A) (A)
                 (A) (A) (A) (A) (A) (A) (A) (A) (A) (A) (A) (A)
                 (A) (A) (A) (A) (A) (A) (A) (A) (A) (A) (A) (A)
                 (A) (A) (A) (A) (A) (A) (A) (A) (A) (A) (A) (A)
                 (A) (A) (A) (A) (A) (A) (A) (A) (A) (A) (A) (A)
                 (A) (A)
 The electronic state is 1-A.
 Alpha  occ. eigenvalues --  -20.52596 -15.65026 -11.36109 -11.26906 -11.24652
 Alpha  occ. eigenvalues --   -1.34021  -1.19524  -1.01253  -0.92741  -0.78773
 Alpha  occ. eigenvalues --   -0.69487  -0.65692  -0.63525  -0.59039  -0.58883
 Alpha  occ. eigenvalues --   -0.55696  -0.54750  -0.51369  -0.43484  -0.39289
 Alpha virt. eigenvalues --    0.02862   0.04024   0.04955   0.05115   0.06980
 Alpha virt. eigenvalues --    0.07186   0.08148   0.11155   0.12471   0.13132
 Alpha virt. eigenvalues --    0.13493   0.14661   0.15230   0.16342   0.16945
 Alpha virt. eigenvalues --    0.18183   0.18680   0.19095   0.19604   0.21200
 Alpha virt. eigenvalues --    0.22237   0.23061   0.25912   0.28340   0.28507
 Alpha virt. eigenvalues --    0.30012   0.31167   0.31593   0.32945   0.33725
 Alpha virt. eigenvalues --    0.35460   0.38639   0.39947   0.40700   0.40925
 Alpha virt. eigenvalues --    0.42153   0.42911   0.43127   0.43391   0.44784
 Alpha virt. eigenvalues --    0.46286   0.47650   0.49046   0.51106   0.51562
 Alpha virt. eigenvalues --    0.52704   0.54102   0.55903   0.55931   0.56708
 Alpha virt. eigenvalues --    0.60158   0.60295   0.60405   0.62264   0.62523
 Alpha virt. eigenvalues --    0.63083   0.63792   0.66623   0.68684   0.68730
 Alpha virt. eigenvalues --    0.69144   0.70060   0.71332   0.72995   0.73876
 Alpha virt. eigenvalues --    0.75738   0.77506   0.79137   0.79154   0.82108
 Alpha virt. eigenvalues --    0.82802   0.83055   0.87928   0.90276   0.91782
 Alpha virt. eigenvalues --    0.95246   0.98435   0.99629   1.01623   1.05483
 Alpha virt. eigenvalues --    1.07060   1.11519   1.12056   1.12188   1.14954
 Alpha virt. eigenvalues --    1.17140   1.17990   1.20248   1.23698   1.30024
 Alpha virt. eigenvalues --    1.32192   1.34752   1.36123   1.44540   1.46708
 Alpha virt. eigenvalues --    1.46850   1.49275   1.52097   1.55958   1.67141
 Alpha virt. eigenvalues --    1.67182   1.72022   1.72488   1.73941   1.74161
 Alpha virt. eigenvalues --    1.81834   1.83292   1.87747   1.88453   1.89663
 Alpha virt. eigenvalues --    1.92137   1.92547   1.97128   1.99203   2.07868
 Alpha virt. eigenvalues --    2.10264   2.12346   2.14752   2.16336   2.17953
 Alpha virt. eigenvalues --    2.19161   2.22893   2.24305   2.29399   2.29555
 Alpha virt. eigenvalues --    2.32617   2.36158   2.36979   2.41362   2.42158
 Alpha virt. eigenvalues --    2.46735   2.47914   2.56789   2.60329   2.61080
 Alpha virt. eigenvalues --    2.64265   2.67658   2.75102   2.77574   2.85438
 Alpha virt. eigenvalues --    2.85618   2.89590   2.91373   2.93350   2.96609
 Alpha virt. eigenvalues --    3.04043   3.10362   3.10471   3.13359   3.27766
 Alpha virt. eigenvalues --    3.46910   3.57172   3.64204   3.65391   3.66899
 Alpha virt. eigenvalues --    3.81484   3.93047   4.05768
          Condensed to atoms (all electrons):
 Mulliken charges:
               1
     1  C    0.376174
     2  C    0.373556
     3  C    0.723678
     4  N   -0.345652
     5  O   -0.564503
     6  H    0.033150
     7  H    0.033125
     8  H   -0.133427
     9  H   -0.120834
    10  H   -0.171269
    11  H   -0.120702
    12  H   -0.083295
 Sum of Mulliken charges =  -0.00000
 Mulliken charges with hydrogens summed into heavy atoms:
               1
     1  C    0.376174
     2  C    0.306404
     3  C    0.310873
     4  N   -0.428948
     5  O   -0.564503
 Electronic spatial extent (au):  <R**2>=            460.3784
 Charge=             -0.0000 electrons
 Dipole moment (field-independent basis, Debye):
    X=             -0.6256    Y=             -4.2786    Z=             -0.0002  Tot=              4.3241

 Test job not archived.
 1\1\GINC-SE047\SP\RHF\Aug-CC-pVDZ\C3H7N1O1\OHZDE\05-Apr-2025\0\\#t hf 
 aug-cc-pvdz iop(5/13=1,5/36=2,99/5=2) pseudo=read geom=check guess=(re
 ad,tcheck) scf=(maxcycle=1)\\title\\0,1\C,0,0.484528,0.165592,0.000016
 \C,0,1.812482,-0.565934,-0.000009\C,0,-1.975116,-0.101915,-0.000016\N,
 0,-0.623641,-0.629072,0.000038\O,0,0.425955,1.384169,0.\H,0,2.378559,-
 0.258444,-0.878404\H,0,2.378838,-0.257978,0.878038\H,0,1.716856,-1.651
 294,0.000288\H,0,-2.523186,-0.423664,-0.887098\H,0,-1.906742,0.982265,
 -0.00085\H,0,-2.522801,-0.422285,0.887811\H,0,-0.49504,-1.624899,0.000
 005\\Version=ES64L-G16RevC.01\State=1-A\HF=-247.1226566\RMSD=2.869e-03
 \Dipole=-0.2461311,-1.6833266,-0.0000781\Quadrupole=2.9573064,-2.61277
 35,-0.3445328,-1.2193964,0.0002737,0.0000493\PG=C01 [X(C3H7N1O1)]\\@


 FRICTION IS A DRAG,
 AND ENTROPY AIN'T WHAT IT USED TO BE.
 Job cpu time:       0 days  0 hours  0 minutes 35.0 seconds.
 Elapsed time:       0 days  0 hours  0 minutes  3.1 seconds.
 File lengths (MBytes):  RWF=     10 Int=      0 D2E=      0 Chk=      5 Scr=      1
 Normal termination of Gaussian 16 at Sat Apr  5 22:48:09 2025.
