 Entering Gaussian System, Link 0=g16
 Input=vinylsulfonylbenzene.gjf
 Output=vinylsulfonylbenzene.log
 Initial command:
 /arc/software/Gaussian/g16.c01/l1.exe "/tmp/slurm/4817218/Gau-1195387.inp" -scrdir="/tmp/slurm/4817218/"
 Entering Link 1 = /arc/software/Gaussian/g16.c01/l1.exe PID=   1195388.
  
 Copyright (c) 1988-2019, Gaussian, Inc.  All Rights Reserved.
  
 This is part of the Gaussian(R) 16 program.  It is based on
 the Gaussian(R) 09 system (copyright 2009, Gaussian, Inc.),
 the Gaussian(R) 03 system (copyright 2003, Gaussian, Inc.),
 the Gaussian(R) 98 system (copyright 1998, Gaussian, Inc.),
 the Gaussian(R) 94 system (copyright 1995, Gaussian, Inc.),
 the Gaussian 92(TM) system (copyright 1992, Gaussian, Inc.),
 the Gaussian 90(TM) system (copyright 1990, Gaussian, Inc.),
 the Gaussian 88(TM) system (copyright 1988, Gaussian, Inc.),
 the Gaussian 86(TM) system (copyright 1986, Carnegie Mellon
 University), and the Gaussian 82(TM) system (copyright 1983,
 Carnegie Mellon University). Gaussian is a federally registered
 trademark of Gaussian, Inc.
  
 This software contains proprietary and confidential information,
 including trade secrets, belonging to Gaussian, Inc.
  
 This software is provided under written license and may be
 used, copied, transmitted, or stored only in accord with that
 written license.
  
 The following legend is applicable only to US Government
 contracts under FAR:
  
                    RESTRICTED RIGHTS LEGEND
  
 Use, reproduction and disclosure by the US Government is
 subject to restrictions as set forth in subparagraphs (a)
 and (c) of the Commercial Computer Software - Restricted
 Rights clause in FAR 52.227-19.
  
 Gaussian, Inc.
 340 Quinnipiac St., Bldg. 40, Wallingford CT 06492
  
  
 ---------------------------------------------------------------
 Warning -- This program may not be used in any manner that
 competes with the business of Gaussian, Inc. or will provide
 assistance to any competitor of Gaussian, Inc.  The licensee
 of this program is prohibited from giving any competitor of
 Gaussian, Inc. access to this program.  By using this program,
 the user acknowledges that Gaussian, Inc. is engaged in the
 business of creating and licensing software in the field of
 computational chemistry and represents and warrants to the
 licensee that it is not a competitor of Gaussian, Inc. and that
 it will not use this program in any manner prohibited above.
 ---------------------------------------------------------------
  

 Cite this work as:
 Gaussian 16, Revision C.01,
 M. J. Frisch, G. W. Trucks, H. B. Schlegel, G. E. Scuseria, 
 M. A. Robb, J. R. Cheeseman, G. Scalmani, V. Barone, 
 G. A. Petersson, H. Nakatsuji, X. Li, M. Caricato, A. V. Marenich, 
 J. Bloino, B. G. Janesko, R. Gomperts, B. Mennucci, H. P. Hratchian, 
 J. V. Ortiz, A. F. Izmaylov, J. L. Sonnenberg, D. Williams-Young, 
 F. Ding, F. Lipparini, F. Egidi, J. Goings, B. Peng, A. Petrone, 
 T. Henderson, D. Ranasinghe, V. G. Zakrzewski, J. Gao, N. Rega, 
 G. Zheng, W. Liang, M. Hada, M. Ehara, K. Toyota, R. Fukuda, 
 J. Hasegawa, M. Ishida, T. Nakajima, Y. Honda, O. Kitao, H. Nakai, 
 T. Vreven, K. Throssell, J. A. Montgomery, Jr., J. E. Peralta, 
 F. Ogliaro, M. J. Bearpark, J. J. Heyd, E. N. Brothers, K. N. Kudin, 
 V. N. Staroverov, T. A. Keith, R. Kobayashi, J. Normand, 
 K. Raghavachari, A. P. Rendell, J. C. Burant, S. S. Iyengar, 
 J. Tomasi, M. Cossi, J. M. Millam, M. Klene, C. Adamo, R. Cammi, 
 J. W. Ochterski, R. L. Martin, K. Morokuma, O. Farkas, 
 J. B. Foresman, and D. J. Fox, Gaussian, Inc., Wallingford CT, 2019.
 
 ******************************************
 Gaussian 16:  ES64L-G16RevC.01  3-Jul-2019
                 5-Apr-2025 
 ******************************************
 %nprocs=16
 Will use up to   16 processors via shared memory.
 %mem=30GB
 %chk=vinylsulfonylbenzene.chk
 ----------------------------------------------------------------------
 #t hf aug-cc-pvdz symm=none int=(grid=ultrafine) guess=(read,tcheck) s
 table=(opt,rrhf)
 ----------------------------------------------------------------------
 -----
 title
 -----
 Symbolic Z-matrix:
 Charge =  0 Multiplicity = 1
 C                    -2.76043  -1.20733   1.20731 
 C                    -1.94253  -0.17031   1.16594 
 S                    -1.20957   0.35786  -0.37766 
 O                    -1.66148  -0.5462   -1.42949 
 O                    -1.43264   1.79644  -0.47841 
 C                     0.54996   0.09323  -0.12857 
 C                     1.32732   1.13414   0.36594 
 C                     2.6885    0.92649   0.55546 
 C                     3.25489  -0.30621   0.24936 
 C                     2.46615  -1.33696  -0.25325 
 C                     1.10475  -1.14208  -0.44515 
 H                    -2.9712   -1.7818    0.31535 
 H                    -3.24592  -1.49656   2.12983 
 H                    -1.69465   0.46109   2.0082 
 H                     0.87216   2.09149   0.57448 
 H                     3.30617   1.72924   0.93393 
 H                     4.31507  -0.4626    0.39551 
 H                     2.91233  -2.28998  -0.502 
 H                     0.48046  -1.92446  -0.85178 
 
                    Distance matrix (angstroms):
                    1          2          3          4          5
     1  C    0.000000
     2  C    1.321388   0.000000
     3  S    2.714239   1.788543   0.000000
     4  O    2.932139   2.637516   1.458729   0.000000
     5  O    3.691506   2.613800   1.459246   2.538669   0.000000
     6  C    3.799296   2.820936   1.796666   2.644185   2.637045
     7  C    4.785393   3.610188   2.755235   3.870399   2.961241
     8  C    5.888023   4.798126   4.048326   5.003111   4.336989
     9  C    6.157413   5.279370   4.556924   5.200660   5.188811
    10  C    5.428367   4.776151   4.049547   4.364196   5.006943
    11  C    4.204098   3.581313   2.758706   2.996005   3.882570
    12  H    1.081680   2.092499   2.856880   2.507294   3.975041
    13  H    1.081862   2.094488   3.724670   4.010288   4.575450
    14  H    2.135631   1.081447   2.436866   3.582380   2.834615
    15  H    4.947563   3.658971   2.871521   4.170447   2.551031
    16  H    6.745494   5.586672   4.898246   5.953225   4.945257
    17  H    7.160750   6.311620   5.638494   6.249545   6.237244
    18  H    6.022788   5.553788   4.900665   4.982037   5.964735
    19  H    3.906078   3.608194   2.879231   2.611751   4.200525
                    6          7          8          9         10
     6  C    0.000000
     7  C    1.390077   0.000000
     8  C    2.394904   1.389907   0.000000
     9  C    2.760264   2.409093   1.390702   0.000000
    10  C    2.394324   2.790457   2.413847   1.391824   0.000000
    11  C    1.390685   2.426635   2.790780   2.409177   1.388604
    12  H    4.013896   5.194468   6.278906   6.398905   5.485074
    13  H    4.694310   5.562951   6.600543   6.871225   6.191317
    14  H    3.120803   3.504616   4.641019   5.308511   5.065519
    15  H    2.142697   1.080363   2.157927   3.395890   3.870428
    16  H    3.376703   2.143039   1.081276   2.148091   3.393607
    17  H    3.841835   3.387790   2.144973   1.081573   2.145671
    18  H    3.376372   3.871706   3.393227   2.148774   1.081290
    19  H    2.144512   3.399268   3.870878   3.395402   2.155550
                   11         12         13         14         15
    11  C    0.000000
    12  H    4.195352   0.000000
    13  H    5.067991   1.857199   0.000000
    14  H    4.052868   3.086402   2.500727   0.000000
    15  H    3.398488   5.462689   5.679077   3.361895   0.000000
    16  H    3.872022   7.219098   7.400396   5.269770   2.486931
    17  H    3.387415   7.405170   7.825960   6.290533   4.290575
    18  H    2.142013   5.961729   6.743893   5.923998   4.951599
    19  H    1.080377   3.646437   4.791560   4.312943   4.279663
                   16         17         18         19
    16  H    0.000000
    17  H    2.472228   0.000000
    18  H    4.286148   2.472356   0.000000
    19  H    4.952061   4.289181   2.483935   0.000000
 Symmetry turned off by external request.
 Rotational constants (GHZ):           1.9476325           0.6797487           0.6214527
   329 basis functions,   599 primitive gaussians,   351 cartesian basis functions
    44 alpha electrons       44 beta electrons
       nuclear repulsion energy       702.1922471414 Hartrees.
 NAtoms=   19 NActive=   19 NUniq=   19 SFac= 1.00D+00 NAtFMM=   60 NAOKFM=F Big=F
 ExpMin= 2.97D-02 ExpMax= 1.11D+05 ExpMxC= 1.07D+03 IAcc=3 IRadAn=         5 AccDes= 0.00D+00
 Harris functional with IExCor=  205 and IRadAn=       5 diagonalized for initial guess.
 HarFok:  IExCor=  205 AccDes= 0.00D+00 IRadAn=         5 IDoV= 1 UseB2=F ITyADJ=14
 ICtDFT=  3500011 ScaDFX=  1.000000  1.000000  1.000000  1.000000
 FoFCou: FMM=F IPFlag=           0 FMFlag=      100000 FMFlg1=           0
         NFxFlg=           0 DoJE=T BraDBF=F KetDBF=T FulRan=T
         wScrn=  0.000000 ICntrl=       500 IOpCl=  0 I1Cent=   200000004 NGrid=           0
         NMat0=    1 NMatS0=      1 NMatT0=    0 NMatD0=    1 NMtDS0=    0 NMtDT0=    0
 Symmetry not used in FoFCou.
 SCF Done:  E(RHF) =  -854.805087485     A.U. after   16 cycles
            NFock= 16  Conv=0.41D-08     -V/T= 2.0007

 **********************************************************************

            Population analysis using the SCF Density.

 **********************************************************************

 Alpha  occ. eigenvalues --  -92.20306 -20.55427 -20.55203 -11.28605 -11.28480
 Alpha  occ. eigenvalues --  -11.27941 -11.27179 -11.27162 -11.26905 -11.26313
 Alpha  occ. eigenvalues --  -11.26295  -9.17502  -6.86053  -6.85919  -6.85876
 Alpha  occ. eigenvalues --   -1.45153  -1.33859  -1.18757  -1.09940  -1.05858
 Alpha  occ. eigenvalues --   -1.04691  -0.93454  -0.85774  -0.84947  -0.78735
 Alpha  occ. eigenvalues --   -0.73920  -0.70327  -0.67143  -0.66731  -0.65315
 Alpha  occ. eigenvalues --   -0.64003  -0.61937  -0.61636  -0.57549  -0.54710
 Alpha  occ. eigenvalues --   -0.53397  -0.52246  -0.49655  -0.48994  -0.46983
 Alpha  occ. eigenvalues --   -0.43739  -0.42389  -0.36652  -0.36146
 Alpha virt. eigenvalues --    0.02828   0.03396   0.03784   0.04889   0.05282
 Alpha virt. eigenvalues --    0.06265   0.06707   0.07148   0.07695   0.09162
 Alpha virt. eigenvalues --    0.09707   0.09932   0.11172   0.11643   0.12797
 Alpha virt. eigenvalues --    0.12924   0.13777   0.13829   0.14087   0.14956
 Alpha virt. eigenvalues --    0.14979   0.15160   0.15609   0.15896   0.16273
 Alpha virt. eigenvalues --    0.16859   0.17205   0.17741   0.17894   0.18471
 Alpha virt. eigenvalues --    0.19534   0.20029   0.20142   0.20449   0.21555
 Alpha virt. eigenvalues --    0.22165   0.23694   0.24195   0.25749   0.25937
 Alpha virt. eigenvalues --    0.26199   0.27268   0.28267   0.28736   0.29637
 Alpha virt. eigenvalues --    0.30458   0.30560   0.30840   0.31959   0.32674
 Alpha virt. eigenvalues --    0.32901   0.33174   0.33714   0.34276   0.34535
 Alpha virt. eigenvalues --    0.35342   0.36017   0.36303   0.37008   0.37248
 Alpha virt. eigenvalues --    0.37723   0.38391   0.38844   0.39813   0.40482
 Alpha virt. eigenvalues --    0.41245   0.41527   0.42436   0.42989   0.43633
 Alpha virt. eigenvalues --    0.44204   0.45062   0.45261   0.46034   0.46665
 Alpha virt. eigenvalues --    0.47335   0.48511   0.50130   0.51139   0.51666
 Alpha virt. eigenvalues --    0.51865   0.53434   0.54573   0.55290   0.55931
 Alpha virt. eigenvalues --    0.57438   0.57770   0.58978   0.59295   0.59771
 Alpha virt. eigenvalues --    0.60297   0.60861   0.61636   0.62545   0.63670
 Alpha virt. eigenvalues --    0.63905   0.64880   0.65198   0.66063   0.66491
 Alpha virt. eigenvalues --    0.67249   0.67481   0.68162   0.68561   0.69030
 Alpha virt. eigenvalues --    0.69983   0.70645   0.71310   0.71784   0.72667
 Alpha virt. eigenvalues --    0.73728   0.74469   0.74727   0.75454   0.76587
 Alpha virt. eigenvalues --    0.77412   0.78041   0.80018   0.81320   0.81542
 Alpha virt. eigenvalues --    0.83387   0.85041   0.85230   0.85565   0.86667
 Alpha virt. eigenvalues --    0.87564   0.88385   0.89190   0.89984   0.90601
 Alpha virt. eigenvalues --    0.91817   0.92540   0.93009   0.93776   0.94252
 Alpha virt. eigenvalues --    0.95219   0.97121   0.97793   0.98358   0.99359
 Alpha virt. eigenvalues --    1.00308   1.02166   1.02545   1.03318   1.06063
 Alpha virt. eigenvalues --    1.07586   1.08071   1.09898   1.10809   1.12784
 Alpha virt. eigenvalues --    1.16411   1.17648   1.18748   1.20347   1.21763
 Alpha virt. eigenvalues --    1.22840   1.24860   1.25838   1.25982   1.26539
 Alpha virt. eigenvalues --    1.27436   1.33342   1.34579   1.35761   1.37681
 Alpha virt. eigenvalues --    1.39541   1.41276   1.42164   1.44229   1.46432
 Alpha virt. eigenvalues --    1.47875   1.48541   1.50083   1.50577   1.51429
 Alpha virt. eigenvalues --    1.52014   1.53791   1.55641   1.57543   1.58544
 Alpha virt. eigenvalues --    1.59017   1.60834   1.61149   1.61663   1.62404
 Alpha virt. eigenvalues --    1.62949   1.64050   1.64722   1.65279   1.67512
 Alpha virt. eigenvalues --    1.68579   1.70034   1.70672   1.72242   1.73428
 Alpha virt. eigenvalues --    1.73793   1.74628   1.76316   1.77899   1.79951
 Alpha virt. eigenvalues --    1.81520   1.83265   1.84156   1.87162   1.87497
 Alpha virt. eigenvalues --    1.89198   1.91954   1.92640   1.93660   1.94286
 Alpha virt. eigenvalues --    1.94788   1.95475   1.96296   1.97560   1.98715
 Alpha virt. eigenvalues --    2.00758   2.01954   2.05838   2.06229   2.07546
 Alpha virt. eigenvalues --    2.09316   2.09870   2.10915   2.12032   2.13032
 Alpha virt. eigenvalues --    2.13879   2.15840   2.17668   2.20513   2.21954
 Alpha virt. eigenvalues --    2.22438   2.23262   2.26362   2.28513   2.29871
 Alpha virt. eigenvalues --    2.30611   2.31609   2.32968   2.35103   2.37224
 Alpha virt. eigenvalues --    2.37927   2.40038   2.41172   2.42668   2.44847
 Alpha virt. eigenvalues --    2.47365   2.49861   2.52734   2.60981   2.62558
 Alpha virt. eigenvalues --    2.62800   2.69425   2.73444   2.76415   2.79712
 Alpha virt. eigenvalues --    2.81203   2.82873   2.85068   2.92216   2.94959
 Alpha virt. eigenvalues --    2.96654   2.99430   3.10840   3.14930   3.20859
 Alpha virt. eigenvalues --    3.25139   3.27170   3.29131   3.32956   3.35610
 Alpha virt. eigenvalues --    3.53468   3.56926   3.64737   3.76740   3.77244
 Alpha virt. eigenvalues --    3.79795   3.81130   3.82614   3.83327   3.84659
 Alpha virt. eigenvalues --    3.87046   3.90764   3.94450   4.05289   4.71984
          Condensed to atoms (all electrons):
 Mulliken charges:
               1
     1  C    0.488043
     2  C    0.089002
     3  S    3.186214
     4  O   -1.297855
     5  O   -1.280394
     6  C    0.824053
     7  C   -0.190393
     8  C    0.639691
     9  C    0.344933
    10  C    0.571391
    11  C   -0.070880
    12  H   -0.246589
    13  H   -0.226079
    14  H   -0.437185
    15  H   -0.543691
    16  H   -0.437307
    17  H   -0.437858
    18  H   -0.440949
    19  H   -0.534146
 Sum of Mulliken charges =  -0.00000
 Mulliken charges with hydrogens summed into heavy atoms:
               1
     1  C    0.015375
     2  C   -0.348183
     3  S    3.186214
     4  O   -1.297855
     5  O   -1.280394
     6  C    0.824053
     7  C   -0.734084
     8  C    0.202384
     9  C   -0.092925
    10  C    0.130442
    11  C   -0.605026
 Electronic spatial extent (au):  <R**2>=           1945.6638
 Charge=             -0.0000 electrons
 Dipole moment (field-independent basis, Debye):
    X=              2.8841    Y=             -2.5218    Z=              4.1084  Tot=              5.6176
 NROrb=    329 NOA=    44 NOB=    44 NVA=   285 NVB=   285

 **** Warning!!: The largest alpha MO coefficient is  0.13670863D+03

    12 initial guesses have been made.
 Iteration     1 Dimension    12 NMult     0 NNew     12
 New state      1 was old state      4
 Iteration     2 Dimension    24 NMult    12 NNew     12
 Iteration     3 Dimension    27 NMult    24 NNew      3
 Iteration     4 Dimension    30 NMult    27 NNew      3
 Iteration     5 Dimension    33 NMult    30 NNew      3
 ***********************************************************************
 Stability analysis using <AA,BB:AA,BB> singles matrix:
 ***********************************************************************
 Ground to excited state transition densities written to RWF  633

 Eigenvectors of the stability matrix:
 
 Excited state symmetry could not be determined.
 Eigenvector   1:      Singlet-?Sym  Eigenvalue= 0.1683140  <S**2>=0.000
      43 -> 54         0.40968
      44 -> 50         0.35180
      44 -> 51        -0.16247
      44 -> 52        -0.10928
      44 -> 53         0.13888
      44 -> 55         0.13734
      44 -> 56        -0.18010
 The wavefunction is stable under the perturbations considered.
 The wavefunction is already stable.

 **********************************************************************

            Population analysis using the SCF Density.

 **********************************************************************

 Alpha  occ. eigenvalues --  -92.20306 -20.55427 -20.55203 -11.28605 -11.28480
 Alpha  occ. eigenvalues --  -11.27941 -11.27179 -11.27162 -11.26905 -11.26313
 Alpha  occ. eigenvalues --  -11.26295  -9.17502  -6.86053  -6.85919  -6.85876
 Alpha  occ. eigenvalues --   -1.45153  -1.33859  -1.18757  -1.09940  -1.05858
 Alpha  occ. eigenvalues --   -1.04691  -0.93454  -0.85774  -0.84947  -0.78735
 Alpha  occ. eigenvalues --   -0.73920  -0.70327  -0.67143  -0.66731  -0.65315
 Alpha  occ. eigenvalues --   -0.64003  -0.61937  -0.61636  -0.57549  -0.54710
 Alpha  occ. eigenvalues --   -0.53397  -0.52246  -0.49655  -0.48994  -0.46983
 Alpha  occ. eigenvalues --   -0.43739  -0.42389  -0.36652  -0.36146
 Alpha virt. eigenvalues --    0.02828   0.03396   0.03784   0.04889   0.05282
 Alpha virt. eigenvalues --    0.06265   0.06707   0.07148   0.07695   0.09162
 Alpha virt. eigenvalues --    0.09707   0.09932   0.11172   0.11643   0.12797
 Alpha virt. eigenvalues --    0.12924   0.13777   0.13829   0.14087   0.14956
 Alpha virt. eigenvalues --    0.14979   0.15160   0.15609   0.15896   0.16273
 Alpha virt. eigenvalues --    0.16859   0.17205   0.17741   0.17894   0.18471
 Alpha virt. eigenvalues --    0.19534   0.20029   0.20142   0.20449   0.21555
 Alpha virt. eigenvalues --    0.22165   0.23694   0.24195   0.25749   0.25937
 Alpha virt. eigenvalues --    0.26199   0.27268   0.28267   0.28736   0.29637
 Alpha virt. eigenvalues --    0.30458   0.30560   0.30840   0.31959   0.32674
 Alpha virt. eigenvalues --    0.32901   0.33174   0.33714   0.34276   0.34535
 Alpha virt. eigenvalues --    0.35342   0.36017   0.36303   0.37008   0.37248
 Alpha virt. eigenvalues --    0.37723   0.38391   0.38844   0.39813   0.40482
 Alpha virt. eigenvalues --    0.41245   0.41527   0.42436   0.42989   0.43633
 Alpha virt. eigenvalues --    0.44204   0.45062   0.45261   0.46034   0.46665
 Alpha virt. eigenvalues --    0.47335   0.48511   0.50130   0.51139   0.51666
 Alpha virt. eigenvalues --    0.51865   0.53434   0.54573   0.55290   0.55931
 Alpha virt. eigenvalues --    0.57438   0.57770   0.58978   0.59295   0.59771
 Alpha virt. eigenvalues --    0.60297   0.60861   0.61636   0.62545   0.63670
 Alpha virt. eigenvalues --    0.63905   0.64880   0.65198   0.66063   0.66491
 Alpha virt. eigenvalues --    0.67249   0.67481   0.68162   0.68561   0.69030
 Alpha virt. eigenvalues --    0.69983   0.70645   0.71310   0.71784   0.72667
 Alpha virt. eigenvalues --    0.73728   0.74469   0.74727   0.75454   0.76587
 Alpha virt. eigenvalues --    0.77412   0.78041   0.80018   0.81320   0.81542
 Alpha virt. eigenvalues --    0.83387   0.85041   0.85230   0.85565   0.86667
 Alpha virt. eigenvalues --    0.87564   0.88385   0.89190   0.89984   0.90601
 Alpha virt. eigenvalues --    0.91817   0.92540   0.93009   0.93776   0.94252
 Alpha virt. eigenvalues --    0.95219   0.97121   0.97793   0.98358   0.99359
 Alpha virt. eigenvalues --    1.00308   1.02166   1.02545   1.03318   1.06063
 Alpha virt. eigenvalues --    1.07586   1.08071   1.09898   1.10809   1.12784
 Alpha virt. eigenvalues --    1.16411   1.17648   1.18748   1.20347   1.21763
 Alpha virt. eigenvalues --    1.22840   1.24860   1.25838   1.25982   1.26539
 Alpha virt. eigenvalues --    1.27436   1.33342   1.34579   1.35761   1.37681
 Alpha virt. eigenvalues --    1.39541   1.41276   1.42164   1.44229   1.46432
 Alpha virt. eigenvalues --    1.47875   1.48541   1.50083   1.50577   1.51429
 Alpha virt. eigenvalues --    1.52014   1.53791   1.55641   1.57543   1.58544
 Alpha virt. eigenvalues --    1.59017   1.60834   1.61149   1.61663   1.62404
 Alpha virt. eigenvalues --    1.62949   1.64050   1.64722   1.65279   1.67512
 Alpha virt. eigenvalues --    1.68579   1.70034   1.70672   1.72242   1.73428
 Alpha virt. eigenvalues --    1.73793   1.74628   1.76316   1.77899   1.79951
 Alpha virt. eigenvalues --    1.81520   1.83265   1.84156   1.87162   1.87497
 Alpha virt. eigenvalues --    1.89198   1.91954   1.92640   1.93660   1.94286
 Alpha virt. eigenvalues --    1.94788   1.95475   1.96296   1.97560   1.98715
 Alpha virt. eigenvalues --    2.00758   2.01954   2.05838   2.06229   2.07546
 Alpha virt. eigenvalues --    2.09316   2.09870   2.10915   2.12032   2.13032
 Alpha virt. eigenvalues --    2.13879   2.15840   2.17668   2.20513   2.21954
 Alpha virt. eigenvalues --    2.22438   2.23262   2.26362   2.28513   2.29871
 Alpha virt. eigenvalues --    2.30611   2.31609   2.32968   2.35103   2.37224
 Alpha virt. eigenvalues --    2.37927   2.40038   2.41172   2.42668   2.44847
 Alpha virt. eigenvalues --    2.47365   2.49861   2.52734   2.60981   2.62558
 Alpha virt. eigenvalues --    2.62800   2.69425   2.73444   2.76415   2.79712
 Alpha virt. eigenvalues --    2.81203   2.82873   2.85068   2.92216   2.94959
 Alpha virt. eigenvalues --    2.96654   2.99430   3.10840   3.14930   3.20859
 Alpha virt. eigenvalues --    3.25139   3.27170   3.29131   3.32956   3.35610
 Alpha virt. eigenvalues --    3.53468   3.56926   3.64737   3.76740   3.77244
 Alpha virt. eigenvalues --    3.79795   3.81130   3.82614   3.83327   3.84659
 Alpha virt. eigenvalues --    3.87046   3.90764   3.94450   4.05289   4.71984
          Condensed to atoms (all electrons):
 Mulliken charges:
               1
     1  C    0.488043
     2  C    0.089002
     3  S    3.186214
     4  O   -1.297855
     5  O   -1.280394
     6  C    0.824053
     7  C   -0.190393
     8  C    0.639691
     9  C    0.344933
    10  C    0.571391
    11  C   -0.070880
    12  H   -0.246589
    13  H   -0.226079
    14  H   -0.437185
    15  H   -0.543691
    16  H   -0.437307
    17  H   -0.437858
    18  H   -0.440949
    19  H   -0.534146
 Sum of Mulliken charges =  -0.00000
 Mulliken charges with hydrogens summed into heavy atoms:
               1
     1  C    0.015375
     2  C   -0.348183
     3  S    3.186214
     4  O   -1.297855
     5  O   -1.280394
     6  C    0.824053
     7  C   -0.734084
     8  C    0.202384
     9  C   -0.092925
    10  C    0.130442
    11  C   -0.605026
 Electronic spatial extent (au):  <R**2>=           1945.6638
 Charge=             -0.0000 electrons
 Dipole moment (field-independent basis, Debye):
    X=              2.8841    Y=             -2.5218    Z=              4.1084  Tot=              5.6176
 Unable to Open any file for archive entry.
 1\1\GINC-SE199\Stability\RHF\Aug-CC-pVDZ\C8H8O2S1\OHZDE\05-Apr-2025\0\
 \#t hf aug-cc-pvdz symm=none int=(grid=ultrafine) guess=(read,tcheck) 
 stable=(opt,rrhf)\\title\\0,1\C,0,-2.760426,-1.207325,1.207306\C,0,-1.
 942526,-0.170313,1.165936\S,0,-1.209568,0.357864,-0.37766\O,0,-1.66148
 2,-0.546197,-1.429486\O,0,-1.432644,1.796435,-0.478409\C,0,0.549958,0.
 093229,-0.128571\C,0,1.327317,1.134136,0.365938\C,0,2.688495,0.926492,
 0.55546\C,0,3.254893,-0.306208,0.24936\C,0,2.466154,-1.336958,-0.25325
 2\C,0,1.10475,-1.142081,-0.445145\H,0,-2.971203,-1.781796,0.315349\H,0
 ,-3.245923,-1.496562,2.129835\H,0,-1.694653,0.46109,2.008205\H,0,0.872
 163,2.091493,0.574475\H,0,3.306169,1.729235,0.933931\H,0,4.315074,-0.4
 62596,0.395508\H,0,2.912325,-2.289975,-0.502003\H,0,0.480456,-1.924459
 ,-0.851784\\Version=ES64L-G16RevC.01\HF=-854.8050875\RMSD=4.079e-09\Di
 pole=1.1347081,-0.9921637,1.616379\Quadrupole=4.9913185,-1.1705061,-3.
 8208124,4.414205,-5.7401944,1.8597925\PG=Unknown\\@
 The archive entry for this job was punched.


 ALL MEN WHO EXPLORE
 DEPLORE
 THAT FRUSTRATING HURDLE
 THE GIRDLE.

         -- COLIN FLETCHER
 Job cpu time:       0 days  0 hours 28 minutes 52.3 seconds.
 Elapsed time:       0 days  0 hours  2 minutes  0.2 seconds.
 File lengths (MBytes):  RWF=    511 Int=      0 D2E=      0 Chk=     15 Scr=      1
 Normal termination of Gaussian 16 at Sat Apr  5 23:18:15 2025.
 Initial command:
 /arc/software/Gaussian/g16.c01/l1.exe "/tmp/slurm/4817218/Gau-1195387.inp" -scrdir="/tmp/slurm/4817218/"
 Entering Link 1 = /arc/software/Gaussian/g16.c01/l1.exe PID=   1195994.
  
 Copyright (c) 1988-2019, Gaussian, Inc.  All Rights Reserved.
  
 This is part of the Gaussian(R) 16 program.  It is based on
 the Gaussian(R) 09 system (copyright 2009, Gaussian, Inc.),
 the Gaussian(R) 03 system (copyright 2003, Gaussian, Inc.),
 the Gaussian(R) 98 system (copyright 1998, Gaussian, Inc.),
 the Gaussian(R) 94 system (copyright 1995, Gaussian, Inc.),
 the Gaussian 92(TM) system (copyright 1992, Gaussian, Inc.),
 the Gaussian 90(TM) system (copyright 1990, Gaussian, Inc.),
 the Gaussian 88(TM) system (copyright 1988, Gaussian, Inc.),
 the Gaussian 86(TM) system (copyright 1986, Carnegie Mellon
 University), and the Gaussian 82(TM) system (copyright 1983,
 Carnegie Mellon University). Gaussian is a federally registered
 trademark of Gaussian, Inc.
  
 This software contains proprietary and confidential information,
 including trade secrets, belonging to Gaussian, Inc.
  
 This software is provided under written license and may be
 used, copied, transmitted, or stored only in accord with that
 written license.
  
 The following legend is applicable only to US Government
 contracts under FAR:
  
                    RESTRICTED RIGHTS LEGEND
  
 Use, reproduction and disclosure by the US Government is
 subject to restrictions as set forth in subparagraphs (a)
 and (c) of the Commercial Computer Software - Restricted
 Rights clause in FAR 52.227-19.
  
 Gaussian, Inc.
 340 Quinnipiac St., Bldg. 40, Wallingford CT 06492
  
  
 ---------------------------------------------------------------
 Warning -- This program may not be used in any manner that
 competes with the business of Gaussian, Inc. or will provide
 assistance to any competitor of Gaussian, Inc.  The licensee
 of this program is prohibited from giving any competitor of
 Gaussian, Inc. access to this program.  By using this program,
 the user acknowledges that Gaussian, Inc. is engaged in the
 business of creating and licensing software in the field of
 computational chemistry and represents and warrants to the
 licensee that it is not a competitor of Gaussian, Inc. and that
 it will not use this program in any manner prohibited above.
 ---------------------------------------------------------------
  

 Cite this work as:
 Gaussian 16, Revision C.01,
 M. J. Frisch, G. W. Trucks, H. B. Schlegel, G. E. Scuseria, 
 M. A. Robb, J. R. Cheeseman, G. Scalmani, V. Barone, 
 G. A. Petersson, H. Nakatsuji, X. Li, M. Caricato, A. V. Marenich, 
 J. Bloino, B. G. Janesko, R. Gomperts, B. Mennucci, H. P. Hratchian, 
 J. V. Ortiz, A. F. Izmaylov, J. L. Sonnenberg, D. Williams-Young, 
 F. Ding, F. Lipparini, F. Egidi, J. Goings, B. Peng, A. Petrone, 
 T. Henderson, D. Ranasinghe, V. G. Zakrzewski, J. Gao, N. Rega, 
 G. Zheng, W. Liang, M. Hada, M. Ehara, K. Toyota, R. Fukuda, 
 J. Hasegawa, M. Ishida, T. Nakajima, Y. Honda, O. Kitao, H. Nakai, 
 T. Vreven, K. Throssell, J. A. Montgomery, Jr., J. E. Peralta, 
 F. Ogliaro, M. J. Bearpark, J. J. Heyd, E. N. Brothers, K. N. Kudin, 
 V. N. Staroverov, T. A. Keith, R. Kobayashi, J. Normand, 
 K. Raghavachari, A. P. Rendell, J. C. Burant, S. S. Iyengar, 
 J. Tomasi, M. Cossi, J. M. Millam, M. Klene, C. Adamo, R. Cammi, 
 J. W. Ochterski, R. L. Martin, K. Morokuma, O. Farkas, 
 J. B. Foresman, and D. J. Fox, Gaussian, Inc., Wallingford CT, 2019.
 
 ******************************************
 Gaussian 16:  ES64L-G16RevC.01  3-Jul-2019
                 5-Apr-2025 
 ******************************************
 %nprocs=16
 Will use up to   16 processors via shared memory.
 %mem=30GB
 %chk=vinylsulfonylbenzene.chk
 ----------------------------------------------------------------------
 #t hf aug-cc-pvdz iop(5/13=1,5/36=2,99/5=2) pseudo=read geom=check gue
 ss=(read,tcheck) scf=(maxcycle=1)
 ----------------------------------------------------------------------
 -----
 title
 -----
 Structure from the checkpoint file:  "vinylsulfonylbenzene.chk"
 Charge =  0 Multiplicity = 1
 Z-Matrix found in chk file.
 C,0,-2.760426,-1.207325,1.207306
 C,0,-1.942526,-0.170313,1.165936
 S,0,-1.209568,0.357864,-0.37766
 O,0,-1.661482,-0.546197,-1.429486
 O,0,-1.432644,1.796435,-0.478409
 C,0,0.549958,0.093229,-0.128571
 C,0,1.327317,1.134136,0.365938
 C,0,2.688495,0.926492,0.55546
 C,0,3.254893,-0.306208,0.24936
 C,0,2.466154,-1.336958,-0.253252
 C,0,1.10475,-1.142081,-0.445145
 H,0,-2.971203,-1.781796,0.315349
 H,0,-3.245923,-1.496562,2.129835
 H,0,-1.694653,0.46109,2.008205
 H,0,0.872163,2.091493,0.574475
 H,0,3.306169,1.729235,0.933931
 H,0,4.315074,-0.462596,0.395508
 H,0,2.912325,-2.289975,-0.502003
 H,0,0.480456,-1.924459,-0.851784
 Recover connectivity data from disk.
                    Distance matrix (angstroms):
                    1          2          3          4          5
     1  C    0.000000
     2  C    1.321388   0.000000
     3  S    2.714239   1.788543   0.000000
     4  O    2.932139   2.637516   1.458729   0.000000
     5  O    3.691506   2.613800   1.459246   2.538669   0.000000
     6  C    3.799296   2.820936   1.796666   2.644185   2.637045
     7  C    4.785393   3.610188   2.755235   3.870399   2.961241
     8  C    5.888023   4.798126   4.048326   5.003111   4.336989
     9  C    6.157413   5.279370   4.556924   5.200660   5.188811
    10  C    5.428367   4.776151   4.049547   4.364196   5.006943
    11  C    4.204098   3.581313   2.758706   2.996005   3.882570
    12  H    1.081680   2.092499   2.856880   2.507294   3.975041
    13  H    1.081862   2.094488   3.724670   4.010288   4.575450
    14  H    2.135631   1.081447   2.436866   3.582380   2.834615
    15  H    4.947563   3.658971   2.871521   4.170447   2.551031
    16  H    6.745494   5.586672   4.898246   5.953225   4.945257
    17  H    7.160750   6.311620   5.638494   6.249545   6.237244
    18  H    6.022788   5.553788   4.900665   4.982037   5.964735
    19  H    3.906078   3.608194   2.879231   2.611751   4.200525
                    6          7          8          9         10
     6  C    0.000000
     7  C    1.390077   0.000000
     8  C    2.394904   1.389907   0.000000
     9  C    2.760264   2.409093   1.390702   0.000000
    10  C    2.394324   2.790457   2.413847   1.391824   0.000000
    11  C    1.390685   2.426635   2.790780   2.409177   1.388604
    12  H    4.013896   5.194468   6.278906   6.398905   5.485074
    13  H    4.694310   5.562951   6.600543   6.871225   6.191317
    14  H    3.120803   3.504616   4.641019   5.308511   5.065519
    15  H    2.142697   1.080363   2.157927   3.395890   3.870428
    16  H    3.376703   2.143039   1.081276   2.148091   3.393607
    17  H    3.841835   3.387790   2.144973   1.081573   2.145671
    18  H    3.376372   3.871706   3.393227   2.148774   1.081290
    19  H    2.144512   3.399268   3.870878   3.395402   2.155550
                   11         12         13         14         15
    11  C    0.000000
    12  H    4.195352   0.000000
    13  H    5.067991   1.857199   0.000000
    14  H    4.052868   3.086402   2.500727   0.000000
    15  H    3.398488   5.462689   5.679077   3.361895   0.000000
    16  H    3.872022   7.219098   7.400396   5.269770   2.486931
    17  H    3.387415   7.405170   7.825960   6.290533   4.290575
    18  H    2.142013   5.961729   6.743893   5.923998   4.951599
    19  H    1.080377   3.646437   4.791560   4.312943   4.279663
                   16         17         18         19
    16  H    0.000000
    17  H    2.472228   0.000000
    18  H    4.286148   2.472356   0.000000
    19  H    4.952061   4.289181   2.483935   0.000000
 Framework group  C1[X(C8H8O2S)]
 Deg. of freedom    51
                         Standard orientation:                         
 ---------------------------------------------------------------------
 Center     Atomic      Atomic             Coordinates (Angstroms)
 Number     Number       Type             X           Y           Z
 ---------------------------------------------------------------------
      1          6           0       -2.760426   -1.207325    1.207306
      2          6           0       -1.942526   -0.170313    1.165936
      3         16           0       -1.209568    0.357864   -0.377660
      4          8           0       -1.661482   -0.546197   -1.429486
      5          8           0       -1.432644    1.796435   -0.478409
      6          6           0        0.549958    0.093229   -0.128571
      7          6           0        1.327317    1.134136    0.365938
      8          6           0        2.688495    0.926492    0.555460
      9          6           0        3.254893   -0.306208    0.249360
     10          6           0        2.466154   -1.336958   -0.253252
     11          6           0        1.104750   -1.142081   -0.445145
     12          1           0       -2.971203   -1.781796    0.315349
     13          1           0       -3.245923   -1.496562    2.129835
     14          1           0       -1.694653    0.461090    2.008205
     15          1           0        0.872163    2.091493    0.574475
     16          1           0        3.306169    1.729235    0.933931
     17          1           0        4.315074   -0.462595    0.395508
     18          1           0        2.912325   -2.289975   -0.502003
     19          1           0        0.480456   -1.924459   -0.851784
 ---------------------------------------------------------------------
 Rotational constants (GHZ):           1.9476325           0.6797487           0.6214527
 ======================================================================================================
                                       Pseudopotential Parameters
 ======================================================================================================
  Center     Atomic      Valence      Angular      Power
  Number     Number     Electrons     Momentum     of R      Exponent        Coefficient   SO-Coeffient
 ======================================================================================================
    1          6            6
                                      G and up 
                                                     0        0.0000010       -0.00011185    0.00000000
                                                     2        0.1200000       -0.02301220    0.00000000
                                                     2        0.1400000        0.13317600    0.00000000
                                                     2        0.1600000       -0.19690668    0.00000000
                                                     2        0.2200000        0.23163694    0.00000000
                                                     2        0.3000000       -0.36920489    0.00000000
                                                     2        0.4000000        0.36389709    0.00000000
                                                     2        0.7000000       -0.38862160    0.00000000
                                                     2        1.3000000        0.80803421    0.00000000
                                      S - G
                                                     0        0.0000010        0.00312304    0.00000000
                                                     2        0.1200000       -0.00632892    0.00000000
                                                     2        0.2200000       -0.03780897    0.00000000
                                                     2        0.4000000        0.26269560    0.00000000
                                                     2        0.9000000       -0.28209514    0.00000000
                                                     2        1.5000000       -0.72686737    0.00000000
                                      P - G
                                                     0        0.0000010       -0.01465594    0.00000000
                                                     2        0.1200000        0.07908409    0.00000000
                                                     2        0.1800000       -0.30615861    0.00000000
                                                     2        0.2600000        0.41506950    0.00000000
                                                     2        0.5000000       -0.36252345    0.00000000
                                                     2        0.9000000        0.15124193    0.00000000
                                                     2        3.0000000       -0.80425677    0.00000000
                                      D - G
                                                     0        0.0000010        0.01149631    0.00000000
                                                     2        0.1200000       -0.04713561    0.00000000
                                                     2        0.1600000        0.10865096    0.00000000
                                                     2        0.2800000       -0.15816701    0.00000000
                                                     2        0.7000000        0.65478804    0.00000000
                                                     2        1.3000000       -1.73816624    0.00000000
                                      F - G
                                                     0        0.0000010        0.00481868    0.00000000
                                                     2        0.1200000       -0.04746842    0.00000000
                                                     2        0.1600000        0.09327889    0.00000000
                                                     2        0.4000000       -0.19693326    0.00000000
                                                     2        0.9000000        0.34938253    0.00000000
    2          6            6
                                      G and up 
                                                     0        0.0000010       -0.00011185    0.00000000
                                                     2        0.1200000       -0.02301220    0.00000000
                                                     2        0.1400000        0.13317600    0.00000000
                                                     2        0.1600000       -0.19690668    0.00000000
                                                     2        0.2200000        0.23163694    0.00000000
                                                     2        0.3000000       -0.36920489    0.00000000
                                                     2        0.4000000        0.36389709    0.00000000
                                                     2        0.7000000       -0.38862160    0.00000000
                                                     2        1.3000000        0.80803421    0.00000000
                                      S - G
                                                     0        0.0000010        0.00312304    0.00000000
                                                     2        0.1200000       -0.00632892    0.00000000
                                                     2        0.2200000       -0.03780897    0.00000000
                                                     2        0.4000000        0.26269560    0.00000000
                                                     2        0.9000000       -0.28209514    0.00000000
                                                     2        1.5000000       -0.72686737    0.00000000
                                      P - G
                                                     0        0.0000010       -0.01465594    0.00000000
                                                     2        0.1200000        0.07908409    0.00000000
                                                     2        0.1800000       -0.30615861    0.00000000
                                                     2        0.2600000        0.41506950    0.00000000
                                                     2        0.5000000       -0.36252345    0.00000000
                                                     2        0.9000000        0.15124193    0.00000000
                                                     2        3.0000000       -0.80425677    0.00000000
                                      D - G
                                                     0        0.0000010        0.01149631    0.00000000
                                                     2        0.1200000       -0.04713561    0.00000000
                                                     2        0.1600000        0.10865096    0.00000000
                                                     2        0.2800000       -0.15816701    0.00000000
                                                     2        0.7000000        0.65478804    0.00000000
                                                     2        1.3000000       -1.73816624    0.00000000
                                      F - G
                                                     0        0.0000010        0.00481868    0.00000000
                                                     2        0.1200000       -0.04746842    0.00000000
                                                     2        0.1600000        0.09327889    0.00000000
                                                     2        0.4000000       -0.19693326    0.00000000
                                                     2        0.9000000        0.34938253    0.00000000
    3         16           16
                                      G and up 
                                                     0        0.0000010       -0.00108337    0.00000000
                                                     2        0.1200000        0.02393503    0.00000000
                                                     2        0.1400000       -0.04929246    0.00000000
                                                     2        0.2200000        0.11673929    0.00000000
                                                     2        0.3000000       -0.24406081    0.00000000
                                                     2        0.5000000        0.65938599    0.00000000
                                                     2        0.9000000       -2.67146103    0.00000000
                                                     2        1.6000000        1.72231217    0.00000000
                                      S - G
                                                     0        0.0000010       -0.00315363    0.00000000
                                                     2        0.1600000        0.09915567    0.00000000
                                                     2        0.3000000       -0.42531365    0.00000000
                                                     2        0.6000000        1.27985937    0.00000000
                                      P - G
                                                     0        0.0000010        0.05906535    0.00000000
                                                     2        0.1200000       -0.03516302    0.00000000
                                                     2        0.1600000        0.00585339    0.00000000
                                                     2        0.5000000        0.34013084    0.00000000
                                      D - G
                                                     0        0.0000010        0.03484679    0.00000000
                                                     2        0.1200000        0.00763944    0.00000000
                                                     2        0.2400000       -0.16368217    0.00000000
                                                     2        0.7000000        1.04339930    0.00000000
                                      F - G
                                                     0        0.0000010       -0.02227713    0.00000000
                                                     2        0.1200000       -0.15866626    0.00000000
                                                     2        0.1600000        0.42479417    0.00000000
                                                     2        0.2600000       -0.42884495    0.00000000
    4          8            8
                                      G and up 
                                                     0        0.0000010        0.00001165    0.00000000
                                                     2        0.1200000       -0.01744018    0.00000000
                                                     2        0.1400000        0.05401326    0.00000000
                                                     2        0.1800000       -0.08231208    0.00000000
                                                     2        0.2600000        0.11570222    0.00000000
                                                     2        0.4000000       -0.20630360    0.00000000
                                                     2        0.7000000        0.38074319    0.00000000
                                                     2        1.2000000       -0.17045091    0.00000000
                                                     2        2.0000000       -1.45433187    0.00000000
                                      S - G
                                                     0        0.0000010       -0.00117944    0.00000000
                                                     2        0.1400000        0.04368312    0.00000000
                                                     2        0.3000000       -0.33477926    0.00000000
                                                     2        0.6000000        1.52630657    0.00000000
                                                     2        1.5000000       -2.50804716    0.00000000
                                                     2        3.0000000        2.89751681    0.00000000
                                      P - G
                                                     0        0.0000010        0.06576007    0.00000000
                                                     2        0.1200000       -0.10329304    0.00000000
                                                     2        0.2000000        0.24891756    0.00000000
                                                     2        0.4000000       -0.50800022    0.00000000
                                                     2        0.9000000        0.81480796    0.00000000
                                      D - G
                                                     0        0.0000010       -0.14101855    0.00000000
                                                     2        0.1200000        0.22105937    0.00000000
                                                     2        0.1800000       -0.45814988    0.00000000
                                                     2        0.3000000        0.46029282    0.00000000
                                      F - G
                                                     0        0.0000010        0.07483044    0.00000000
                                                     2        0.1200000       -0.09134252    0.00000000
                                                     2        0.1400000        0.04125459    0.00000000
                                                     2        0.3000000        0.37914837    0.00000000
                                                     2        0.5000000       -0.86881279    0.00000000
    5          8            8
                                      G and up 
                                                     0        0.0000010        0.00001165    0.00000000
                                                     2        0.1200000       -0.01744018    0.00000000
                                                     2        0.1400000        0.05401326    0.00000000
                                                     2        0.1800000       -0.08231208    0.00000000
                                                     2        0.2600000        0.11570222    0.00000000
                                                     2        0.4000000       -0.20630360    0.00000000
                                                     2        0.7000000        0.38074319    0.00000000
                                                     2        1.2000000       -0.17045091    0.00000000
                                                     2        2.0000000       -1.45433187    0.00000000
                                      S - G
                                                     0        0.0000010       -0.00117944    0.00000000
                                                     2        0.1400000        0.04368312    0.00000000
                                                     2        0.3000000       -0.33477926    0.00000000
                                                     2        0.6000000        1.52630657    0.00000000
                                                     2        1.5000000       -2.50804716    0.00000000
                                                     2        3.0000000        2.89751681    0.00000000
                                      P - G
                                                     0        0.0000010        0.06576007    0.00000000
                                                     2        0.1200000       -0.10329304    0.00000000
                                                     2        0.2000000        0.24891756    0.00000000
                                                     2        0.4000000       -0.50800022    0.00000000
                                                     2        0.9000000        0.81480796    0.00000000
                                      D - G
                                                     0        0.0000010       -0.14101855    0.00000000
                                                     2        0.1200000        0.22105937    0.00000000
                                                     2        0.1800000       -0.45814988    0.00000000
                                                     2        0.3000000        0.46029282    0.00000000
                                      F - G
                                                     0        0.0000010        0.07483044    0.00000000
                                                     2        0.1200000       -0.09134252    0.00000000
                                                     2        0.1400000        0.04125459    0.00000000
                                                     2        0.3000000        0.37914837    0.00000000
                                                     2        0.5000000       -0.86881279    0.00000000
    6          6            6
                                      G and up 
                                                     0        0.0000010       -0.00011185    0.00000000
                                                     2        0.1200000       -0.02301220    0.00000000
                                                     2        0.1400000        0.13317600    0.00000000
                                                     2        0.1600000       -0.19690668    0.00000000
                                                     2        0.2200000        0.23163694    0.00000000
                                                     2        0.3000000       -0.36920489    0.00000000
                                                     2        0.4000000        0.36389709    0.00000000
                                                     2        0.7000000       -0.38862160    0.00000000
                                                     2        1.3000000        0.80803421    0.00000000
                                      S - G
                                                     0        0.0000010        0.00312304    0.00000000
                                                     2        0.1200000       -0.00632892    0.00000000
                                                     2        0.2200000       -0.03780897    0.00000000
                                                     2        0.4000000        0.26269560    0.00000000
                                                     2        0.9000000       -0.28209514    0.00000000
                                                     2        1.5000000       -0.72686737    0.00000000
                                      P - G
                                                     0        0.0000010       -0.01465594    0.00000000
                                                     2        0.1200000        0.07908409    0.00000000
                                                     2        0.1800000       -0.30615861    0.00000000
                                                     2        0.2600000        0.41506950    0.00000000
                                                     2        0.5000000       -0.36252345    0.00000000
                                                     2        0.9000000        0.15124193    0.00000000
                                                     2        3.0000000       -0.80425677    0.00000000
                                      D - G
                                                     0        0.0000010        0.01149631    0.00000000
                                                     2        0.1200000       -0.04713561    0.00000000
                                                     2        0.1600000        0.10865096    0.00000000
                                                     2        0.2800000       -0.15816701    0.00000000
                                                     2        0.7000000        0.65478804    0.00000000
                                                     2        1.3000000       -1.73816624    0.00000000
                                      F - G
                                                     0        0.0000010        0.00481868    0.00000000
                                                     2        0.1200000       -0.04746842    0.00000000
                                                     2        0.1600000        0.09327889    0.00000000
                                                     2        0.4000000       -0.19693326    0.00000000
                                                     2        0.9000000        0.34938253    0.00000000
    7          6            6
                                      G and up 
                                                     0        0.0000010       -0.00011185    0.00000000
                                                     2        0.1200000       -0.02301220    0.00000000
                                                     2        0.1400000        0.13317600    0.00000000
                                                     2        0.1600000       -0.19690668    0.00000000
                                                     2        0.2200000        0.23163694    0.00000000
                                                     2        0.3000000       -0.36920489    0.00000000
                                                     2        0.4000000        0.36389709    0.00000000
                                                     2        0.7000000       -0.38862160    0.00000000
                                                     2        1.3000000        0.80803421    0.00000000
                                      S - G
                                                     0        0.0000010        0.00312304    0.00000000
                                                     2        0.1200000       -0.00632892    0.00000000
                                                     2        0.2200000       -0.03780897    0.00000000
                                                     2        0.4000000        0.26269560    0.00000000
                                                     2        0.9000000       -0.28209514    0.00000000
                                                     2        1.5000000       -0.72686737    0.00000000
                                      P - G
                                                     0        0.0000010       -0.01465594    0.00000000
                                                     2        0.1200000        0.07908409    0.00000000
                                                     2        0.1800000       -0.30615861    0.00000000
                                                     2        0.2600000        0.41506950    0.00000000
                                                     2        0.5000000       -0.36252345    0.00000000
                                                     2        0.9000000        0.15124193    0.00000000
                                                     2        3.0000000       -0.80425677    0.00000000
                                      D - G
                                                     0        0.0000010        0.01149631    0.00000000
                                                     2        0.1200000       -0.04713561    0.00000000
                                                     2        0.1600000        0.10865096    0.00000000
                                                     2        0.2800000       -0.15816701    0.00000000
                                                     2        0.7000000        0.65478804    0.00000000
                                                     2        1.3000000       -1.73816624    0.00000000
                                      F - G
                                                     0        0.0000010        0.00481868    0.00000000
                                                     2        0.1200000       -0.04746842    0.00000000
                                                     2        0.1600000        0.09327889    0.00000000
                                                     2        0.4000000       -0.19693326    0.00000000
                                                     2        0.9000000        0.34938253    0.00000000
    8          6            6
                                      G and up 
                                                     0        0.0000010       -0.00011185    0.00000000
                                                     2        0.1200000       -0.02301220    0.00000000
                                                     2        0.1400000        0.13317600    0.00000000
                                                     2        0.1600000       -0.19690668    0.00000000
                                                     2        0.2200000        0.23163694    0.00000000
                                                     2        0.3000000       -0.36920489    0.00000000
                                                     2        0.4000000        0.36389709    0.00000000
                                                     2        0.7000000       -0.38862160    0.00000000
                                                     2        1.3000000        0.80803421    0.00000000
                                      S - G
                                                     0        0.0000010        0.00312304    0.00000000
                                                     2        0.1200000       -0.00632892    0.00000000
                                                     2        0.2200000       -0.03780897    0.00000000
                                                     2        0.4000000        0.26269560    0.00000000
                                                     2        0.9000000       -0.28209514    0.00000000
                                                     2        1.5000000       -0.72686737    0.00000000
                                      P - G
                                                     0        0.0000010       -0.01465594    0.00000000
                                                     2        0.1200000        0.07908409    0.00000000
                                                     2        0.1800000       -0.30615861    0.00000000
                                                     2        0.2600000        0.41506950    0.00000000
                                                     2        0.5000000       -0.36252345    0.00000000
                                                     2        0.9000000        0.15124193    0.00000000
                                                     2        3.0000000       -0.80425677    0.00000000
                                      D - G
                                                     0        0.0000010        0.01149631    0.00000000
                                                     2        0.1200000       -0.04713561    0.00000000
                                                     2        0.1600000        0.10865096    0.00000000
                                                     2        0.2800000       -0.15816701    0.00000000
                                                     2        0.7000000        0.65478804    0.00000000
                                                     2        1.3000000       -1.73816624    0.00000000
                                      F - G
                                                     0        0.0000010        0.00481868    0.00000000
                                                     2        0.1200000       -0.04746842    0.00000000
                                                     2        0.1600000        0.09327889    0.00000000
                                                     2        0.4000000       -0.19693326    0.00000000
                                                     2        0.9000000        0.34938253    0.00000000
    9          6            6
                                      G and up 
                                                     0        0.0000010       -0.00011185    0.00000000
                                                     2        0.1200000       -0.02301220    0.00000000
                                                     2        0.1400000        0.13317600    0.00000000
                                                     2        0.1600000       -0.19690668    0.00000000
                                                     2        0.2200000        0.23163694    0.00000000
                                                     2        0.3000000       -0.36920489    0.00000000
                                                     2        0.4000000        0.36389709    0.00000000
                                                     2        0.7000000       -0.38862160    0.00000000
                                                     2        1.3000000        0.80803421    0.00000000
                                      S - G
                                                     0        0.0000010        0.00312304    0.00000000
                                                     2        0.1200000       -0.00632892    0.00000000
                                                     2        0.2200000       -0.03780897    0.00000000
                                                     2        0.4000000        0.26269560    0.00000000
                                                     2        0.9000000       -0.28209514    0.00000000
                                                     2        1.5000000       -0.72686737    0.00000000
                                      P - G
                                                     0        0.0000010       -0.01465594    0.00000000
                                                     2        0.1200000        0.07908409    0.00000000
                                                     2        0.1800000       -0.30615861    0.00000000
                                                     2        0.2600000        0.41506950    0.00000000
                                                     2        0.5000000       -0.36252345    0.00000000
                                                     2        0.9000000        0.15124193    0.00000000
                                                     2        3.0000000       -0.80425677    0.00000000
                                      D - G
                                                     0        0.0000010        0.01149631    0.00000000
                                                     2        0.1200000       -0.04713561    0.00000000
                                                     2        0.1600000        0.10865096    0.00000000
                                                     2        0.2800000       -0.15816701    0.00000000
                                                     2        0.7000000        0.65478804    0.00000000
                                                     2        1.3000000       -1.73816624    0.00000000
                                      F - G
                                                     0        0.0000010        0.00481868    0.00000000
                                                     2        0.1200000       -0.04746842    0.00000000
                                                     2        0.1600000        0.09327889    0.00000000
                                                     2        0.4000000       -0.19693326    0.00000000
                                                     2        0.9000000        0.34938253    0.00000000
   10          6            6
                                      G and up 
                                                     0        0.0000010       -0.00011185    0.00000000
                                                     2        0.1200000       -0.02301220    0.00000000
                                                     2        0.1400000        0.13317600    0.00000000
                                                     2        0.1600000       -0.19690668    0.00000000
                                                     2        0.2200000        0.23163694    0.00000000
                                                     2        0.3000000       -0.36920489    0.00000000
                                                     2        0.4000000        0.36389709    0.00000000
                                                     2        0.7000000       -0.38862160    0.00000000
                                                     2        1.3000000        0.80803421    0.00000000
                                      S - G
                                                     0        0.0000010        0.00312304    0.00000000
                                                     2        0.1200000       -0.00632892    0.00000000
                                                     2        0.2200000       -0.03780897    0.00000000
                                                     2        0.4000000        0.26269560    0.00000000
                                                     2        0.9000000       -0.28209514    0.00000000
                                                     2        1.5000000       -0.72686737    0.00000000
                                      P - G
                                                     0        0.0000010       -0.01465594    0.00000000
                                                     2        0.1200000        0.07908409    0.00000000
                                                     2        0.1800000       -0.30615861    0.00000000
                                                     2        0.2600000        0.41506950    0.00000000
                                                     2        0.5000000       -0.36252345    0.00000000
                                                     2        0.9000000        0.15124193    0.00000000
                                                     2        3.0000000       -0.80425677    0.00000000
                                      D - G
                                                     0        0.0000010        0.01149631    0.00000000
                                                     2        0.1200000       -0.04713561    0.00000000
                                                     2        0.1600000        0.10865096    0.00000000
                                                     2        0.2800000       -0.15816701    0.00000000
                                                     2        0.7000000        0.65478804    0.00000000
                                                     2        1.3000000       -1.73816624    0.00000000
                                      F - G
                                                     0        0.0000010        0.00481868    0.00000000
                                                     2        0.1200000       -0.04746842    0.00000000
                                                     2        0.1600000        0.09327889    0.00000000
                                                     2        0.4000000       -0.19693326    0.00000000
                                                     2        0.9000000        0.34938253    0.00000000
   11          6            6
                                      G and up 
                                                     0        0.0000010       -0.00011185    0.00000000
                                                     2        0.1200000       -0.02301220    0.00000000
                                                     2        0.1400000        0.13317600    0.00000000
                                                     2        0.1600000       -0.19690668    0.00000000
                                                     2        0.2200000        0.23163694    0.00000000
                                                     2        0.3000000       -0.36920489    0.00000000
                                                     2        0.4000000        0.36389709    0.00000000
                                                     2        0.7000000       -0.38862160    0.00000000
                                                     2        1.3000000        0.80803421    0.00000000
                                      S - G
                                                     0        0.0000010        0.00312304    0.00000000
                                                     2        0.1200000       -0.00632892    0.00000000
                                                     2        0.2200000       -0.03780897    0.00000000
                                                     2        0.4000000        0.26269560    0.00000000
                                                     2        0.9000000       -0.28209514    0.00000000
                                                     2        1.5000000       -0.72686737    0.00000000
                                      P - G
                                                     0        0.0000010       -0.01465594    0.00000000
                                                     2        0.1200000        0.07908409    0.00000000
                                                     2        0.1800000       -0.30615861    0.00000000
                                                     2        0.2600000        0.41506950    0.00000000
                                                     2        0.5000000       -0.36252345    0.00000000
                                                     2        0.9000000        0.15124193    0.00000000
                                                     2        3.0000000       -0.80425677    0.00000000
                                      D - G
                                                     0        0.0000010        0.01149631    0.00000000
                                                     2        0.1200000       -0.04713561    0.00000000
                                                     2        0.1600000        0.10865096    0.00000000
                                                     2        0.2800000       -0.15816701    0.00000000
                                                     2        0.7000000        0.65478804    0.00000000
                                                     2        1.3000000       -1.73816624    0.00000000
                                      F - G
                                                     0        0.0000010        0.00481868    0.00000000
                                                     2        0.1200000       -0.04746842    0.00000000
                                                     2        0.1600000        0.09327889    0.00000000
                                                     2        0.4000000       -0.19693326    0.00000000
                                                     2        0.9000000        0.34938253    0.00000000
   12          1            1
                                      F and up 
                                                     0        0.0000010       -0.00000699    0.00000000
                                                     2        0.1200000        0.00123686    0.00000000
                                                     2        0.1800000       -0.00752022    0.00000000
                                                     2        0.2600000        0.02503380    0.00000000
                                                     2        0.4000000       -0.08702670    0.00000000
                                                     2        0.6000000        0.30134159    0.00000000
                                                     2        0.8000000       -0.50204959    0.00000000
                                                     2        1.2000000        0.52208372    0.00000000
                                      S - F
                                                     0        0.0000010       -0.01618346    0.00000000
                                                     2        0.1200000       -0.07880581    0.00000000
                                                     2        0.1600000        0.32040539    0.00000000
                                                     2        0.2400000       -0.47500956    0.00000000
                                                     2        0.5000000        0.54013668    0.00000000
                                                     2        1.5000000       -1.40434292    0.00000000
                                                     2        3.0000000        1.46283806    0.00000000
                                      P - F
                                                     0        0.0000010        0.00612970    0.00000000
                                                     2        0.1200000        0.02254406    0.00000000
                                                     2        0.1800000       -0.13874529    0.00000000
                                                     2        0.3000000        0.38299049    0.00000000
                                                     2        0.5000000       -0.57923512    0.00000000
                                                     2        1.0000000        0.63021625    0.00000000
                                                     2        2.0000000       -0.79201034    0.00000000
                                      D - F
                                                     0        0.0000010       -0.00296226    0.00000000
                                                     2        0.1200000       -0.00547344    0.00000000
                                                     2        0.1400000        0.01837884    0.00000000
                                                     2        0.2400000       -0.05565704    0.00000000
                                                     2        0.4000000        0.15376597    0.00000000
                                                     2        0.8000000       -0.32464795    0.00000000
   13          1            1
                                      F and up 
                                                     0        0.0000010       -0.00000699    0.00000000
                                                     2        0.1200000        0.00123686    0.00000000
                                                     2        0.1800000       -0.00752022    0.00000000
                                                     2        0.2600000        0.02503380    0.00000000
                                                     2        0.4000000       -0.08702670    0.00000000
                                                     2        0.6000000        0.30134159    0.00000000
                                                     2        0.8000000       -0.50204959    0.00000000
                                                     2        1.2000000        0.52208372    0.00000000
                                      S - F
                                                     0        0.0000010       -0.01618346    0.00000000
                                                     2        0.1200000       -0.07880581    0.00000000
                                                     2        0.1600000        0.32040539    0.00000000
                                                     2        0.2400000       -0.47500956    0.00000000
                                                     2        0.5000000        0.54013668    0.00000000
                                                     2        1.5000000       -1.40434292    0.00000000
                                                     2        3.0000000        1.46283806    0.00000000
                                      P - F
                                                     0        0.0000010        0.00612970    0.00000000
                                                     2        0.1200000        0.02254406    0.00000000
                                                     2        0.1800000       -0.13874529    0.00000000
                                                     2        0.3000000        0.38299049    0.00000000
                                                     2        0.5000000       -0.57923512    0.00000000
                                                     2        1.0000000        0.63021625    0.00000000
                                                     2        2.0000000       -0.79201034    0.00000000
                                      D - F
                                                     0        0.0000010       -0.00296226    0.00000000
                                                     2        0.1200000       -0.00547344    0.00000000
                                                     2        0.1400000        0.01837884    0.00000000
                                                     2        0.2400000       -0.05565704    0.00000000
[...]
   17          1            1
                                      F and up 
                                                     0        0.0000010       -0.00000699    0.00000000
                                                     2        0.1200000        0.00123686    0.00000000
                                                     2        0.1800000       -0.00752022    0.00000000
                                                     2        0.2600000        0.02503380    0.00000000
                                                     2        0.4000000       -0.08702670    0.00000000
                                                     2        0.6000000        0.30134159    0.00000000
                                                     2        0.8000000       -0.50204959    0.00000000
                                                     2        1.2000000        0.52208372    0.00000000
                                      S - F
                                                     0        0.0000010       -0.01618346    0.00000000
                                                     2        0.1200000       -0.07880581    0.00000000
                                                     2        0.1600000        0.32040539    0.00000000
                                                     2        0.2400000       -0.47500956    0.00000000
                                                     2        0.5000000        0.54013668    0.00000000
                                                     2        1.5000000       -1.40434292    0.00000000
                                                     2        3.0000000        1.46283806    0.00000000
                                      P - F
                                                     0        0.0000010        0.00612970    0.00000000
                                                     2        0.1200000        0.02254406    0.00000000
                                                     2        0.1800000       -0.13874529    0.00000000
                                                     2        0.3000000        0.38299049    0.00000000
                                                     2        0.5000000       -0.57923512    0.00000000
                                                     2        1.0000000        0.63021625    0.00000000
                                                     2        2.0000000       -0.79201034    0.00000000
                                      D - F
                                                     0        0.0000010       -0.00296226    0.00000000
                                                     2        0.1200000       -0.00547344    0.00000000
                                                     2        0.1400000        0.01837884    0.00000000
                                                     2        0.2400000       -0.05565704    0.00000000
                                                     2        0.4000000        0.15376597    0.00000000
                                                     2        0.8000000       -0.32464795    0.00000000
   18          1            1
                                      F and up 
                                                     0        0.0000010       -0.00000699    0.00000000
                                                     2        0.1200000        0.00123686    0.00000000
                                                     2        0.1800000       -0.00752022    0.00000000
                                                     2        0.2600000        0.02503380    0.00000000
                                                     2        0.4000000       -0.08702670    0.00000000
                                                     2        0.6000000        0.30134159    0.00000000
                                                     2        0.8000000       -0.50204959    0.00000000
                                                     2        1.2000000        0.52208372    0.00000000
                                      S - F
                                                     0        0.0000010       -0.01618346    0.00000000
                                                     2        0.1200000       -0.07880581    0.00000000
                                                     2        0.1600000        0.32040539    0.00000000
                                                     2        0.2400000       -0.47500956    0.00000000
                                                     2        0.5000000        0.54013668    0.00000000
                                                     2        1.5000000       -1.40434292    0.00000000
                                                     2        3.0000000        1.46283806    0.00000000
                                      P - F
                                                     0        0.0000010        0.00612970    0.00000000
                                                     2        0.1200000        0.02254406    0.00000000
                                                     2        0.1800000       -0.13874529    0.00000000
                                                     2        0.3000000        0.38299049    0.00000000
                                                     2        0.5000000       -0.57923512    0.00000000
                                                     2        1.0000000        0.63021625    0.00000000
                                                     2        2.0000000       -0.79201034    0.00000000
                                      D - F
                                                     0        0.0000010       -0.00296226    0.00000000
                                                     2        0.1200000       -0.00547344    0.00000000
                                                     2        0.1400000        0.01837884    0.00000000
                                                     2        0.2400000       -0.05565704    0.00000000
                                                     2        0.4000000        0.15376597    0.00000000
                                                     2        0.8000000       -0.32464795    0.00000000
   19          1            1
                                      F and up 
                                                     0        0.0000010       -0.00000699    0.00000000
                                                     2        0.1200000        0.00123686    0.00000000
                                                     2        0.1800000       -0.00752022    0.00000000
                                                     2        0.2600000        0.02503380    0.00000000
                                                     2        0.4000000       -0.08702670    0.00000000
                                                     2        0.6000000        0.30134159    0.00000000
                                                     2        0.8000000       -0.50204959    0.00000000
                                                     2        1.2000000        0.52208372    0.00000000
                                      S - F
                                                     0        0.0000010       -0.01618346    0.00000000
                                                     2        0.1200000       -0.07880581    0.00000000
                                                     2        0.1600000        0.32040539    0.00000000
                                                     2        0.2400000       -0.47500956    0.00000000
                                                     2        0.5000000        0.54013668    0.00000000
                                                     2        1.5000000       -1.40434292    0.00000000
                                                     2        3.0000000        1.46283806    0.00000000
                                      P - F
                                                     0        0.0000010        0.00612970    0.00000000
                                                     2        0.1200000        0.02254406    0.00000000
                                                     2        0.1800000       -0.13874529    0.00000000
                                                     2        0.3000000        0.38299049    0.00000000
                                                     2        0.5000000       -0.57923512    0.00000000
                                                     2        1.0000000        0.63021625    0.00000000
                                                     2        2.0000000       -0.79201034    0.00000000
                                      D - F
                                                     0        0.0000010       -0.00296226    0.00000000
                                                     2        0.1200000       -0.00547344    0.00000000
                                                     2        0.1400000        0.01837884    0.00000000
                                                     2        0.2400000       -0.05565704    0.00000000
                                                     2        0.4000000        0.15376597    0.00000000
                                                     2        0.8000000       -0.32464795    0.00000000
 ======================================================================================================
   329 basis functions,   599 primitive gaussians,   351 cartesian basis functions
    44 alpha electrons       44 beta electrons
       nuclear repulsion energy       702.1922471414 Hartrees.
 NAtoms=   19 NActive=   19 NUniq=   19 SFac= 1.00D+00 NAtFMM=   60 NAOKFM=F Big=F
   1 Symmetry operations used in ECPInt.
 ECPInt:  NShTT=   10011 NPrTT=   54881 LenC2=    9919 LenP2D=   38049.
 LDataN:  DoStor=T MaxTD1= 6 Len=  172
 Initial guess from the checkpoint file:  "vinylsulfonylbenzene.chk"
 B after Tr=    -0.000000    0.000000    0.000000
         Rot=    1.000000   -0.000000    0.000000   -0.000000 Ang=  -0.00 deg.
 >>>>>>>>>> Convergence criterion not met.
 SCF Done:  E(RHF) =  -855.014674959     A.U. after    2 cycles
            NFock=  1  Conv=0.11D-01     -V/T= 2.0032

 **********************************************************************

            Population analysis using the SCF Density.

 **********************************************************************

 Orbital symmetries:
       Occupied  (A) (A) (A) (A) (A) (A) (A) (A) (A) (A) (A) (A)
                 (A) (A) (A) (A) (A) (A) (A) (A) (A) (A) (A) (A)
                 (A) (A) (A) (A) (A) (A) (A) (A) (A) (A) (A) (A)
                 (A) (A) (A) (A) (A) (A) (A) (A)
       Virtual   (A) (A) (A) (A) (A) (A) (A) (A) (A) (A) (A) (A)
                 (A) (A) (A) (A) (A) (A) (A) (A) (A) (A) (A) (A)
                 (A) (A) (A) (A) (A) (A) (A) (A) (A) (A) (A) (A)
                 (A) (A) (A) (A) (A) (A) (A) (A) (A) (A) (A) (A)
                 (A) (A) (A) (A) (A) (A) (A) (A) (A) (A) (A) (A)
                 (A) (A) (A) (A) (A) (A) (A) (A) (A) (A) (A) (A)
                 (A) (A) (A) (A) (A) (A) (A) (A) (A) (A) (A) (A)
                 (A) (A) (A) (A) (A) (A) (A) (A) (A) (A) (A) (A)
                 (A) (A) (A) (A) (A) (A) (A) (A) (A) (A) (A) (A)
                 (A) (A) (A) (A) (A) (A) (A) (A) (A) (A) (A) (A)
                 (A) (A) (A) (A) (A) (A) (A) (A) (A) (A) (A) (A)
                 (A) (A) (A) (A) (A) (A) (A) (A) (A) (A) (A) (A)
                 (A) (A) (A) (A) (A) (A) (A) (A) (A) (A) (A) (A)
                 (A) (A) (A) (A) (A) (A) (A) (A) (A) (A) (A) (A)
                 (A) (A) (A) (A) (A) (A) (A) (A) (A) (A) (A) (A)
                 (A) (A) (A) (A) (A) (A) (A) (A) (A) (A) (A) (A)
                 (A) (A) (A) (A) (A) (A) (A) (A) (A) (A) (A) (A)
                 (A) (A) (A) (A) (A) (A) (A) (A) (A) (A) (A) (A)
                 (A) (A) (A) (A) (A) (A) (A) (A) (A) (A) (A) (A)
                 (A) (A) (A) (A) (A) (A) (A) (A) (A) (A) (A) (A)
                 (A) (A) (A) (A) (A) (A) (A) (A) (A) (A) (A) (A)
                 (A) (A) (A) (A) (A) (A) (A) (A) (A) (A) (A) (A)
                 (A) (A) (A) (A) (A) (A) (A) (A) (A) (A) (A) (A)
                 (A) (A) (A) (A) (A) (A) (A) (A) (A)
 The electronic state is 1-A.
 Alpha  occ. eigenvalues --  -93.78405 -20.55688 -20.55465 -11.28987 -11.28865
 Alpha  occ. eigenvalues --  -11.28318 -11.27561 -11.27543 -11.27284 -11.26695
 Alpha  occ. eigenvalues --  -11.26679  -9.05041  -6.39686  -6.39476  -6.39407
 Alpha  occ. eigenvalues --   -1.41144  -1.29860  -1.17540  -1.08965  -1.05058
 Alpha  occ. eigenvalues --   -1.03952  -0.92805  -0.85855  -0.84943  -0.78759
 Alpha  occ. eigenvalues --   -0.74315  -0.70810  -0.67762  -0.67433  -0.65879
 Alpha  occ. eigenvalues --   -0.64512  -0.63069  -0.62091  -0.58122  -0.55366
 Alpha  occ. eigenvalues --   -0.53900  -0.52696  -0.51875  -0.50734  -0.49246
 Alpha  occ. eigenvalues --   -0.45340  -0.42961  -0.37086  -0.36522
 Alpha virt. eigenvalues --    0.02782   0.03362   0.03750   0.04897   0.05298
 Alpha virt. eigenvalues --    0.05961   0.06688   0.07160   0.07716   0.08941
 Alpha virt. eigenvalues --    0.09652   0.09830   0.11185   0.11675   0.12766
 Alpha virt. eigenvalues --    0.12934   0.13746   0.13820   0.14034   0.14875
 Alpha virt. eigenvalues --    0.14967   0.15138   0.15576   0.15830   0.16234
 Alpha virt. eigenvalues --    0.16806   0.17173   0.17673   0.17844   0.18392
 Alpha virt. eigenvalues --    0.19481   0.19978   0.20097   0.20377   0.21532
 Alpha virt. eigenvalues --    0.22143   0.23612   0.24155   0.25484   0.25773
 Alpha virt. eigenvalues --    0.25886   0.27075   0.27816   0.28372   0.29469
 Alpha virt. eigenvalues --    0.30328   0.30437   0.30759   0.31854   0.32544
 Alpha virt. eigenvalues --    0.32720   0.33001   0.33552   0.34150   0.34393
 Alpha virt. eigenvalues --    0.35227   0.35931   0.36136   0.36864   0.37178
 Alpha virt. eigenvalues --    0.37421   0.38257   0.38659   0.39668   0.40272
 Alpha virt. eigenvalues --    0.41128   0.41433   0.42367   0.42859   0.43444
 Alpha virt. eigenvalues --    0.44064   0.44925   0.45209   0.45910   0.46472
 Alpha virt. eigenvalues --    0.47074   0.48306   0.49887   0.51052   0.51525
 Alpha virt. eigenvalues --    0.51700   0.53118   0.54378   0.55121   0.55836
 Alpha virt. eigenvalues --    0.57182   0.57630   0.58796   0.59088   0.59617
 Alpha virt. eigenvalues --    0.60190   0.60714   0.61539   0.62512   0.63561
 Alpha virt. eigenvalues --    0.63753   0.64786   0.65026   0.65956   0.66340
 Alpha virt. eigenvalues --    0.67151   0.67346   0.67929   0.68339   0.68854
 Alpha virt. eigenvalues --    0.69791   0.70442   0.71217   0.71642   0.72508
 Alpha virt. eigenvalues --    0.73582   0.74265   0.74531   0.75304   0.76434
 Alpha virt. eigenvalues --    0.77258   0.77906   0.79754   0.80945   0.81193
 Alpha virt. eigenvalues --    0.83143   0.84712   0.84879   0.85109   0.86286
 Alpha virt. eigenvalues --    0.87263   0.88083   0.88808   0.89643   0.90285
 Alpha virt. eigenvalues --    0.91564   0.92170   0.92715   0.93482   0.93937
 Alpha virt. eigenvalues --    0.94727   0.96661   0.97456   0.97742   0.98963
 Alpha virt. eigenvalues --    0.99775   1.01534   1.02051   1.02623   1.05682
 Alpha virt. eigenvalues --    1.07287   1.07633   1.09436   1.10370   1.12153
 Alpha virt. eigenvalues --    1.15915   1.17165   1.18168   1.19612   1.21073
 Alpha virt. eigenvalues --    1.22031   1.24377   1.25205   1.25605   1.26252
 Alpha virt. eigenvalues --    1.26880   1.32626   1.34068   1.35145   1.37121
 Alpha virt. eigenvalues --    1.38757   1.40799   1.41640   1.43462   1.45723
 Alpha virt. eigenvalues --    1.47167   1.47721   1.49267   1.49695   1.50742
 Alpha virt. eigenvalues --    1.51561   1.53129   1.54756   1.56694   1.57695
 Alpha virt. eigenvalues --    1.58220   1.60174   1.60339   1.60754   1.61643
 Alpha virt. eigenvalues --    1.62161   1.63127   1.63882   1.64280   1.66501
 Alpha virt. eigenvalues --    1.67219   1.69158   1.69614   1.70844   1.72059
 Alpha virt. eigenvalues --    1.72789   1.73369   1.74869   1.76721   1.78685
 Alpha virt. eigenvalues --    1.80525   1.82169   1.83019   1.85487   1.86595
 Alpha virt. eigenvalues --    1.88019   1.90928   1.91636   1.92636   1.93104
 Alpha virt. eigenvalues --    1.93546   1.94275   1.94956   1.96154   1.97726
 Alpha virt. eigenvalues --    1.99663   2.00759   2.04565   2.05006   2.06551
 Alpha virt. eigenvalues --    2.08493   2.09055   2.10076   2.11096   2.11692
 Alpha virt. eigenvalues --    2.12793   2.14529   2.16245   2.19300   2.20661
 Alpha virt. eigenvalues --    2.20798   2.22077   2.25095   2.27283   2.28666
 Alpha virt. eigenvalues --    2.29342   2.30189   2.31577   2.33643   2.35973
 Alpha virt. eigenvalues --    2.36590   2.38912   2.39700   2.41384   2.43184
 Alpha virt. eigenvalues --    2.45996   2.47986   2.50916   2.58867   2.60767
 Alpha virt. eigenvalues --    2.61201   2.67692   2.71864   2.75140   2.78026
 Alpha virt. eigenvalues --    2.79546   2.81171   2.83449   2.90504   2.93421
 Alpha virt. eigenvalues --    2.95753   2.97628   3.07901   3.12788   3.18701
 Alpha virt. eigenvalues --    3.22564   3.25815   3.27181   3.32124   3.32899
 Alpha virt. eigenvalues --    3.51679   3.55184   3.60792   3.61941   3.62848
 Alpha virt. eigenvalues --    3.65213   3.66176   3.67131   3.68080   3.70999
 Alpha virt. eigenvalues --    3.75117   3.75531   3.84650   3.91224   4.72191
          Condensed to atoms (all electrons):
 Mulliken charges:
               1
     1  C    0.542989
     2  C    0.054703
     3  S    2.967668
     4  O   -1.174108
     5  O   -1.153138
     6  C    0.432617
     7  C   -0.104856
     8  C    0.619489
     9  C    0.480908
    10  C    0.534883
    11  C    0.058148
    12  H   -0.238187
    13  H   -0.237052
    14  H   -0.418753
    15  H   -0.530451
    16  H   -0.432844
    17  H   -0.439335
    18  H   -0.437156
    19  H   -0.525524
 Sum of Mulliken charges =  -0.00000
 Mulliken charges with hydrogens summed into heavy atoms:
               1
     1  C    0.067750
     2  C   -0.364050
     3  S    2.967668
     4  O   -1.174108
     5  O   -1.153138
     6  C    0.432617
     7  C   -0.635308
     8  C    0.186645
     9  C    0.041573
    10  C    0.097728
    11  C   -0.467376
 Electronic spatial extent (au):  <R**2>=           1944.2861
 Charge=              0.0000 electrons
 Dipole moment (field-independent basis, Debye):
    X=              2.9778    Y=             -2.6099    Z=              4.2607  Tot=              5.8166

 Test job not archived.
 1\1\GINC-SE199\SP\RHF\Aug-CC-pVDZ\C8H8O2S1\OHZDE\05-Apr-2025\0\\#t hf 
 aug-cc-pvdz iop(5/13=1,5/36=2,99/5=2) pseudo=read geom=check guess=(re
 ad,tcheck) scf=(maxcycle=1)\\title\\0,1\C,0,-2.760426,-1.207325,1.2073
 06\C,0,-1.942526,-0.170313,1.165936\S,0,-1.209568,0.357864,-0.37766\O,
 0,-1.661482,-0.546197,-1.429486\O,0,-1.432644,1.796435,-0.478409\C,0,0
 .549958,0.093229,-0.128571\C,0,1.327317,1.134136,0.365938\C,0,2.688495
 ,0.926492,0.55546\C,0,3.254893,-0.306208,0.24936\C,0,2.466154,-1.33695
 8,-0.253252\C,0,1.10475,-1.142081,-0.445145\H,0,-2.971203,-1.781796,0.
 315349\H,0,-3.245923,-1.496562,2.129835\H,0,-1.694653,0.46109,2.008205
 \H,0,0.872163,2.091493,0.574475\H,0,3.306169,1.729235,0.933931\H,0,4.3
 15074,-0.462596,0.395508\H,0,2.912325,-2.289975,-0.502003\H,0,0.480456
 ,-1.924459,-0.851784\\Version=ES64L-G16RevC.01\State=1-A\HF=-855.01467
 5\RMSD=1.066e-02\Dipole=1.1715733,-1.0268178,1.6763037\Quadrupole=5.10
 94038,-1.2685277,-3.8408762,4.5218612,-5.9452348,1.8432027\PG=C01 [X(C
 8H8O2S1)]\\@


 ON A CLEAR DISK YOU CAN SEEK FOREVER.
 Job cpu time:       0 days  0 hours  2 minutes 50.5 seconds.
 Elapsed time:       0 days  0 hours  0 minutes 12.2 seconds.
 File lengths (MBytes):  RWF=     19 Int=      0 D2E=      0 Chk=     15 Scr=      1
 Normal termination of Gaussian 16 at Sat Apr  5 23:18:28 2025.
