
                                 *****************
                                 * O   R   C   A *
                                 *****************

                                            #,                                       
                                            ###                                      
                                            ####                                     
                                            #####                                    
                                            ######                                   
                                           ########,                                 
                                     ,,################,,,,,                         
                               ,,#################################,,                 
                          ,,##########################################,,             
                       ,#########################################, ''#####,          
                    ,#############################################,,   '####,        
                  ,##################################################,,,,####,       
                ,###########''''           ''''###############################       
              ,#####''   ,,,,##########,,,,          '''####'''          '####       
            ,##' ,,,,###########################,,,                        '##       
           ' ,,###''''                  '''############,,,                           
         ,,##''                                '''############,,,,        ,,,,,,###''
      ,#''                                            '''#######################'''  
     '                                                          ''''####''''         
             ,#######,   #######,   ,#######,      ##                                
            ,#'     '#,  ##    ##  ,#'     '#,    #''#        ######   ,####,        
            ##       ##  ##   ,#'  ##            #'  '#       #        #'  '#        
            ##       ##  #######   ##           ,######,      #####,   #    #        
            '#,     ,#'  ##    ##  '#,     ,#' ,#      #,         ##   #,  ,#        
             '#######'   ##     ##  '#######'  #'      '#     #####' # '####'        



                  #######################################################
                  #                        -***-                        #
                  #          Department of theory and spectroscopy      #
                  #    Directorship and core code : Frank Neese         #
                  #        Max Planck Institute fuer Kohlenforschung    #
                  #                Kaiser Wilhelm Platz 1               #
                  #                 D-45470 Muelheim/Ruhr               #
                  #                      Germany                        #
                  #                                                     #
                  #                  All rights reserved                #
                  #                        -***-                        #
                  #######################################################


                         Program Version 5.0.4 -  RELEASE  -


 With contributions from (in alphabetic order):
   Daniel Aravena         : Magnetic Suceptibility
   Michael Atanasov       : Ab Initio Ligand Field Theory (pilot matlab implementation)
   Alexander A. Auer      : GIAO ZORA, VPT2 properties, NMR spectrum
   Ute Becker             : Parallelization
   Giovanni Bistoni       : ED, misc. LED, open-shell LED, HFLD
   Martin Brehm           : Molecular dynamics
   Dmytro Bykov           : SCF Hessian
   Vijay G. Chilkuri      : MRCI spin determinant printing, contributions to CSF-ICE
   Dipayan Datta          : RHF DLPNO-CCSD density
   Achintya Kumar Dutta   : EOM-CC, STEOM-CC
   Dmitry Ganyushin       : Spin-Orbit,Spin-Spin,Magnetic field MRCI
   Miquel Garcia          : C-PCM and meta-GGA Hessian, CC/C-PCM, Gaussian charge scheme
   Yang Guo               : DLPNO-NEVPT2, F12-NEVPT2, CIM, IAO-localization
   Andreas Hansen         : Spin unrestricted coupled pair/coupled cluster methods
   Benjamin Helmich-Paris : MC-RPA, TRAH-SCF, COSX integrals
   Lee Huntington         : MR-EOM, pCC
   Robert Izsak           : Overlap fitted RIJCOSX, COSX-SCS-MP3, EOM
   Marcus Kettner         : VPT2
   Christian Kollmar      : KDIIS, OOCD, Brueckner-CCSD(T), CCSD density, CASPT2, CASPT2-K
   Simone Kossmann        : Meta GGA functionals, TD-DFT gradient, OOMP2, MP2 Hessian
   Martin Krupicka        : Initial AUTO-CI
   Lucas Lang             : DCDCAS
   Marvin Lechner         : AUTO-CI (C++ implementation), FIC-MRCC
   Dagmar Lenk            : GEPOL surface, SMD
   Dimitrios Liakos       : Extrapolation schemes; Compound Job, initial MDCI parallelization
   Dimitrios Manganas     : Further ROCIS development; embedding schemes
   Dimitrios Pantazis     : SARC Basis sets
   Anastasios Papadopoulos: AUTO-CI, single reference methods and gradients
   Taras Petrenko         : DFT Hessian,TD-DFT gradient, ASA, ECA, R-Raman, ABS, FL, XAS/XES, NRVS
   Peter Pinski           : DLPNO-MP2, DLPNO-MP2 Gradient
   Christoph Reimann      : Effective Core Potentials
   Marius Retegan         : Local ZFS, SOC
   Christoph Riplinger    : Optimizer, TS searches, QM/MM, DLPNO-CCSD(T), (RO)-DLPNO pert. Triples
   Tobias Risthaus        : Range-separated hybrids, TD-DFT gradient, RPA, STAB
   Michael Roemelt        : Original ROCIS implementation
   Masaaki Saitow         : Open-shell DLPNO-CCSD energy and density
   Barbara Sandhoefer     : DKH picture change effects
   Avijit Sen             : IP-ROCIS
   Kantharuban Sivalingam : CASSCF convergence, NEVPT2, FIC-MRCI
   Bernardo de Souza      : ESD, SOC TD-DFT
   Georgi Stoychev        : AutoAux, RI-MP2 NMR, DLPNO-MP2 response
   Willem Van den Heuvel  : Paramagnetic NMR
   Boris Wezisla          : Elementary symmetry handling
   Frank Wennmohs         : Technical directorship


 We gratefully acknowledge several colleagues who have allowed us to
 interface, adapt or use parts of their codes:
   Stefan Grimme, W. Hujo, H. Kruse, P. Pracht,  : VdW corrections, initial TS optimization,
                  C. Bannwarth, S. Ehlert          DFT functionals, gCP, sTDA/sTD-DF
   Ed Valeev, F. Pavosevic, A. Kumar             : LibInt (2-el integral package), F12 methods
   Garnet Chan, S. Sharma, J. Yang, R. Olivares  : DMRG
   Ulf Ekstrom                                   : XCFun DFT Library
   Mihaly Kallay                                 : mrcc  (arbitrary order and MRCC methods)
   Jiri Pittner, Ondrej Demel                    : Mk-CCSD
   Frank Weinhold                                : gennbo (NPA and NBO analysis)
   Christopher J. Cramer and Donald G. Truhlar   : smd solvation model
   Lars Goerigk                                  : TD-DFT with DH, B97 family of functionals
   V. Asgeirsson, H. Jonsson                     : NEB implementation
   FAccTs GmbH                                   : IRC, NEB, NEB-TS, DLPNO-Multilevel, CI-OPT
                                                   MM, QMMM, 2- and 3-layer-ONIOM, Crystal-QMMM,
                                                   LR-CPCM, SF, NACMEs, symmetry and pop. for TD-DFT,
                                                   nearIR, NL-DFT gradient (VV10), updates on ESD,
                                                   ML-optimized integration grids
   S Lehtola, MJT Oliveira, MAL Marques          : LibXC Library
   Liviu Ungur et al                             : ANISO software


 Your calculation uses the libint2 library for the computation of 2-el integrals
 For citations please refer to: http://libint.valeyev.net

 Your ORCA version has been built with support for libXC version: 5.1.0
 For citations please refer to: https://tddft.org/programs/libxc/

 This ORCA versions uses:
   CBLAS   interface :  Fast vector & matrix operations
   LAPACKE interface :  Fast linear algebra routines
   SCALAPACK package :  Parallel linear algebra routines
   Shared memory     :  Shared parallel matrices
   BLAS/LAPACK       :  OpenBLAS 0.3.15  USE64BITINT DYNAMIC_ARCH NO_AFFINITY SkylakeX SINGLE_THREADED
        Core in use  :  SkylakeX
   Copyright (c) 2011-2014, The OpenBLAS Project


================================================================================

----- Orbital basis set information -----
Your calculation utilizes the basis: aug-cc-pVQZ 
    H, B-Ne : Obtained from the ccRepo (grant-hill.group.shef.ac.uk/ccrepo) Feb. 2017
              R. A. Kendall, T. H. Dunning, Jr., R. J. Harrison, J. Chem. Phys. 96, 6796 (1992)
         He : Obtained from the ccRepo (grant-hill.group.shef.ac.uk/ccrepo) Feb. 2017
              D. E. Woon, T. H. Dunning, Jr., J. Chem. Phys. 100, 2975 (1994)
  Li-Be, Na : Obtained from the ccRepo (grant-hill.group.shef.ac.uk/ccrepo) Feb. 2017
              B. P. Prascher, D. E. Woon, K. A. Peterson, T. H. Dunning, Jr., A. K. Wilson, Theor. Chem. Acc. 128, 69 (2011)
         Mg : Obtained from the Peterson Research Group Website (tyr0.chem.wsu.edu/~kipeters) Feb. 2017
              B. P. Prascher, D. E. Woon, K. A. Peterson, T. H. Dunning, Jr., A. K. Wilson, Theor. Chem. Acc. 128, 69 (2011)
      Al-Ar : Obtained from the ccRepo (grant-hill.group.shef.ac.uk/ccrepo) Feb. 2017
              D. E. Woon, T. H. Dunning, Jr., J. Chem. Phys. 98, 1358 (1993)
      Sc-Zn : Obtained from the ccRepo (grant-hill.group.shef.ac.uk/ccrepo) Feb. 2017
              N. B. Balabanov, K. A. Peterson, J. Chem. Phys. 123, 064107 (2005)
              N. B. Balabanov, K. A. Peterson, J. Chem. Phys. 125, 074110 (2006)
      Ga-Kr : Obtained from the ccRepo (grant-hill.group.shef.ac.uk/ccrepo) Feb. 2017
              A. K. Wilson, D. E. Woon, K. A. Peterson, T. H. Dunning, Jr., J. Chem. Phys. 110, 7667 (1999)

----- AuxC basis set information -----
Your calculation utilizes the auxiliary basis: aug-cc-pVQZ/C 
  H-He, B-F, Al-Ar, Ga-Kr : Obtained from the EMSL Basis Set Exchange (bse.pnl.gov) Feb. 2017
                            F. Weigend, A. Kohn, C. Hattig, J. Chem. Phys. 116, 3175 (2002)
                   Be, Mg : Obtained from the TURBOMOLE 7.0 basis set library
                            C. Haettig, Phys. Chem. Chem. Phys. 7, 59 (2005)
                       Ne : Obtained from the EMSL Basis Set Exchange (bse.pnl.gov) Feb. 2017
                            C. Haettig, Phys. Chem. Chem. Phys. 7, 59 (2005)
                            F. Weigend, A. Kohn, C. Hattig, J. Chem. Phys. 116, 3175 (2002)
                    Sc-Zn : Obtained from the EMSL Basis Set Exchange (bse.pnl.gov) Feb. 2017
                            D. H. Bross, J. G. Hill, H. J. Werner, K. A. Peterson, J. Chem. Phys. 139, 094302 (2013)

================================================================================
                                        WARNINGS
                       Please study these warnings very carefully!
================================================================================


WARNING: No MP2 level density has been requested!
         To caclulate MP2 level properties use
         %mp2 Density relaxed end
         or
         %mp2 Density unrelaxed end

WARNING: Post HF methods need fully converged wavefunctions
  ===> : Setting SCFConvForced true
         You can overwrite this default with %scf ConvForced false 


INFO   : the flag for use of the SHARK integral package has been found!

================================================================================
                                       INPUT FILE
================================================================================
NAME = 1,4-cyclohexadiene.inp
|  1> !ri-mp2 aug-cc-pvqz aug-cc-pvqz/c tightscf
|  2> %pal nprocs 16 end
|  3> 
|  4> * xyz 0 1
|  5> C     1.494187     0.000000    0.000000
|  6> C    -1.494187     0.000000    0.000000
|  7> C    -0.664224     1.251037    0.000000
|  8> C     0.664224     1.251037    0.000000
|  9> C    -0.664224    -1.251037    0.000000
| 10> C     0.664224    -1.251037    0.000000
| 11> H     1.198840    -2.194197    0.000000
| 12> H    -1.198840    -2.194197    0.000000
| 13> H     1.198840     2.194197    0.000000
| 14> H    -1.198840     2.194197    0.000000
| 15> H     2.167593     0.000000    0.866807
| 16> H    -2.167593     0.000000    0.866807
| 17> H     2.167593     0.000000   -0.866807
| 18> H    -2.167593     0.000000   -0.866807
| 19> *
| 20> 
| 21>                          ****END OF INPUT****
================================================================================

                       ****************************
                       * Single Point Calculation *
                       ****************************

---------------------------------
CARTESIAN COORDINATES (ANGSTROEM)
---------------------------------
  C      1.494187    0.000000    0.000000
  C     -1.494187    0.000000    0.000000
  C     -0.664224    1.251037    0.000000
  C      0.664224    1.251037    0.000000
  C     -0.664224   -1.251037    0.000000
  C      0.664224   -1.251037    0.000000
  H      1.198840   -2.194197    0.000000
  H     -1.198840   -2.194197    0.000000
  H      1.198840    2.194197    0.000000
  H     -1.198840    2.194197    0.000000
  H      2.167593    0.000000    0.866807
  H     -2.167593    0.000000    0.866807
  H      2.167593    0.000000   -0.866807
  H     -2.167593    0.000000   -0.866807

----------------------------
CARTESIAN COORDINATES (A.U.)
----------------------------
  NO LB      ZA    FRAG     MASS         X           Y           Z
   0 C     6.0000    0    12.011    2.823604    0.000000    0.000000
   1 C     6.0000    0    12.011   -2.823604    0.000000    0.000000
   2 C     6.0000    0    12.011   -1.255201    2.364117    0.000000
   3 C     6.0000    0    12.011    1.255201    2.364117    0.000000
   4 C     6.0000    0    12.011   -1.255201   -2.364117    0.000000
   5 C     6.0000    0    12.011    1.255201   -2.364117    0.000000
   6 H     1.0000    0     1.008    2.265479   -4.146431    0.000000
   7 H     1.0000    0     1.008   -2.265479   -4.146431    0.000000
   8 H     1.0000    0     1.008    2.265479    4.146431    0.000000
   9 H     1.0000    0     1.008   -2.265479    4.146431    0.000000
  10 H     1.0000    0     1.008    4.096157    0.000000    1.638028
  11 H     1.0000    0     1.008   -4.096157    0.000000    1.638028
  12 H     1.0000    0     1.008    4.096157    0.000000   -1.638028
  13 H     1.0000    0     1.008   -4.096157    0.000000   -1.638028

--------------------------------
INTERNAL COORDINATES (ANGSTROEM)
--------------------------------
 C      0   0   0     0.000000000000     0.00000000     0.00000000
 C      1   0   0     2.988374000000     0.00000000     0.00000000
 C      2   1   0     1.501310146751    56.43890774     0.00000000
 C      3   2   1     1.328448000000   123.56109226     0.00000000
 C      2   1   3     1.501310146751    56.43890774   180.00000000
 C      5   2   1     1.328448000000   123.56109226     0.00000000
 H      6   5   2     1.084142542776   119.54607771   180.00000085
 H      5   2   1     1.084142542776   116.89283003   180.00000000
 H      4   3   2     1.084142542776   119.54607771   180.00000085
 H      3   2   1     1.084142542776   116.89283003   180.00000000
 H      1   2   3     1.097647491723   127.84295963    90.00000000
 H      2   1   3     1.097647491723   127.84295963   270.00000000
 H      1   2   3     1.097647491723   127.84295963   270.00000000
 H      2   1   3     1.097647491723   127.84295963    90.00000000

---------------------------
INTERNAL COORDINATES (A.U.)
---------------------------
 C      0   0   0     0.000000000000     0.00000000     0.00000000
 C      1   0   0     5.647208445731     0.00000000     0.00000000
 C      2   1   0     2.837065019437    56.43890774     0.00000000
 C      3   2   1     2.510402903155   123.56109226     0.00000000
 C      2   1   3     2.837065019437    56.43890774   180.00000000
 C      5   2   1     2.510402903155   123.56109226     0.00000000
 H      6   5   2     2.048732495979   119.54607771   180.00000085
 H      5   2   1     2.048732495979   116.89283003   180.00000000
 H      4   3   2     2.048732495979   119.54607771   180.00000085
 H      3   2   1     2.048732495979   116.89283003   180.00000000
 H      1   2   3     2.074253150941   127.84295963    90.00000000
 H      2   1   3     2.074253150941   127.84295963   270.00000000
 H      1   2   3     2.074253150941   127.84295963   270.00000000
 H      2   1   3     2.074253150941   127.84295963    90.00000000

---------------------
BASIS SET INFORMATION
---------------------
There are 2 groups of distinct atoms

 Group   1 Type C   : 22s7p4d3f2g contracted to 6s5p4d3f2g pattern {991111/31111/1111/111/11}
 Group   2 Type H   : 7s4p3d2f contracted to 5s4p3d2f pattern {31111/1111/111/11}

Atom   0C    basis set group =>   1
Atom   1C    basis set group =>   1
Atom   2C    basis set group =>   1
Atom   3C    basis set group =>   1
Atom   4C    basis set group =>   1
Atom   5C    basis set group =>   1
Atom   6H    basis set group =>   2
Atom   7H    basis set group =>   2
Atom   8H    basis set group =>   2
Atom   9H    basis set group =>   2
Atom  10H    basis set group =>   2
Atom  11H    basis set group =>   2
Atom  12H    basis set group =>   2
Atom  13H    basis set group =>   2
---------------------------------
AUXILIARY/C BASIS SET INFORMATION
---------------------------------
There are 2 groups of distinct atoms

 Group   1 Type C   : 9s8p7d6f4g2h contracted to 9s8p7d6f4g2h pattern {111111111/11111111/1111111/111111/1111/11}
 Group   2 Type H   : 6s5p4d3f2g contracted to 6s5p4d3f2g pattern {111111/11111/1111/111/11}

Atom   0C    basis set group =>   1
Atom   1C    basis set group =>   1
Atom   2C    basis set group =>   1
Atom   3C    basis set group =>   1
Atom   4C    basis set group =>   1
Atom   5C    basis set group =>   1
Atom   6H    basis set group =>   2
Atom   7H    basis set group =>   2
Atom   8H    basis set group =>   2
Atom   9H    basis set group =>   2
Atom  10H    basis set group =>   2
Atom  11H    basis set group =>   2
Atom  12H    basis set group =>   2
Atom  13H    basis set group =>   2


           ************************************************************
           *        Program running with 16 parallel MPI-processes    *
           *              working on a common directory               *
           ************************************************************
------------------------------------------------------------------------------
                           ORCA GTO INTEGRAL CALCULATION
------------------------------------------------------------------------------
------------------------------------------------------------------------------
                   ___                                                        
                  /   \      - P O W E R E D   B Y -                         
                 /     \                                                     
                 |  |  |   _    _      __       _____    __    __             
                 |  |  |  | |  | |    /  \     |  _  \  |  |  /  |          
                  \  \/   | |  | |   /    \    | | | |  |  | /  /          
                 / \  \   | |__| |  /  /\  \   | |_| |  |  |/  /          
                |  |  |   |  __  | /  /__\  \  |    /   |      \           
                |  |  |   | |  | | |   __   |  |    \   |  |\   \          
                \     /   | |  | | |  |  |  |  | |\  \  |  | \   \       
                 \___/    |_|  |_| |__|  |__|  |_| \__\ |__|  \__/        
                                                                              
                      - O R C A' S   B I G   F R I E N D -                    
                                      &                                       
                       - I N T E G R A L  F E E D E R -                       
                                                                              
 v1 FN, 2020, v2 2021                                                         
------------------------------------------------------------------------------


Reading SHARK input file 1,4-cyclohexadiene.SHARKINP.tmp ... ok
----------------------
SHARK INTEGRAL PACKAGE
----------------------

Number of atoms                             ...     14
Number of basis functions                   ...    890
Number of shells                            ...    274
Maximum angular momentum                    ...      4
Integral batch strategy                     ... SHARK/LIBINT Hybrid
RI-J (if used) integral strategy            ... SPLIT-RIJ (Revised 2003 algorithm where possible)
Printlevel                                  ...      1
Contraction scheme used                     ... PARTIAL GENERAL contraction
Coulomb Range Separation                    ... NOT USED
Exchange Range Separation                   ... NOT USED
Finite Nucleus Model                        ... NOT USED
Auxiliary Coulomb fitting basis             ... NOT available
Auxiliary J/K fitting basis                 ... NOT available
Auxiliary Correlation fitting basis         ... AVAILABLE
   # of basis functions in Aux-C            ...   1648
   # of shells in Aux-C                     ...    376
   Maximum angular momentum in Aux-C        ...      5
Auxiliary 'external' fitting basis          ... NOT available
Integral threshold                          ...     2.500000e-11
Primitive cut-off                           ...     2.500000e-12
Primitive pair pre-selection threshold      ...     2.500000e-12

Calculating pre-screening integrals         ... done (  0.1 sec) Dimension = 274
Calculating pre-screening integrals (ORCA)  ... done (  0.5 sec) Dimension = 232
Organizing shell pair data                  ... done (  1.1 sec)
Shell pair information
Total number of shell pairs                 ...     37675
Shell pairs after pre-screening             ...     33559
Total number of primitive shell pairs       ...     45795
Primitive shell pairs kept                  ...     38637
          la=0 lb=0:   5304 shell pairs
          la=1 lb=0:   6478 shell pairs
          la=1 lb=1:   1862 shell pairs
          la=2 lb=0:   4974 shell pairs
          la=2 lb=1:   2838 shell pairs
          la=2 lb=2:   1120 shell pairs
          la=3 lb=0:   3624 shell pairs
          la=3 lb=1:   2028 shell pairs
          la=3 lb=2:   1568 shell pairs
          la=3 lb=3:    575 shell pairs
          la=4 lb=0:   1394 shell pairs
          la=4 lb=1:    736 shell pairs
          la=4 lb=2:    572 shell pairs
          la=4 lb=3:    408 shell pairs
          la=4 lb=4:     78 shell pairs

Calculating one electron integrals          ... done (  0.1 sec)
Calculating RI/C V-Matrix + Cholesky decomp.... done (  1.1 sec)
Calculating Nuclear repulsion               ... done (  0.0 sec) ENN=    218.493168534119 Eh

SHARK setup successfully completed in   4.8 seconds

Maximum memory used throughout the entire GTOINT-calculation: 59.4 MB
[1715532388.770921] [bc11901:1109037:0]          mpool.c:42   UCX  WARN  object 0xc355140 was not returned to mpool ucp_requests
[1715532388.770944] [bc11901:1109037:0]          mpool.c:42   UCX  WARN  object 0xc355300 was not returned to mpool ucp_requests
[1715532388.770952] [bc11901:1109037:0]          mpool.c:42   UCX  WARN  object 0xc3554c0 was not returned to mpool ucp_requests
[1715532388.770957] [bc11901:1109037:0]          mpool.c:42   UCX  WARN  object 0xc355680 was not returned to mpool ucp_requests
[1715532388.770962] [bc11901:1109037:0]          mpool.c:42   UCX  WARN  object 0xc355840 was not returned to mpool ucp_requests
[1715532388.770967] [bc11901:1109037:0]          mpool.c:42   UCX  WARN  object 0xc355a00 was not returned to mpool ucp_requests
[1715532388.770971] [bc11901:1109037:0]          mpool.c:42   UCX  WARN  object 0xc355bc0 was not returned to mpool ucp_requests
[1715532388.770976] [bc11901:1109037:0]          mpool.c:42   UCX  WARN  object 0xc355d80 was not returned to mpool ucp_requests
[1715532388.770981] [bc11901:1109037:0]          mpool.c:42   UCX  WARN  object 0xc355f40 was not returned to mpool ucp_requests
[1715532388.770986] [bc11901:1109037:0]          mpool.c:42   UCX  WARN  object 0xc356100 was not returned to mpool ucp_requests
[1715532388.770990] [bc11901:1109037:0]          mpool.c:42   UCX  WARN  object 0xc3562c0 was not returned to mpool ucp_requests
[1715532388.770995] [bc11901:1109037:0]          mpool.c:42   UCX  WARN  object 0xc356480 was not returned to mpool ucp_requests
[1715532388.771000] [bc11901:1109037:0]          mpool.c:42   UCX  WARN  object 0xc356640 was not returned to mpool ucp_requests
[1715532388.771218] [bc11901:1109041:0]          mpool.c:42   UCX  WARN  object 0xb115f40 was not returned to mpool ucp_requests
[1715532388.771237] [bc11901:1109041:0]          mpool.c:42   UCX  WARN  object 0xb116100 was not returned to mpool ucp_requests
[1715532388.771243] [bc11901:1109041:0]          mpool.c:42   UCX  WARN  object 0xb1162c0 was not returned to mpool ucp_requests
[1715532388.771248] [bc11901:1109041:0]          mpool.c:42   UCX  WARN  object 0xb116480 was not returned to mpool ucp_requests
[1715532388.771253] [bc11901:1109041:0]          mpool.c:42   UCX  WARN  object 0xb116640 was not returned to mpool ucp_requests
[1715532388.771258] [bc11901:1109041:0]          mpool.c:42   UCX  WARN  object 0xb116800 was not returned to mpool ucp_requests
[1715532388.771263] [bc11901:1109041:0]          mpool.c:42   UCX  WARN  object 0xb1169c0 was not returned to mpool ucp_requests
[1715532388.771268] [bc11901:1109041:0]          mpool.c:42   UCX  WARN  object 0xb116b80 was not returned to mpool ucp_requests
[1715532388.771273] [bc11901:1109041:0]          mpool.c:42   UCX  WARN  object 0xb116d40 was not returned to mpool ucp_requests
[1715532388.771277] [bc11901:1109041:0]          mpool.c:42   UCX  WARN  object 0xb116f00 was not returned to mpool ucp_requests
[1715532388.771282] [bc11901:1109041:0]          mpool.c:42   UCX  WARN  object 0xb1170c0 was not returned to mpool ucp_requests
[1715532388.771287] [bc11901:1109041:0]          mpool.c:42   UCX  WARN  object 0xb117280 was not returned to mpool ucp_requests
[1715532388.771295] [bc11901:1109041:0]          mpool.c:42   UCX  WARN  object 0xb117440 was not returned to mpool ucp_requests
[1715532388.771411] [bc11901:1109048:0]          mpool.c:42   UCX  WARN  object 0xc4112c0 was not returned to mpool ucp_requests
[1715532388.771431] [bc11901:1109048:0]          mpool.c:42   UCX  WARN  object 0xc411480 was not returned to mpool ucp_requests
[1715532388.771438] [bc11901:1109048:0]          mpool.c:42   UCX  WARN  object 0xc411640 was not returned to mpool ucp_requests
[1715532388.771445] [bc11901:1109048:0]          mpool.c:42   UCX  WARN  object 0xc411800 was not returned to mpool ucp_requests
[1715532388.771450] [bc11901:1109048:0]          mpool.c:42   UCX  WARN  object 0xc4119c0 was not returned to mpool ucp_requests
[1715532388.771454] [bc11901:1109048:0]          mpool.c:42   UCX  WARN  object 0xc411b80 was not returned to mpool ucp_requests
[1715532388.771459] [bc11901:1109048:0]          mpool.c:42   UCX  WARN  object 0xc411d40 was not returned to mpool ucp_requests
[1715532388.771463] [bc11901:1109048:0]          mpool.c:42   UCX  WARN  object 0xc411f00 was not returned to mpool ucp_requests
[1715532388.771468] [bc11901:1109048:0]          mpool.c:42   UCX  WARN  object 0xc4120c0 was not returned to mpool ucp_requests
[1715532388.771473] [bc11901:1109048:0]          mpool.c:42   UCX  WARN  object 0xc412280 was not returned to mpool ucp_requests
[1715532388.771477] [bc11901:1109048:0]          mpool.c:42   UCX  WARN  object 0xc412440 was not returned to mpool ucp_requests
[1715532388.771481] [bc11901:1109048:0]          mpool.c:42   UCX  WARN  object 0xc412600 was not returned to mpool ucp_requests
[1715532388.771486] [bc11901:1109048:0]          mpool.c:42   UCX  WARN  object 0xc4127c0 was not returned to mpool ucp_requests
[1715532388.771491] [bc11901:1109048:0]          mpool.c:42   UCX  WARN  object 0xc412980 was not returned to mpool ucp_requests
[1715532388.771558] [bc11901:1109038:0]          mpool.c:42   UCX  WARN  object 0xb88dec0 was not returned to mpool ucp_requests
[1715532388.771577] [bc11901:1109038:0]          mpool.c:42   UCX  WARN  object 0xb88e080 was not returned to mpool ucp_requests
[1715532388.771584] [bc11901:1109038:0]          mpool.c:42   UCX  WARN  object 0xb88e240 was not returned to mpool ucp_requests
[1715532388.771589] [bc11901:1109038:0]          mpool.c:42   UCX  WARN  object 0xb88e400 was not returned to mpool ucp_requests
[1715532388.771594] [bc11901:1109038:0]          mpool.c:42   UCX  WARN  object 0xb88e5c0 was not returned to mpool ucp_requests
[1715532388.771599] [bc11901:1109038:0]          mpool.c:42   UCX  WARN  object 0xb88e780 was not returned to mpool ucp_requests
[1715532388.771603] [bc11901:1109038:0]          mpool.c:42   UCX  WARN  object 0xb88e940 was not returned to mpool ucp_requests
[1715532388.771608] [bc11901:1109038:0]          mpool.c:42   UCX  WARN  object 0xb88eb00 was not returned to mpool ucp_requests
[1715532388.771613] [bc11901:1109038:0]          mpool.c:42   UCX  WARN  object 0xb88ecc0 was not returned to mpool ucp_requests
[1715532388.771617] [bc11901:1109038:0]          mpool.c:42   UCX  WARN  object 0xb88ee80 was not returned to mpool ucp_requests
[1715532388.771622] [bc11901:1109038:0]          mpool.c:42   UCX  WARN  object 0xb88f040 was not returned to mpool ucp_requests
[1715532388.771627] [bc11901:1109038:0]          mpool.c:42   UCX  WARN  object 0xb88f200 was not returned to mpool ucp_requests
[1715532388.771631] [bc11901:1109038:0]          mpool.c:42   UCX  WARN  object 0xb88f3c0 was not returned to mpool ucp_requests
[1715532388.771929] [bc11901:1109043:0]          mpool.c:42   UCX  WARN  object 0xbcae500 was not returned to mpool ucp_requests
[1715532388.771947] [bc11901:1109043:0]          mpool.c:42   UCX  WARN  object 0xbcae6c0 was not returned to mpool ucp_requests
[1715532388.771952] [bc11901:1109043:0]          mpool.c:42   UCX  WARN  object 0xbcae880 was not returned to mpool ucp_requests
[1715532388.771957] [bc11901:1109043:0]          mpool.c:42   UCX  WARN  object 0xbcaea40 was not returned to mpool ucp_requests
[1715532388.771962] [bc11901:1109043:0]          mpool.c:42   UCX  WARN  object 0xbcaec00 was not returned to mpool ucp_requests
[1715532388.771967] [bc11901:1109043:0]          mpool.c:42   UCX  WARN  object 0xbcaedc0 was not returned to mpool ucp_requests
[1715532388.771963] [bc11901:1109034:0]          mpool.c:42   UCX  WARN  object 0xb8adc80 was not returned to mpool ucp_requests
[1715532388.771979] [bc11901:1109034:0]          mpool.c:42   UCX  WARN  object 0xb8ade40 was not returned to mpool ucp_requests
[1715532388.771971] [bc11901:1109043:0]          mpool.c:42   UCX  WARN  object 0xbcaef80 was not returned to mpool ucp_requests
[1715532388.771976] [bc11901:1109043:0]          mpool.c:42   UCX  WARN  object 0xbcaf140 was not returned to mpool ucp_requests
[1715532388.771980] [bc11901:1109043:0]          mpool.c:42   UCX  WARN  object 0xbcaf300 was not returned to mpool ucp_requests
[1715532388.771985] [bc11901:1109043:0]          mpool.c:42   UCX  WARN  object 0xbcaf4c0 was not returned to mpool ucp_requests
[1715532388.771989] [bc11901:1109043:0]          mpool.c:42   UCX  WARN  object 0xbcaf680 was not returned to mpool ucp_requests
[1715532388.771995] [bc11901:1109043:0]          mpool.c:42   UCX  WARN  object 0xbcaf840 was not returned to mpool ucp_requests
[1715532388.771999] [bc11901:1109043:0]          mpool.c:42   UCX  WARN  object 0xbcafa00 was not returned to mpool ucp_requests
[1715532388.772004] [bc11901:1109043:0]          mpool.c:42   UCX  WARN  object 0xbcafbc0 was not returned to mpool ucp_requests
[1715532388.771985] [bc11901:1109034:0]          mpool.c:42   UCX  WARN  object 0xb8ae000 was not returned to mpool ucp_requests
[1715532388.771990] [bc11901:1109034:0]          mpool.c:42   UCX  WARN  object 0xb8ae1c0 was not returned to mpool ucp_requests
[1715532388.771995] [bc11901:1109034:0]          mpool.c:42   UCX  WARN  object 0xb8ae380 was not returned to mpool ucp_requests
[1715532388.772000] [bc11901:1109034:0]          mpool.c:42   UCX  WARN  object 0xb8ae540 was not returned to mpool ucp_requests
[1715532388.772004] [bc11901:1109034:0]          mpool.c:42   UCX  WARN  object 0xb8ae700 was not returned to mpool ucp_requests
[1715532388.772009] [bc11901:1109034:0]          mpool.c:42   UCX  WARN  object 0xb8ae8c0 was not returned to mpool ucp_requests
[1715532388.772013] [bc11901:1109034:0]          mpool.c:42   UCX  WARN  object 0xb8aea80 was not returned to mpool ucp_requests
[1715532388.772018] [bc11901:1109034:0]          mpool.c:42   UCX  WARN  object 0xb8aec40 was not returned to mpool ucp_requests
[1715532388.772023] [bc11901:1109034:0]          mpool.c:42   UCX  WARN  object 0xb8aee00 was not returned to mpool ucp_requests
[1715532388.772027] [bc11901:1109034:0]          mpool.c:42   UCX  WARN  object 0xb8aefc0 was not returned to mpool ucp_requests
[1715532388.772032] [bc11901:1109034:0]          mpool.c:42   UCX  WARN  object 0xb8af180 was not returned to mpool ucp_requests
[1715532388.772086] [bc11901:1109035:0]          mpool.c:42   UCX  WARN  object 0xb3539c0 was not returned to mpool ucp_requests
[1715532388.772105] [bc11901:1109035:0]          mpool.c:42   UCX  WARN  object 0xb353b80 was not returned to mpool ucp_requests
[1715532388.772111] [bc11901:1109035:0]          mpool.c:42   UCX  WARN  object 0xb353d40 was not returned to mpool ucp_requests
[1715532388.772116] [bc11901:1109035:0]          mpool.c:42   UCX  WARN  object 0xb353f00 was not returned to mpool ucp_requests
[1715532388.772121] [bc11901:1109035:0]          mpool.c:42   UCX  WARN  object 0xb3540c0 was not returned to mpool ucp_requests
[1715532388.772125] [bc11901:1109035:0]          mpool.c:42   UCX  WARN  object 0xb354280 was not returned to mpool ucp_requests
[1715532388.772130] [bc11901:1109035:0]          mpool.c:42   UCX  WARN  object 0xb354440 was not returned to mpool ucp_requests
[1715532388.772135] [bc11901:1109035:0]          mpool.c:42   UCX  WARN  object 0xb354600 was not returned to mpool ucp_requests
[1715532388.772141] [bc11901:1109035:0]          mpool.c:42   UCX  WARN  object 0xb3547c0 was not returned to mpool ucp_requests
[1715532388.772145] [bc11901:1109035:0]          mpool.c:42   UCX  WARN  object 0xb354980 was not returned to mpool ucp_requests
[1715532388.772150] [bc11901:1109035:0]          mpool.c:42   UCX  WARN  object 0xb354b40 was not returned to mpool ucp_requests
[1715532388.772155] [bc11901:1109035:0]          mpool.c:42   UCX  WARN  object 0xb354d00 was not returned to mpool ucp_requests
[1715532388.772159] [bc11901:1109035:0]          mpool.c:42   UCX  WARN  object 0xb354ec0 was not returned to mpool ucp_requests
[1715532388.772243] [bc11901:1109051:0]          mpool.c:42   UCX  WARN  object 0xc08ca40 was not returned to mpool ucp_requests
[1715532388.772275] [bc11901:1109051:0]          mpool.c:42   UCX  WARN  object 0xc08cc00 was not returned to mpool ucp_requests
[1715532388.772280] [bc11901:1109051:0]          mpool.c:42   UCX  WARN  object 0xc08cdc0 was not returned to mpool ucp_requests
[1715532388.772285] [bc11901:1109051:0]          mpool.c:42   UCX  WARN  object 0xc08cf80 was not returned to mpool ucp_requests
[1715532388.772346] [bc11901:1109051:0]          mpool.c:42   UCX  WARN  object 0xc08d140 was not returned to mpool ucp_requests
[1715532388.772413] [bc11901:1109051:0]          mpool.c:42   UCX  WARN  object 0xc08d300 was not returned to mpool ucp_requests
[1715532388.772417] [bc11901:1109051:0]          mpool.c:42   UCX  WARN  object 0xc08d4c0 was not returned to mpool ucp_requests
[1715532388.772422] [bc11901:1109051:0]          mpool.c:42   UCX  WARN  object 0xc08d680 was not returned to mpool ucp_requests
[1715532388.772427] [bc11901:1109051:0]          mpool.c:42   UCX  WARN  object 0xc08d840 was not returned to mpool ucp_requests
[1715532388.772431] [bc11901:1109051:0]          mpool.c:42   UCX  WARN  object 0xc08da00 was not returned to mpool ucp_requests
[1715532388.772435] [bc11901:1109051:0]          mpool.c:42   UCX  WARN  object 0xc08dbc0 was not returned to mpool ucp_requests
[1715532388.772439] [bc11901:1109051:0]          mpool.c:42   UCX  WARN  object 0xc08dd80 was not returned to mpool ucp_requests
[1715532388.772451] [bc11901:1109051:0]          mpool.c:42   UCX  WARN  object 0xc08df40 was not returned to mpool ucp_requests
[1715532388.772456] [bc11901:1109051:0]          mpool.c:42   UCX  WARN  object 0xc08e100 was not returned to mpool ucp_requests
[1715532388.772975] [bc11901:1109042:0]          mpool.c:42   UCX  WARN  object 0xac04e80 was not returned to mpool ucp_requests
[1715532388.772998] [bc11901:1109042:0]          mpool.c:42   UCX  WARN  object 0xac05040 was not returned to mpool ucp_requests
[1715532388.773004] [bc11901:1109042:0]          mpool.c:42   UCX  WARN  object 0xac05200 was not returned to mpool ucp_requests
[1715532388.773013] [bc11901:1109042:0]          mpool.c:42   UCX  WARN  object 0xac053c0 was not returned to mpool ucp_requests
[1715532388.773017] [bc11901:1109042:0]          mpool.c:42   UCX  WARN  object 0xac05580 was not returned to mpool ucp_requests
[1715532388.773030] [bc11901:1109042:0]          mpool.c:42   UCX  WARN  object 0xac05740 was not returned to mpool ucp_requests
[1715532388.773035] [bc11901:1109042:0]          mpool.c:42   UCX  WARN  object 0xac05900 was not returned to mpool ucp_requests
[1715532388.773040] [bc11901:1109042:0]          mpool.c:42   UCX  WARN  object 0xac05ac0 was not returned to mpool ucp_requests
[1715532388.773044] [bc11901:1109042:0]          mpool.c:42   UCX  WARN  object 0xac05c80 was not returned to mpool ucp_requests
[1715532388.773053] [bc11901:1109042:0]          mpool.c:42   UCX  WARN  object 0xac05e40 was not returned to mpool ucp_requests
[1715532388.773058] [bc11901:1109042:0]          mpool.c:42   UCX  WARN  object 0xac06000 was not returned to mpool ucp_requests
[1715532388.773062] [bc11901:1109042:0]          mpool.c:42   UCX  WARN  object 0xac061c0 was not returned to mpool ucp_requests
[1715532388.773067] [bc11901:1109042:0]          mpool.c:42   UCX  WARN  object 0xac06380 was not returned to mpool ucp_requests
[1715532388.773072] [bc11901:1109042:0]          mpool.c:42   UCX  WARN  object 0xac06540 was not returned to mpool ucp_requests
[1715532388.773267] [bc11901:1109039:0]          mpool.c:42   UCX  WARN  object 0xb2764c0 was not returned to mpool ucp_requests
[1715532388.773285] [bc11901:1109039:0]          mpool.c:42   UCX  WARN  object 0xb276680 was not returned to mpool ucp_requests
[1715532388.773296] [bc11901:1109039:0]          mpool.c:42   UCX  WARN  object 0xb276840 was not returned to mpool ucp_requests
[1715532388.773302] [bc11901:1109039:0]          mpool.c:42   UCX  WARN  object 0xb276a00 was not returned to mpool ucp_requests
[1715532388.773307] [bc11901:1109039:0]          mpool.c:42   UCX  WARN  object 0xb276bc0 was not returned to mpool ucp_requests
[1715532388.773312] [bc11901:1109039:0]          mpool.c:42   UCX  WARN  object 0xb276d80 was not returned to mpool ucp_requests
[1715532388.773316] [bc11901:1109039:0]          mpool.c:42   UCX  WARN  object 0xb276f40 was not returned to mpool ucp_requests
[1715532388.773321] [bc11901:1109039:0]          mpool.c:42   UCX  WARN  object 0xb277100 was not returned to mpool ucp_requests
[1715532388.773326] [bc11901:1109039:0]          mpool.c:42   UCX  WARN  object 0xb2772c0 was not returned to mpool ucp_requests
[1715532388.773331] [bc11901:1109039:0]          mpool.c:42   UCX  WARN  object 0xb277480 was not returned to mpool ucp_requests
[1715532388.773336] [bc11901:1109039:0]          mpool.c:42   UCX  WARN  object 0xb277640 was not returned to mpool ucp_requests
[1715532388.773340] [bc11901:1109039:0]          mpool.c:42   UCX  WARN  object 0xb277800 was not returned to mpool ucp_requests
[1715532388.773345] [bc11901:1109039:0]          mpool.c:42   UCX  WARN  object 0xb2779c0 was not returned to mpool ucp_requests
[1715532388.774935] [bc11901:1109036:0]          mpool.c:42   UCX  WARN  object 0xa650d80 was not returned to mpool ucp_requests
[1715532388.774953] [bc11901:1109036:0]          mpool.c:42   UCX  WARN  object 0xa650f40 was not returned to mpool ucp_requests
[1715532388.774959] [bc11901:1109036:0]          mpool.c:42   UCX  WARN  object 0xa651100 was not returned to mpool ucp_requests
[1715532388.774964] [bc11901:1109036:0]          mpool.c:42   UCX  WARN  object 0xa6512c0 was not returned to mpool ucp_requests
[1715532388.774969] [bc11901:1109036:0]          mpool.c:42   UCX  WARN  object 0xa651480 was not returned to mpool ucp_requests
[1715532388.774973] [bc11901:1109036:0]          mpool.c:42   UCX  WARN  object 0xa651640 was not returned to mpool ucp_requests
[1715532388.774978] [bc11901:1109036:0]          mpool.c:42   UCX  WARN  object 0xa651800 was not returned to mpool ucp_requests
[1715532388.774982] [bc11901:1109036:0]          mpool.c:42   UCX  WARN  object 0xa6519c0 was not returned to mpool ucp_requests
[1715532388.774987] [bc11901:1109036:0]          mpool.c:42   UCX  WARN  object 0xa651b80 was not returned to mpool ucp_requests
[1715532388.774991] [bc11901:1109036:0]          mpool.c:42   UCX  WARN  object 0xa651d40 was not returned to mpool ucp_requests
[1715532388.774996] [bc11901:1109036:0]          mpool.c:42   UCX  WARN  object 0xa651f00 was not returned to mpool ucp_requests
[1715532388.775001] [bc11901:1109036:0]          mpool.c:42   UCX  WARN  object 0xa6520c0 was not returned to mpool ucp_requests
[1715532388.775005] [bc11901:1109036:0]          mpool.c:42   UCX  WARN  object 0xa652280 was not returned to mpool ucp_requests
[1715532388.775330] [bc11901:1109032:0]          mpool.c:42   UCX  WARN  object 0xb9c23c0 was not returned to mpool ucp_requests
[1715532388.775347] [bc11901:1109032:0]          mpool.c:42   UCX  WARN  object 0xb9c2580 was not returned to mpool ucp_requests
[1715532388.775353] [bc11901:1109032:0]          mpool.c:42   UCX  WARN  object 0xb9c2740 was not returned to mpool ucp_requests
[1715532388.775358] [bc11901:1109032:0]          mpool.c:42   UCX  WARN  object 0xb9c2900 was not returned to mpool ucp_requests
[1715532388.775363] [bc11901:1109032:0]          mpool.c:42   UCX  WARN  object 0xb9c2ac0 was not returned to mpool ucp_requests
[1715532388.775367] [bc11901:1109032:0]          mpool.c:42   UCX  WARN  object 0xb9c2c80 was not returned to mpool ucp_requests
[1715532388.775372] [bc11901:1109032:0]          mpool.c:42   UCX  WARN  object 0xb9c2e40 was not returned to mpool ucp_requests
[1715532388.775377] [bc11901:1109032:0]          mpool.c:42   UCX  WARN  object 0xb9c3000 was not returned to mpool ucp_requests
[1715532388.775382] [bc11901:1109032:0]          mpool.c:42   UCX  WARN  object 0xb9c3380 was not returned to mpool ucp_requests
[1715532388.775386] [bc11901:1109032:0]          mpool.c:42   UCX  WARN  object 0xb9c3540 was not returned to mpool ucp_requests
[1715532388.776509] [bc11901:1109033:0]          mpool.c:42   UCX  WARN  object 0xa57af80 was not returned to mpool ucp_requests
[1715532388.776526] [bc11901:1109033:0]          mpool.c:42   UCX  WARN  object 0xa57b140 was not returned to mpool ucp_requests
[1715532388.776532] [bc11901:1109033:0]          mpool.c:42   UCX  WARN  object 0xa57b300 was not returned to mpool ucp_requests
[1715532388.776537] [bc11901:1109033:0]          mpool.c:42   UCX  WARN  object 0xa57b4c0 was not returned to mpool ucp_requests
[1715532388.776542] [bc11901:1109033:0]          mpool.c:42   UCX  WARN  object 0xa57b680 was not returned to mpool ucp_requests
[1715532388.776547] [bc11901:1109033:0]          mpool.c:42   UCX  WARN  object 0xa57b840 was not returned to mpool ucp_requests
[1715532388.776551] [bc11901:1109033:0]          mpool.c:42   UCX  WARN  object 0xa57ba00 was not returned to mpool ucp_requests
[1715532388.776556] [bc11901:1109033:0]          mpool.c:42   UCX  WARN  object 0xa57bbc0 was not returned to mpool ucp_requests
[1715532388.776560] [bc11901:1109033:0]          mpool.c:42   UCX  WARN  object 0xa57bf40 was not returned to mpool ucp_requests
[1715532388.776565] [bc11901:1109033:0]          mpool.c:42   UCX  WARN  object 0xa57c100 was not returned to mpool ucp_requests
[1715532388.777255] [bc11901:1109040:0]          mpool.c:42   UCX  WARN  object 0xb671d80 was not returned to mpool ucp_requests
[1715532388.777272] [bc11901:1109040:0]          mpool.c:42   UCX  WARN  object 0xb671f40 was not returned to mpool ucp_requests
[1715532388.777278] [bc11901:1109040:0]          mpool.c:42   UCX  WARN  object 0xb672100 was not returned to mpool ucp_requests
[1715532388.777283] [bc11901:1109040:0]          mpool.c:42   UCX  WARN  object 0xb6722c0 was not returned to mpool ucp_requests
[1715532388.777287] [bc11901:1109040:0]          mpool.c:42   UCX  WARN  object 0xb672480 was not returned to mpool ucp_requests
[1715532388.777331] [bc11901:1109040:0]          mpool.c:42   UCX  WARN  object 0xb672640 was not returned to mpool ucp_requests
[1715532388.777335] [bc11901:1109040:0]          mpool.c:42   UCX  WARN  object 0xb672800 was not returned to mpool ucp_requests
[1715532388.777340] [bc11901:1109040:0]          mpool.c:42   UCX  WARN  object 0xb6729c0 was not returned to mpool ucp_requests
[1715532388.777344] [bc11901:1109040:0]          mpool.c:42   UCX  WARN  object 0xb672b80 was not returned to mpool ucp_requests
[1715532388.777349] [bc11901:1109040:0]          mpool.c:42   UCX  WARN  object 0xb672d40 was not returned to mpool ucp_requests
[1715532388.777353] [bc11901:1109040:0]          mpool.c:42   UCX  WARN  object 0xb672f00 was not returned to mpool ucp_requests
[1715532388.777358] [bc11901:1109040:0]          mpool.c:42   UCX  WARN  object 0xb6730c0 was not returned to mpool ucp_requests
[1715532388.777362] [bc11901:1109040:0]          mpool.c:42   UCX  WARN  object 0xb673280 was not returned to mpool ucp_requests
[1715532388.777480] [bc11901:1109031:0]          mpool.c:42   UCX  WARN  object 0xb2c8740 was not returned to mpool ucp_requests
[1715532388.777498] [bc11901:1109031:0]          mpool.c:42   UCX  WARN  object 0xb2c8900 was not returned to mpool ucp_requests
[1715532388.777503] [bc11901:1109031:0]          mpool.c:42   UCX  WARN  object 0xb2c8ac0 was not returned to mpool ucp_requests
[1715532388.777509] [bc11901:1109031:0]          mpool.c:42   UCX  WARN  object 0xb2c8c80 was not returned to mpool ucp_requests
[1715532388.777513] [bc11901:1109031:0]          mpool.c:42   UCX  WARN  object 0xb2c8e40 was not returned to mpool ucp_requests
[1715532388.777518] [bc11901:1109031:0]          mpool.c:42   UCX  WARN  object 0xb2c9000 was not returned to mpool ucp_requests
[1715532388.777523] [bc11901:1109031:0]          mpool.c:42   UCX  WARN  object 0xb2c91c0 was not returned to mpool ucp_requests
[1715532388.777528] [bc11901:1109031:0]          mpool.c:42   UCX  WARN  object 0xb2c9380 was not returned to mpool ucp_requests
[1715532388.777533] [bc11901:1109031:0]          mpool.c:42   UCX  WARN  object 0xb2c9540 was not returned to mpool ucp_requests
[1715532388.777537] [bc11901:1109031:0]          mpool.c:42   UCX  WARN  object 0xb2c9700 was not returned to mpool ucp_requests
[1715532388.777542] [bc11901:1109031:0]          mpool.c:42   UCX  WARN  object 0xb2c98c0 was not returned to mpool ucp_requests


           ************************************************************
           *        Program running with 16 parallel MPI-processes    *
           *              working on a common directory               *
           ************************************************************
-------------------------------------------------------------------------------
                                 ORCA SCF
-------------------------------------------------------------------------------

------------
SCF SETTINGS
------------
Hamiltonian:
 Ab initio Hamiltonian  Method          .... Hartree-Fock(GTOs)


General Settings:
 Integral files         IntName         .... 1,4-cyclohexadiene
 Hartree-Fock type      HFTyp           .... RHF
 Total Charge           Charge          ....    0
 Multiplicity           Mult            ....    1
 Number of Electrons    NEL             ....   44
 Basis Dimension        Dim             ....  848
 Nuclear Repulsion      ENuc            ....    218.4931685341 Eh

Convergence Acceleration:
 DIIS                   CNVDIIS         .... on
   Start iteration      DIISMaxIt       ....    12
   Startup error        DIISStart       ....  0.200000
   # of expansion vecs  DIISMaxEq       ....     5
   Bias factor          DIISBfac        ....   1.050
   Max. coefficient     DIISMaxC        ....  10.000
 Trust-Rad. Augm. Hess. CNVTRAH         .... auto
   Auto Start mean grad. ratio tolernc. ....  1.125000
   Auto Start start iteration           ....    20
   Auto Start num. interpolation iter.  ....    10
   Max. Number of Micro iterations      ....    16
   Max. Number of Macro iterations      .... Maxiter - #DIIS iter
   Number of Davidson start vectors     ....     2
   Converg. threshold I  (grad. norm)   ....   1.000e-05
   Converg. threshold II (energy diff.) ....   1.000e-08
   Grad. Scal. Fac. for Micro threshold ....   0.100
   Minimum threshold for Micro iter.    ....   0.010
   NR start threshold (gradient norm)   ....   0.001
   Initial trust radius                 ....   0.400
   Minimum AH scaling param. (alpha)    ....   1.000
   Maximum AH scaling param. (alpha)    .... 1000.000
   Orbital update algorithm             .... Taylor
   White noise on init. David. guess    .... on
   Maximum white noise                  ....   0.010
   Quad. conv. algorithm                .... NR
 SOSCF                  CNVSOSCF        .... on
   Start iteration      SOSCFMaxIt      ....   150
   Startup grad/error   SOSCFStart      ....  0.003300
 Level Shifting         CNVShift        .... on
   Level shift para.    LevelShift      ....    0.2500
   Turn off err/grad.   ShiftErr        ....    0.0010
 Zerner damping         CNVZerner       .... off
 Static damping         CNVDamp         .... on
   Fraction old density DampFac         ....    0.7000
   Max. Damping (<1)    DampMax         ....    0.9800
   Min. Damping (>=0)   DampMin         ....    0.0000
   Turn off err/grad.   DampErr         ....    0.1000
 Fernandez-Rico         CNVRico         .... off

SCF Procedure:
 Maximum # iterations   MaxIter         ....   125
 SCF integral mode      SCFMode         .... Direct
   Integral package                     .... SHARK and LIBINT hybrid scheme
 Reset frequency        DirectResetFreq ....    20
 Integral Threshold     Thresh          ....  2.500e-11 Eh
 Primitive CutOff       TCut            ....  2.500e-12 Eh

Convergence Tolerance:
 Convergence Check Mode ConvCheckMode   .... Total+1el-Energy
 Convergence forced     ConvForced      .... 1
 Energy Change          TolE            ....  1.000e-08 Eh
 1-El. energy change                    ....  1.000e-05 Eh
 Orbital Gradient       TolG            ....  1.000e-05
 Orbital Rotation angle TolX            ....  1.000e-05
 DIIS Error             TolErr          ....  5.000e-07


Diagonalization of the overlap matrix:
Smallest eigenvalue                        ... 5.826e-07
Time for diagonalization                   ...    0.148 sec
Threshold for overlap eigenvalues          ... 1.000e-08
Number of eigenvalues below threshold      ... 0
Time for construction of square roots      ...    0.079 sec
Total time needed                          ...    0.234 sec

Time for model grid setup =    0.488 sec

------------------------------
INITIAL GUESS: MODEL POTENTIAL
------------------------------
Loading Hartree-Fock densities                     ... done
Calculating cut-offs                               ... done
Initializing the effective Hamiltonian             ... done
Setting up the integral package (SHARK)            ... done
Starting the Coulomb interaction                   ... done (   0.5 sec)
Reading the grid                                   ... done
Mapping shells                                     ... done
Starting the XC term evaluation                    ... done (   0.2 sec)
Transforming the Hamiltonian                       ... done (   0.1 sec)
Diagonalizing the Hamiltonian                      ... done (   0.2 sec)
Back transforming the eigenvectors                 ... done (   0.0 sec)
Now organizing SCF variables                       ... done
                      ------------------
                      INITIAL GUESS DONE (   1.5 sec)
                      ------------------
--------------
SCF ITERATIONS
--------------
ITER       Energy         Delta-E        Max-DP      RMS-DP      [F,P]     Damp
               ***  Starting incremental Fock matrix formation  ***
  0   -231.6085485172   0.000000000000 0.14378019  0.00077245  0.2330956 0.7000
  1   -231.7188095397  -0.110261022562 0.10941443  0.00059839  0.1547529 0.7000
                               ***Turning on DIIS***
  2   -231.7864631547  -0.067653614966 0.27069565  0.00145651  0.0974578 0.0000
  3   -231.3614161322   0.425047022517 0.02427141  0.00018475  0.0369307 0.0000
  4   -231.9020956659  -0.540679533685 0.01094047  0.00007221  0.0072657 0.0000
  5   -231.9127508348  -0.010655168926 0.00431075  0.00002801  0.0033633 0.0000
                      *** Initiating the SOSCF procedure ***
                           *** Shutting down DIIS ***
                      *** Re-Reading the Fockian *** 
                      *** Removing any level shift *** 
ITER      Energy       Delta-E        Grad      Rot      Max-DP    RMS-DP
  6   -231.92545972  -0.0127088854  0.000983  0.000983  0.000633  0.000009
               *** Restarting incremental Fock matrix formation ***
  7   -231.92834427  -0.0028845477  0.000097  0.000128  0.000225  0.000002
  8   -231.92834446  -0.0000001895  0.000029  0.000063  0.000069  0.000001
  9   -231.92834448  -0.0000000261  0.000003  0.000003  0.000077  0.000001
                  ***Gradient check signals convergence***
              ***Rediagonalizing the Fockian in SOSCF/NRSCF***

               *****************************************************
               *                     SUCCESS                       *
               *           SCF CONVERGED AFTER  10 CYCLES          *
               *****************************************************


----------------
TOTAL SCF ENERGY
----------------

Total Energy       :         -231.92834448 Eh           -6311.09110 eV

Components:
Nuclear Repulsion  :          218.49316853 Eh            5945.50138 eV
Electronic Energy  :         -450.42151302 Eh          -12256.59248 eV
One Electron Energy:         -744.88943115 Eh          -20269.47190 eV
Two Electron Energy:          294.46791813 Eh            8012.87942 eV

Virial components:
Potential Energy   :         -463.63181195 Eh          -12616.06299 eV
Kinetic Energy     :          231.70346747 Eh            6304.97189 eV
Virial Ratio       :            2.00097054


---------------
SCF CONVERGENCE
---------------

  Last Energy change         ...   -5.6963e-10  Tolerance :   1.0000e-08
  Last MAX-Density change    ...    4.7905e-05  Tolerance :   1.0000e-07
  Last RMS-Density change    ...    5.9624e-07  Tolerance :   5.0000e-09
  Last Orbital Gradient      ...    1.5749e-06  Tolerance :   1.0000e-05
  Last Orbital Rotation      ...    1.8470e-06  Tolerance :   1.0000e-05

             **** THE GBW FILE WAS UPDATED (1,4-cyclohexadiene.gbw) ****
             **** DENSITY 1,4-cyclohexadiene.scfp WAS UPDATED ****
             **** ENERGY FILE WAS UPDATED (1,4-cyclohexadiene.en.tmp) ****
             **** THE GBW FILE WAS UPDATED (1,4-cyclohexadiene.gbw) ****
             **** DENSITY 1,4-cyclohexadiene.scfp WAS UPDATED ****
----------------
ORBITAL ENERGIES
----------------

  NO   OCC          E(Eh)            E(eV) 
   0   2.0000     -11.227899      -305.5267 
   1   2.0000     -11.227898      -305.5266 
   2   2.0000     -11.222806      -305.3881 
   3   2.0000     -11.222745      -305.3864 
   4   2.0000     -11.221026      -305.3396 
   5   2.0000     -11.220990      -305.3387 
   6   2.0000      -1.125506       -30.6266 
   7   2.0000      -1.012025       -27.5386 
   8   2.0000      -1.005419       -27.3589 
   9   2.0000      -0.864307       -23.5190 
  10   2.0000      -0.786151       -21.3922 
  11   2.0000      -0.683035       -18.5863 
  12   2.0000      -0.655484       -17.8366 
  13   2.0000      -0.603228       -16.4147 
  14   2.0000      -0.596973       -16.2445 
  15   2.0000      -0.565342       -15.3837 
  16   2.0000      -0.562270       -15.3001 
  17   2.0000      -0.533843       -14.5266 
  18   2.0000      -0.495586       -13.4856 
  19   2.0000      -0.447671       -12.1817 
  20   2.0000      -0.362988        -9.8774 
  21   2.0000      -0.333634        -9.0786 
  22   0.0000       0.026899         0.7320 
  23   0.0000       0.031253         0.8504 
  24   0.0000       0.031902         0.8681 
  25   0.0000       0.039625         1.0783 
  26   0.0000       0.042796         1.1645 
  27   0.0000       0.048964         1.3324 
  28   0.0000       0.050947         1.3864 
  29   0.0000       0.062964         1.7133 
  30   0.0000       0.075264         2.0480 
  31   0.0000       0.088484         2.4078 
  32   0.0000       0.101166         2.7529 
  33   0.0000       0.102960         2.8017 
  34   0.0000       0.103768         2.8237 
  35   0.0000       0.106549         2.8993 
  36   0.0000       0.106900         2.9089 
  37   0.0000       0.108327         2.9477 
  38   0.0000       0.112647         3.0653 
  39   0.0000       0.117951         3.2096 
  40   0.0000       0.127721         3.4755 
  41   0.0000       0.129066         3.5121 
  42   0.0000       0.131728         3.5845 
  43   0.0000       0.134430         3.6580 
  44   0.0000       0.135900         3.6980 
  45   0.0000       0.140781         3.8309 
  46   0.0000       0.142724         3.8837 
  47   0.0000       0.151245         4.1156 
  48   0.0000       0.165014         4.4903 
  49   0.0000       0.172973         4.7068 
  50   0.0000       0.176735         4.8092 
  51   0.0000       0.189991         5.1699 
  52   0.0000       0.194046         5.2803 
  53   0.0000       0.213592         5.8121 
  54   0.0000       0.214100         5.8260 
  55   0.0000       0.224656         6.1132 
  56   0.0000       0.228501         6.2178 
  57   0.0000       0.232900         6.3375 
  58   0.0000       0.249006         6.7758 
  59   0.0000       0.250809         6.8249 
  60   0.0000       0.255486         6.9521 
  61   0.0000       0.256104         6.9690 
  62   0.0000       0.269460         7.3324 
  63   0.0000       0.270357         7.3568 
  64   0.0000       0.276026         7.5111 
  65   0.0000       0.286853         7.8057 
  66   0.0000       0.287142         7.8135 
  67   0.0000       0.290142         7.8952 
  68   0.0000       0.299384         8.1467 
  69   0.0000       0.299402         8.1472 
  70   0.0000       0.301126         8.1941 
  71   0.0000       0.301453         8.2030 
  72   0.0000       0.302928         8.2431 
  73   0.0000       0.314354         8.5540 
  74   0.0000       0.316582         8.6146 
  75   0.0000       0.317956         8.6520 
  76   0.0000       0.318392         8.6639 
  77   0.0000       0.319871         8.7041 
  78   0.0000       0.327000         8.8981 
  79   0.0000       0.340737         9.2719 
  80   0.0000       0.342279         9.3139 
  81   0.0000       0.354220         9.6388 
  82   0.0000       0.359362         9.7787 
  83   0.0000       0.365138         9.9359 
  84   0.0000       0.366167         9.9639 
  85   0.0000       0.366338         9.9686 
  86   0.0000       0.373546        10.1647 
  87   0.0000       0.376626        10.2485 
  88   0.0000       0.392709        10.6861 
  89   0.0000       0.396458        10.7882 
  90   0.0000       0.400219        10.8905 
  91   0.0000       0.401050        10.9131 
  92   0.0000       0.409780        11.1507 
  93   0.0000       0.417454        11.3595 
  94   0.0000       0.425046        11.5661 
  95   0.0000       0.430403        11.7119 
  96   0.0000       0.430879        11.7248 
  97   0.0000       0.438213        11.9244 
  98   0.0000       0.439170        11.9504 
  99   0.0000       0.441332        12.0093 
 100   0.0000       0.450573        12.2607 
 101   0.0000       0.451605        12.2888 
 102   0.0000       0.463988        12.6258 
 103   0.0000       0.470593        12.8055 
 104   0.0000       0.474067        12.9000 
 105   0.0000       0.476515        12.9666 
 106   0.0000       0.485921        13.2226 
 107   0.0000       0.486782        13.2460 
 108   0.0000       0.492899        13.4125 
 109   0.0000       0.497234        13.5304 
 110   0.0000       0.502190        13.6653 
 111   0.0000       0.504385        13.7250 
 112   0.0000       0.524854        14.2820 
 113   0.0000       0.525035        14.2869 
 114   0.0000       0.529246        14.4015 
 115   0.0000       0.532609        14.4930 
 116   0.0000       0.533067        14.5055 
 117   0.0000       0.546963        14.8836 
 118   0.0000       0.576380        15.6841 
 119   0.0000       0.578234        15.7345 
 120   0.0000       0.579487        15.7686 
 121   0.0000       0.579596        15.7716 
 122   0.0000       0.583227        15.8704 
 123   0.0000       0.585433        15.9304 
 124   0.0000       0.596289        16.2259 
 125   0.0000       0.597908        16.2699 
 126   0.0000       0.602473        16.3941 
 127   0.0000       0.613145        16.6845 
 128   0.0000       0.613683        16.6992 
 129   0.0000       0.617599        16.8057 
 130   0.0000       0.658391        17.9157 
 131   0.0000       0.659106        17.9352 
 132   0.0000       0.659107        17.9352 
 133   0.0000       0.667352        18.1596 
 134   0.0000       0.673100        18.3160 
 135   0.0000       0.674625        18.3575 
 136   0.0000       0.677122        18.4254 
 137   0.0000       0.680481        18.5168 
 138   0.0000       0.691368        18.8131 
 139   0.0000       0.692467        18.8430 
 140   0.0000       0.696884        18.9632 
 141   0.0000       0.713188        19.4068 
 142   0.0000       0.727202        19.7882 
 143   0.0000       0.729323        19.8459 
 144   0.0000       0.736566        20.0430 
 145   0.0000       0.736918        20.0526 
 146   0.0000       0.747053        20.3283 
 147   0.0000       0.758717        20.6457 
 148   0.0000       0.761083        20.7101 
 149   0.0000       0.765654        20.8345 
 150   0.0000       0.769073        20.9275 
 151   0.0000       0.776413        21.1273 
 152   0.0000       0.783057        21.3081 
 153   0.0000       0.785471        21.3738 
 154   0.0000       0.786334        21.3972 
 155   0.0000       0.797405        21.6985 
 156   0.0000       0.814416        22.1614 
 157   0.0000       0.822838        22.3905 
 158   0.0000       0.826497        22.4901 
 159   0.0000       0.826662        22.4946 
 160   0.0000       0.834220        22.7003 
 161   0.0000       0.846029        23.0216 
 162   0.0000       0.848578        23.0910 
 163   0.0000       0.858284        23.3551 
 164   0.0000       0.865898        23.5623 
 165   0.0000       0.874870        23.8064 
 166   0.0000       0.880890        23.9702 
 167   0.0000       0.887165        24.1410 
 168   0.0000       0.901722        24.5371 
 169   0.0000       0.905381        24.6367 
 170   0.0000       0.908543        24.7227 
 171   0.0000       0.910083        24.7646 
 172   0.0000       0.918960        25.0062 
 173   0.0000       0.922646        25.1065 
 174   0.0000       0.926049        25.1991 
 175   0.0000       0.927791        25.2465 
 176   0.0000       0.944808        25.7095 
 177   0.0000       0.950938        25.8763 
 178   0.0000       0.952877        25.9291 
 179   0.0000       0.959615        26.1124 
 180   0.0000       0.962109        26.1803 
 181   0.0000       0.970141        26.3989 
 182   0.0000       0.974678        26.5223 
 183   0.0000       0.977113        26.5886 
 184   0.0000       0.978113        26.6158 
 185   0.0000       1.001599        27.2549 
 186   0.0000       1.002814        27.2880 
 187   0.0000       1.008412        27.4403 
 188   0.0000       1.020242        27.7622 
 189   0.0000       1.035398        28.1746 
 190   0.0000       1.046051        28.4645 
 191   0.0000       1.048266        28.5248 
 192   0.0000       1.049738        28.5648 
 193   0.0000       1.058017        28.7901 
 194   0.0000       1.077040        29.3078 
 195   0.0000       1.080000        29.3883 
 196   0.0000       1.082368        29.4527 
 197   0.0000       1.089070        29.6351 
 198   0.0000       1.101459        29.9722 
 199   0.0000       1.108046        30.1515 
 200   0.0000       1.111387        30.2424 
 201   0.0000       1.121433        30.5157 
 202   0.0000       1.140080        31.0231 
 203   0.0000       1.142611        31.0920 
 204   0.0000       1.150966        31.3194 
 205   0.0000       1.151779        31.3415 
 206   0.0000       1.184775        32.2394 
 207   0.0000       1.199579        32.6422 
 208   0.0000       1.201288        32.6887 
 209   0.0000       1.205040        32.7908 
 210   0.0000       1.205734        32.8097 
 211   0.0000       1.207319        32.8528 
 212   0.0000       1.207504        32.8579 
 213   0.0000       1.218053        33.1449 
 214   0.0000       1.227400        33.3992 
 215   0.0000       1.239611        33.7315 
 216   0.0000       1.243102        33.8265 
 217   0.0000       1.247013        33.9330 
 218   0.0000       1.278467        34.7888 
 219   0.0000       1.285021        34.9672 
 220   0.0000       1.286848        35.0169 
 221   0.0000       1.297502        35.3068 
 222   0.0000       1.304401        35.4945 
 223   0.0000       1.304640        35.5010 
 224   0.0000       1.304777        35.5048 
 225   0.0000       1.307503        35.5790 
 226   0.0000       1.312663        35.7194 
 227   0.0000       1.338708        36.4281 
 228   0.0000       1.348643        36.6984 
 229   0.0000       1.348900        36.7054 
 230   0.0000       1.357061        36.9275 
 231   0.0000       1.359426        36.9919 
 232   0.0000       1.373437        37.3731 
 233   0.0000       1.377770        37.4910 
 234   0.0000       1.386772        37.7360 
 235   0.0000       1.399662        38.0868 
 236   0.0000       1.422900        38.7191 
 237   0.0000       1.424349        38.7585 
 238   0.0000       1.425626        38.7933 
 239   0.0000       1.434673        39.0394 
 240   0.0000       1.457510        39.6609 
 241   0.0000       1.464037        39.8385 
 242   0.0000       1.475481        40.1499 
 243   0.0000       1.488596        40.5067 
 244   0.0000       1.489883        40.5418 
 245   0.0000       1.502677        40.8899 
 246   0.0000       1.514599        41.2143 
 247   0.0000       1.527035        41.5527 
 248   0.0000       1.531647        41.6782 
 249   0.0000       1.533191        41.7202 
 250   0.0000       1.542204        41.9655 
 251   0.0000       1.542448        41.9722 
 252   0.0000       1.550716        42.1971 
 253   0.0000       1.554947        42.3123 
 254   0.0000       1.555754        42.3342 
 255   0.0000       1.573740        42.8236 
 256   0.0000       1.608088        43.7583 
 257   0.0000       1.615871        43.9701 
 258   0.0000       1.616275        43.9811 
 259   0.0000       1.618945        44.0537 
 260   0.0000       1.621492        44.1231 
 261   0.0000       1.633426        44.4478 
 262   0.0000       1.653498        44.9940 
 263   0.0000       1.666268        45.3415 
 264   0.0000       1.671272        45.4776 
 265   0.0000       1.674816        45.5740 
 266   0.0000       1.675851        45.6022 
 267   0.0000       1.697042        46.1789 
 268   0.0000       1.718299        46.7573 
 269   0.0000       1.725939        46.9652 
 270   0.0000       1.735932        47.2371 
 271   0.0000       1.742386        47.4127 
 272   0.0000       1.750702        47.6390 
 273   0.0000       1.799710        48.9726 
 274   0.0000       1.803428        49.0738 
 275   0.0000       1.809257        49.2324 
 276   0.0000       1.813046        49.3355 
 277   0.0000       1.815556        49.4038 
 278   0.0000       1.841653        50.1139 
 279   0.0000       1.852373        50.4056 
 280   0.0000       1.858485        50.5720 
 281   0.0000       1.864710        50.7413 
 282   0.0000       1.867740        50.8238 
 283   0.0000       1.871716        50.9320 
 284   0.0000       1.871853        50.9357 
 285   0.0000       1.875691        51.0401 
 286   0.0000       1.888617        51.3919 
 287   0.0000       1.890999        51.4567 
 288   0.0000       1.905250        51.8445 
 289   0.0000       1.913771        52.0763 
 290   0.0000       1.935122        52.6573 
 291   0.0000       1.944204        52.9045 
 292   0.0000       1.967237        53.5312 
 293   0.0000       1.974551        53.7303 
 294   0.0000       1.988367        54.1062 
 295   0.0000       1.997631        54.3583 
 296   0.0000       1.999966        54.4219 
 297   0.0000       2.016908        54.8829 
 298   0.0000       2.016963        54.8843 
 299   0.0000       2.017816        54.9076 
 300   0.0000       2.023872        55.0724 
 301   0.0000       2.032903        55.3181 
 302   0.0000       2.033867        55.3443 
 303   0.0000       2.048113        55.7320 
 304   0.0000       2.062465        56.1225 
 305   0.0000       2.067952        56.2718 
 306   0.0000       2.083870        56.7050 
 307   0.0000       2.090827        56.8943 
 308   0.0000       2.097434        57.0741 
 309   0.0000       2.105848        57.3030 
 310   0.0000       2.119568        57.6764 
 311   0.0000       2.121741        57.7355 
 312   0.0000       2.125653        57.8420 
 313   0.0000       2.132391        58.0253 
 314   0.0000       2.145045        58.3696 
 315   0.0000       2.146069        58.3975 
 316   0.0000       2.146619        58.4125 
 317   0.0000       2.164644        58.9030 
 318   0.0000       2.178492        59.2798 
 319   0.0000       2.181450        59.3603 
 320   0.0000       2.187886        59.5354 
 321   0.0000       2.203706        59.9659 
 322   0.0000       2.213558        60.2340 
 323   0.0000       2.232353        60.7454 
 324   0.0000       2.239999        60.9535 
 325   0.0000       2.247618        61.1608 
 326   0.0000       2.254418        61.3458 
 327   0.0000       2.256777        61.4100 
 328   0.0000       2.261022        61.5255 
 329   0.0000       2.265790        61.6553 
 330   0.0000       2.269059        61.7442 
 331   0.0000       2.273123        61.8548 
 332   0.0000       2.274642        61.8962 
 333   0.0000       2.287698        62.2514 
 334   0.0000       2.297529        62.5189 
 335   0.0000       2.311767        62.9064 
 336   0.0000       2.321371        63.1677 
 337   0.0000       2.321386        63.1681 
 338   0.0000       2.329851        63.3985 
 339   0.0000       2.333923        63.5093 
 340   0.0000       2.346072        63.8399 
 341   0.0000       2.349614        63.9363 
 342   0.0000       2.353168        64.0330 
 343   0.0000       2.365792        64.3765 
 344   0.0000       2.370583        64.5068 
 345   0.0000       2.370622        64.5079 
 346   0.0000       2.379547        64.7508 
 347   0.0000       2.384982        64.8987 
 348   0.0000       2.389217        65.0139 
 349   0.0000       2.392410        65.1008 
 350   0.0000       2.400968        65.3337 
 351   0.0000       2.411184        65.6117 
 352   0.0000       2.426690        66.0336 
 353   0.0000       2.433428        66.2169 
 354   0.0000       2.453137        66.7533 
 355   0.0000       2.457938        66.8839 
 356   0.0000       2.480256        67.4912 
 357   0.0000       2.481147        67.5154 
 358   0.0000       2.499930        68.0265 
 359   0.0000       2.507553        68.2340 
 360   0.0000       2.513289        68.3901 
 361   0.0000       2.520688        68.5914 
 362   0.0000       2.527898        68.7876 
 363   0.0000       2.533541        68.9411 
 364   0.0000       2.549022        69.3624 
 365   0.0000       2.551065        69.4180 
 366   0.0000       2.555322        69.5338 
 367   0.0000       2.564774        69.7911 
 368   0.0000       2.572756        70.0082 
 369   0.0000       2.578819        70.1732 
 370   0.0000       2.579322        70.1869 
 371   0.0000       2.587002        70.3959 
 372   0.0000       2.591204        70.5103 
 373   0.0000       2.606816        70.9351 
 374   0.0000       2.627602        71.5007 
 375   0.0000       2.628842        71.5344 
 376   0.0000       2.644705        71.9661 
 377   0.0000       2.653216        72.1977 
 378   0.0000       2.658304        72.3361 
 379   0.0000       2.659396        72.3658 
 380   0.0000       2.660064        72.3840 
 381   0.0000       2.693578        73.2960 
 382   0.0000       2.699829        73.4661 
 383   0.0000       2.713763        73.8452 
 384   0.0000       2.718166        73.9651 
 385   0.0000       2.726813        74.2004 
 386   0.0000       2.730063        74.2888 
 387   0.0000       2.745505        74.7090 
 388   0.0000       2.789205        75.8981 
 389   0.0000       2.805183        76.3329 
 390   0.0000       2.806214        76.3610 
 391   0.0000       2.813251        76.5524 
 392   0.0000       2.825306        76.8805 
 393   0.0000       2.835095        77.1469 
 394   0.0000       2.851008        77.5799 
 395   0.0000       2.861546        77.8666 
 396   0.0000       2.861576        77.8674 
 397   0.0000       2.864147        77.9374 
 398   0.0000       2.875907        78.2574 
 399   0.0000       2.886594        78.5482 
 400   0.0000       2.901597        78.9565 
 401   0.0000       2.908615        79.1474 
 402   0.0000       2.915528        79.3355 
 403   0.0000       2.918194        79.4081 
 404   0.0000       2.934529        79.8526 
 405   0.0000       2.954446        80.3946 
 406   0.0000       2.986892        81.2775 
 407   0.0000       2.994842        81.4938 
 408   0.0000       2.995802        81.5199 
 409   0.0000       2.998979        81.6064 
 410   0.0000       3.020338        82.1876 
 411   0.0000       3.025530        82.3289 
 412   0.0000       3.028939        82.4216 
 413   0.0000       3.052157        83.0534 
 414   0.0000       3.055790        83.1523 
 415   0.0000       3.059102        83.2424 
 416   0.0000       3.082261        83.8726 
 417   0.0000       3.090053        84.0846 
 418   0.0000       3.090824        84.1056 
 419   0.0000       3.097636        84.2910 
 420   0.0000       3.102660        84.4277 
 421   0.0000       3.112006        84.6820 
 422   0.0000       3.146604        85.6234 
 423   0.0000       3.148443        85.6735 
 424   0.0000       3.156594        85.8953 
 425   0.0000       3.158481        85.9466 
 426   0.0000       3.195192        86.9456 
 427   0.0000       3.200254        87.0833 
 428   0.0000       3.219728        87.6132 
 429   0.0000       3.223318        87.7109 
 430   0.0000       3.228761        87.8591 
 431   0.0000       3.263610        88.8073 
 432   0.0000       3.269027        88.9547 
 433   0.0000       3.275039        89.1183 
 434   0.0000       3.286509        89.4305 
 435   0.0000       3.308685        90.0339 
 436   0.0000       3.319341        90.3238 
 437   0.0000       3.344729        91.0147 
 438   0.0000       3.345847        91.0451 
 439   0.0000       3.357303        91.3569 
 440   0.0000       3.359661        91.4210 
 441   0.0000       3.365298        91.5744 
 442   0.0000       3.371950        91.7554 
 443   0.0000       3.384581        92.0991 
 444   0.0000       3.388883        92.2162 
 445   0.0000       3.406208        92.6876 
 446   0.0000       3.408078        92.7385 
 447   0.0000       3.408863        92.7599 
 448   0.0000       3.458432        94.1087 
 449   0.0000       3.485756        94.8522 
 450   0.0000       3.498533        95.1999 
 451   0.0000       3.500671        95.2581 
 452   0.0000       3.502184        95.2993 
 453   0.0000       3.547269        96.5261 
 454   0.0000       3.557951        96.8168 
 455   0.0000       3.562419        96.9384 
 456   0.0000       3.571191        97.1770 
 457   0.0000       3.591783        97.7374 
 458   0.0000       3.607946        98.1772 
 459   0.0000       3.675178       100.0067 
 460   0.0000       3.678961       100.1096 
 461   0.0000       3.697927       100.6257 
 462   0.0000       3.703272       100.7712 
 463   0.0000       3.709511       100.9409 
 464   0.0000       3.711282       100.9891 
 465   0.0000       3.728808       101.4660 
 466   0.0000       3.766925       102.5032 
 467   0.0000       3.789839       103.1268 
 468   0.0000       3.789951       103.1298 
 469   0.0000       3.797179       103.3265 
 470   0.0000       3.803482       103.4980 
 471   0.0000       3.811211       103.7083 
 472   0.0000       3.820389       103.9581 
 473   0.0000       3.827902       104.1625 
 474   0.0000       3.832064       104.2758 
 475   0.0000       3.892612       105.9234 
 476   0.0000       3.894714       105.9806 
 477   0.0000       3.896618       106.0324 
 478   0.0000       3.927859       106.8825 
 479   0.0000       3.944889       107.3459 
 480   0.0000       3.962344       107.8209 
 481   0.0000       3.969870       108.0257 
 482   0.0000       3.977197       108.2250 
 483   0.0000       4.002231       108.9062 
 484   0.0000       4.002511       108.9139 
 485   0.0000       4.014318       109.2351 
 486   0.0000       4.017281       109.3158 
 487   0.0000       4.042451       110.0007 
 488   0.0000       4.088858       111.2635 
 489   0.0000       4.096110       111.4608 
 490   0.0000       4.116777       112.0232 
 491   0.0000       4.122866       112.1889 
 492   0.0000       4.128407       112.3397 
 493   0.0000       4.167791       113.4114 
 494   0.0000       4.169151       113.4484 
 495   0.0000       4.169766       113.4651 
 496   0.0000       4.187739       113.9542 
 497   0.0000       4.190603       114.0321 
 498   0.0000       4.211628       114.6042 
 499   0.0000       4.242512       115.4446 
 500   0.0000       4.243417       115.4693 
 501   0.0000       4.269201       116.1709 
 502   0.0000       4.300994       117.0360 
 503   0.0000       4.320736       117.5732 
 504   0.0000       4.323646       117.6524 
 505   0.0000       4.353232       118.4575 
 506   0.0000       4.362953       118.7220 
 507   0.0000       4.363761       118.7440 
 508   0.0000       4.372487       118.9814 
 509   0.0000       4.385248       119.3287 
 510   0.0000       4.395653       119.6118 
 511   0.0000       4.401864       119.7808 
 512   0.0000       4.414429       120.1227 
 513   0.0000       4.416165       120.1700 
 514   0.0000       4.429387       120.5297 
 515   0.0000       4.449972       121.0899 
 516   0.0000       4.454904       121.2241 
 517   0.0000       4.455855       121.2500 
 518   0.0000       4.476355       121.8078 
 519   0.0000       4.513898       122.8294 
 520   0.0000       4.514235       122.8386 
 521   0.0000       4.528070       123.2150 
 522   0.0000       4.534030       123.3772 
 523   0.0000       4.543543       123.6361 
 524   0.0000       4.564315       124.2013 
[...]


                     *******************************
                     * LOEWDIN POPULATION ANALYSIS *
                     *******************************

----------------------
LOEWDIN ATOMIC CHARGES
----------------------
   0 C :    0.456886
   1 C :    0.456886
   2 C :    0.380683
   3 C :    0.380683
   4 C :    0.380683
   5 C :    0.380683
   6 H :   -0.320050
   7 H :   -0.320050
   8 H :   -0.320050
   9 H :   -0.320050
  10 H :   -0.289076
  11 H :   -0.289076
  12 H :   -0.289076
  13 H :   -0.289076

-------------------------------
LOEWDIN REDUCED ORBITAL CHARGES
-------------------------------
  0 C s       :     2.355917  s :     2.355917
      pz      :     0.654154  p :     1.944565
      px      :     0.649171
      py      :     0.641240
      dz2     :     0.092838  d :     0.707159
      dxz     :     0.185210
      dyz     :     0.086535
      dx2y2   :     0.187462
      dxy     :     0.155115
      f0      :     0.044184  f :     0.422228
      f+1     :     0.038557
      f-1     :     0.042503
      f+2     :     0.018650
      f-2     :     0.064126
      f+3     :     0.064578
      f-3     :     0.149630
      g0      :     0.005024  g :     0.113245
      g+1     :     0.008289
      g-1     :     0.012837
      g+2     :     0.010415
      g-2     :     0.008122
      g+3     :     0.009682
      g-3     :     0.002854
      g+4     :     0.030877
      g-4     :     0.025146
  1 C s       :     2.355917  s :     2.355917
      pz      :     0.654154  p :     1.944565
      px      :     0.649171
      py      :     0.641240
      dz2     :     0.092838  d :     0.707159
      dxz     :     0.185210
      dyz     :     0.086535
      dx2y2   :     0.187462
      dxy     :     0.155115
      f0      :     0.044184  f :     0.422228
      f+1     :     0.038557
      f-1     :     0.042503
      f+2     :     0.018650
      f-2     :     0.064126
      f+3     :     0.064578
      f-3     :     0.149630
      g0      :     0.005024  g :     0.113245
      g+1     :     0.008289
      g-1     :     0.012837
      g+2     :     0.010415
      g-2     :     0.008122
      g+3     :     0.009682
      g-3     :     0.002854
      g+4     :     0.030877
      g-4     :     0.025146
  2 C s       :     2.396053  s :     2.396053
      pz      :     0.505175  p :     2.002258
      px      :     0.785355
      py      :     0.711727
      dz2     :     0.059704  d :     0.691414
      dxz     :     0.128639
      dyz     :     0.059637
      dx2y2   :     0.182713
      dxy     :     0.260721
      f0      :     0.036143  f :     0.410154
      f+1     :     0.032926
      f-1     :     0.023869
      f+2     :     0.032027
      f-2     :     0.056524
      f+3     :     0.070916
      f-3     :     0.157748
      g0      :     0.005111  g :     0.119438
      g+1     :     0.011388
      g-1     :     0.006285
      g+2     :     0.009345
      g-2     :     0.008827
      g+3     :     0.012272
      g-3     :     0.003856
      g+4     :     0.024410
      g-4     :     0.037946
  3 C s       :     2.396053  s :     2.396053
      pz      :     0.505175  p :     2.002258
      px      :     0.785355
      py      :     0.711727
      dz2     :     0.059704  d :     0.691414
      dxz     :     0.128639
      dyz     :     0.059637
      dx2y2   :     0.182713
      dxy     :     0.260721
      f0      :     0.036143  f :     0.410154
      f+1     :     0.032926
      f-1     :     0.023869
      f+2     :     0.032027
      f-2     :     0.056524
      f+3     :     0.070916
      f-3     :     0.157748
      g0      :     0.005111  g :     0.119438
      g+1     :     0.011388
      g-1     :     0.006285
      g+2     :     0.009345
      g-2     :     0.008827
      g+3     :     0.012272
      g-3     :     0.003856
      g+4     :     0.024410
      g-4     :     0.037946
  4 C s       :     2.396053  s :     2.396053
      pz      :     0.505175  p :     2.002258
      px      :     0.785355
      py      :     0.711727
      dz2     :     0.059704  d :     0.691414
      dxz     :     0.128639
      dyz     :     0.059637
      dx2y2   :     0.182713
      dxy     :     0.260721
      f0      :     0.036143  f :     0.410154
      f+1     :     0.032926
      f-1     :     0.023869
      f+2     :     0.032027
      f-2     :     0.056524
      f+3     :     0.070916
      f-3     :     0.157748
      g0      :     0.005111  g :     0.119438
      g+1     :     0.011388
      g-1     :     0.006285
      g+2     :     0.009345
      g-2     :     0.008827
      g+3     :     0.012272
      g-3     :     0.003856
      g+4     :     0.024410
      g-4     :     0.037946
  5 C s       :     2.396053  s :     2.396053
      pz      :     0.505175  p :     2.002258
      px      :     0.785355
      py      :     0.711727
      dz2     :     0.059704  d :     0.691414
      dxz     :     0.128639
      dyz     :     0.059637
      dx2y2   :     0.182713
      dxy     :     0.260721
      f0      :     0.036143  f :     0.410154
      f+1     :     0.032926
      f-1     :     0.023869
      f+2     :     0.032027
      f-2     :     0.056524
      f+3     :     0.070916
      f-3     :     0.157748
      g0      :     0.005111  g :     0.119438
      g+1     :     0.011388
      g-1     :     0.006285
      g+2     :     0.009345
      g-2     :     0.008827
      g+3     :     0.012272
      g-3     :     0.003856
      g+4     :     0.024410
      g-4     :     0.037946
  6 H s       :     0.642519  s :     0.642519
      pz      :     0.081728  p :     0.293352
      px      :     0.092238
      py      :     0.119385
      dz2     :     0.027425  d :     0.259624
      dxz     :     0.037889
      dyz     :     0.043758
      dx2y2   :     0.086408
      dxy     :     0.064143
      f0      :     0.013226  f :     0.124555
      f+1     :     0.007725
      f-1     :     0.011272
      f+2     :     0.002664
      f-2     :     0.018551
      f+3     :     0.019329
      f-3     :     0.051788
  7 H s       :     0.642519  s :     0.642519
      pz      :     0.081728  p :     0.293352
      px      :     0.092238
      py      :     0.119385
      dz2     :     0.027425  d :     0.259624
      dxz     :     0.037889
      dyz     :     0.043758
      dx2y2   :     0.086408
      dxy     :     0.064143
      f0      :     0.013226  f :     0.124555
      f+1     :     0.007725
      f-1     :     0.011272
      f+2     :     0.002664
      f-2     :     0.018551
      f+3     :     0.019329
      f-3     :     0.051788
  8 H s       :     0.642519  s :     0.642519
      pz      :     0.081728  p :     0.293352
      px      :     0.092238
      py      :     0.119385
      dz2     :     0.027425  d :     0.259624
      dxz     :     0.037889
      dyz     :     0.043758
      dx2y2   :     0.086408
      dxy     :     0.064143
      f0      :     0.013226  f :     0.124555
      f+1     :     0.007725
      f-1     :     0.011272
      f+2     :     0.002664
      f-2     :     0.018551
      f+3     :     0.019329
      f-3     :     0.051788
  9 H s       :     0.642519  s :     0.642519
      pz      :     0.081728  p :     0.293352
      px      :     0.092238
      py      :     0.119385
      dz2     :     0.027425  d :     0.259624
      dxz     :     0.037889
      dyz     :     0.043758
      dx2y2   :     0.086408
      dxy     :     0.064143
      f0      :     0.013226  f :     0.124555
      f+1     :     0.007725
      f-1     :     0.011272
      f+2     :     0.002664
      f-2     :     0.018551
      f+3     :     0.019329
      f-3     :     0.051788
 10 H s       :     0.588257  s :     0.588257
      pz      :     0.121264  p :     0.291461
      px      :     0.094500
      py      :     0.075697
      dz2     :     0.097920  d :     0.276069
      dxz     :     0.052417
      dyz     :     0.044827
      dx2y2   :     0.023811
      dxy     :     0.057094
      f0      :     0.047523  f :     0.133289
      f+1     :     0.015238
      f-1     :     0.006749
      f+2     :     0.012753
      f-2     :     0.031964
      f+3     :     0.004605
      f-3     :     0.014458
 11 H s       :     0.588257  s :     0.588257
      pz      :     0.121264  p :     0.291461
      px      :     0.094500
      py      :     0.075697
      dz2     :     0.097920  d :     0.276069
      dxz     :     0.052417
      dyz     :     0.044827
      dx2y2   :     0.023811
      dxy     :     0.057094
      f0      :     0.047523  f :     0.133289
      f+1     :     0.015238
      f-1     :     0.006749
      f+2     :     0.012753
      f-2     :     0.031964
      f+3     :     0.004605
      f-3     :     0.014458
 12 H s       :     0.588257  s :     0.588257
      pz      :     0.121264  p :     0.291461
      px      :     0.094500
      py      :     0.075697
      dz2     :     0.097920  d :     0.276069
      dxz     :     0.052417
      dyz     :     0.044827
      dx2y2   :     0.023811
      dxy     :     0.057094
      f0      :     0.047523  f :     0.133289
      f+1     :     0.015238
      f-1     :     0.006749
      f+2     :     0.012753
      f-2     :     0.031964
      f+3     :     0.004605
      f-3     :     0.014458
 13 H s       :     0.588257  s :     0.588257
      pz      :     0.121264  p :     0.291461
      px      :     0.094500
      py      :     0.075697
      dz2     :     0.097920  d :     0.276069
      dxz     :     0.052417
      dyz     :     0.044827
      dx2y2   :     0.023811
      dxy     :     0.057094
      f0      :     0.047523  f :     0.133289
      f+1     :     0.015238
      f-1     :     0.006749
      f+2     :     0.012753
      f-2     :     0.031964
      f+3     :     0.004605
      f-3     :     0.014458


                      *****************************
                      * MAYER POPULATION ANALYSIS *
                      *****************************

  NA   - Mulliken gross atomic population
  ZA   - Total nuclear charge
  QA   - Mulliken gross atomic charge
  VA   - Mayer's total valence
  BVA  - Mayer's bonded valence
  FA   - Mayer's free valence

  ATOM       NA         ZA         QA         VA         BVA        FA
  0 C      6.2759     6.0000    -0.2759     3.5767     3.5767     0.0000
  1 C      6.2759     6.0000    -0.2759     3.5767     3.5767     0.0000
  2 C      6.3564     6.0000    -0.3564     3.2124     3.2124     0.0000
  3 C      6.3564     6.0000    -0.3564     3.2124     3.2124     0.0000
  4 C      6.3564     6.0000    -0.3564     3.2124     3.2124    -0.0000
  5 C      6.3564     6.0000    -0.3564     3.2124     3.2124     0.0000
  6 H      0.6938     1.0000     0.3062     0.9167     0.9167     0.0000
  7 H      0.6938     1.0000     0.3062     0.9167     0.9167    -0.0000
  8 H      0.6938     1.0000     0.3062     0.9167     0.9167     0.0000
  9 H      0.6938     1.0000     0.3062     0.9167     0.9167     0.0000
 10 H      0.8118     1.0000     0.1882     1.0298     1.0298     0.0000
 11 H      0.8118     1.0000     0.1882     1.0298     1.0298     0.0000
 12 H      0.8118     1.0000     0.1882     1.0298     1.0298     0.0000
 13 H      0.8118     1.0000     0.1882     1.0298     1.0298    -0.0000

  Mayer bond orders larger than 0.100000
B(  0-C ,  3-C ) :   0.7831 B(  0-C ,  5-C ) :   0.7831 B(  0-C , 10-H ) :   0.9990 
B(  0-C , 12-H ) :   0.9990 B(  1-C ,  2-C ) :   0.7831 B(  1-C ,  4-C ) :   0.7831 
B(  1-C , 11-H ) :   0.9990 B(  1-C , 13-H ) :   0.9990 B(  2-C ,  3-C ) :   1.5554 
B(  2-C ,  8-H ) :  -0.1173 B(  2-C ,  9-H ) :   1.0027 B(  3-C ,  8-H ) :   1.0027 
B(  3-C ,  9-H ) :  -0.1173 B(  4-C ,  5-C ) :   1.5554 B(  4-C ,  6-H ) :  -0.1173 
B(  4-C ,  7-H ) :   1.0027 B(  5-C ,  6-H ) :   1.0027 B(  5-C ,  7-H ) :  -0.1173 


-------
TIMINGS
-------

Total SCF time: 0 days 0 hours 24 min 50 sec 

Total time                  ....    1490.963 sec
Sum of individual times     ....    1484.053 sec  ( 99.5%)

Fock matrix formation       ....    1476.775 sec  ( 99.0%)
Diagonalization             ....       1.899 sec  (  0.1%)
Density matrix formation    ....       0.087 sec  (  0.0%)
Population analysis         ....       1.143 sec  (  0.1%)
Initial guess               ....       1.029 sec  (  0.1%)
Orbital Transformation      ....       0.000 sec  (  0.0%)
Orbital Orthonormalization  ....       0.000 sec  (  0.0%)
DIIS solution               ....       1.008 sec  (  0.1%)
SOSCF solution              ....       1.624 sec  (  0.1%)

Maximum memory used throughout the entire SCF-calculation: 285.4 MB


           ************************************************************
           *        Program running with 16 parallel MPI-processes    *
           *              working on a common directory               *
           ************************************************************

------------------------------------------------------------------------------
                                ORCA  MP2 
------------------------------------------------------------------------------

Freezing NCore=12 chemical core electrons

-------------
RI-MP2 ENERGY
-------------
Dimension of the basis                    ...  848
Memory devoted to MP2                     ...  256 MB   
Data format for buffers                   ... DOUBLE
Compression type for matrix containers    ... UNCOMPRESSED
Overall scaling of the MP2 energy         ...   1.000e+00
Calculating two index integrals           ... done (    0.152 sec)
Cholesky decomposition of V**-1           ... done (    0.875 sec)

-----------------
RI-TRANSFORMATION (AUX index driven)
-----------------

Dimension of the orbital-basis         ... 848
Dimension of the aux-basis             ... 1648
Transformation of internal/external MOs...    6-  21 to   22- 847
Number Format for Storage              ... Double (8 Byte)
Integral mode                          ... Direct

First Phase: integral generation and transformation of MO indices
  Aux angular momentum 0               ... done (    0.142 sec)
  Aux angular momentum 1               ... done (    0.277 sec)
  Aux angular momentum 2               ... done (    0.379 sec)
  Aux angular momentum 3               ... done (    0.471 sec)
  Aux angular momentum 4               ... done (    0.533 sec)
  Aux angular momentum 5               ... done (    0.238 sec)
Closing buffer VIA ( 0.16 GB; CompressionRatio= 1.00)
  Phase 1 completed in     3.106 sec
Second Phase: sorting and transformation of aux index

IA-Transformation
Memory available                       ... 183 MB 
Max. # MO pairs treated in a batch     ... 1    
# of internal orbitals                 ... 16
# batches for internal orbitals        ... 1
Closing buffer IAV ( 0.16 GB; CompressionRatio= 1.00)
(ia|v) transformation done in     0.645 sec

  Phase 2 completed in     0.736 sec
RI-Integral transformation completed in     4.123 sec
Opening buffers                              ... done

Starting loop over batches of integrals:

Operator 0  - window                       ... (  6- 21)x( 22-847)
Operator 0  - Memory available             ...   256 MB
Operator 0  - Memory needed per MO         ...  10.4 MB
Operator 0  - Number of orbitals per batch ... 1
Operator 0  - Number of batches            ... 1

OPERATOR  0   PASS   0:  MOs     6 ...    6 +    7 ...    7 +    8 ...    8 +    9 ...    9
                            +   10 ...   10 +   11 ...   11 +   12 ...   12 +   13 ...   13
                            +   14 ...   14 +   15 ...   15 +   16 ...   16 +   17 ...   17
                            +   18 ...   18 +   19 ...   19 +   20 ...   20 +   21 ...   21
  Reading integrals       ... ok
Time spent in pair loops =     0.067 sec
Deleting buffer (Ka|jb)[aa] ...done

-----------------------------------------------
 RI-MP2 CORRELATION ENERGY:     -1.039293301 Eh
-----------------------------------------------


-------
TIMINGS
-------

Total time                :    6.521 sec
Integral trafo            :    4.148 sec ( 63.6%)
I/O of integrals          :    0.005 sec (  0.1%)
K(i,j) Operators          :    0.043 sec (  0.7%)
T(i,j) pair energies      :    0.006 sec (  0.1%)
V-calculation             :    0.152 sec (  2.3%)
V**(-1/2)                 :    0.875 sec ( 13.4%)
Gamma(ia|P)               :    0.000 sec (  0.0%)
Gamma-Trafo               :    0.000 sec (  0.0%)
D(virtual)                :    0.000 sec (  0.0%)
D(internal)               :    0.000 sec (  0.0%)
W(virtual)                :    0.000 sec (  0.0%)
W(internal)               :    0.000 sec (  0.0%)
L(virtual)                :    0.000 sec (  0.0%)
L(internal)               :    0.000 sec (  0.0%)
G(D)                      :    0.000 sec (  0.0%)
G(Z)                      :    0.000 sec (  0.0%)
Z-Vector Solution         :    0.000 sec (  0.0%)
3-Index Derivative        :    0.000 sec (  0.0%)
2-Index Derivative        :    0.000 sec (  0.0%)
Separable Gradient        :    0.000 sec (  0.0%)


---------------------------------------
MP2 TOTAL ENERGY:     -232.967637785 Eh
---------------------------------------

Maximum memory used throughout the entire MP2-calculation: 193.6 MB

-------------------------   --------------------
FINAL SINGLE POINT ENERGY      -232.967637784811
-------------------------   --------------------


                            ***************************************
                            *     ORCA property calculations      *
                            ***************************************


  WARNING: The energy has been calculated at the MP2 level but the densities
           used in the property calculations are still SCF densities
           MP2 response densities have not been calculated 
           use %mp2 Density relaxed end
           or  %mp2 Density unrelaxed end

                                    ---------------------
                                    Active property flags
                                    ---------------------
   (+) Dipole Moment


------------------------------------------------------------------------------
                       ORCA ELECTRIC PROPERTIES CALCULATION
------------------------------------------------------------------------------

Dipole Moment Calculation                       ... on
Quadrupole Moment Calculation                   ... off
Polarizability Calculation                      ... off
GBWName                                         ... 1,4-cyclohexadiene.gbw
Electron density                                ... 1,4-cyclohexadiene.scfp
The origin for moment calculation is the CENTER OF MASS  = ( 0.000000,  0.000000  0.000000)

-------------
DIPOLE MOMENT
-------------
                                X             Y             Z
Electronic contribution:     -0.00000       0.00000       0.00000
Nuclear contribution   :      0.00000       0.00000       0.00000
                        -----------------------------------------
Total Dipole Moment    :     -0.00000       0.00000       0.00000
                        -----------------------------------------
Magnitude (a.u.)       :      0.00000
Magnitude (Debye)      :      0.00000



--------------------
Rotational spectrum 
--------------------
 
Rotational constants in cm-1:     0.172660     0.164310     0.086818 
Rotational constants in MHz :  5176.218446  4925.889006  2602.733719 

 Dipole components along the rotational axes: 
x,y,z [a.u.] :    -0.000000     0.000000     0.000000 
x,y,z [Debye]:    -0.000000     0.000000     0.000000 

 

Timings for individual modules:

Sum of individual times         ...     1508.000 sec (=  25.133 min)
GTO integral calculation        ...        5.847 sec (=   0.097 min)   0.4 %
SCF iterations                  ...     1492.043 sec (=  24.867 min)  98.9 %
MP2 module                      ...       10.110 sec (=   0.169 min)   0.7 %
                             ****ORCA TERMINATED NORMALLY****
TOTAL RUN TIME: 0 days 0 hours 25 minutes 12 seconds 470 msec
