
                                 *****************
                                 * O   R   C   A *
                                 *****************

                                            #,                                       
                                            ###                                      
                                            ####                                     
                                            #####                                    
                                            ######                                   
                                           ########,                                 
                                     ,,################,,,,,                         
                               ,,#################################,,                 
                          ,,##########################################,,             
                       ,#########################################, ''#####,          
                    ,#############################################,,   '####,        
                  ,##################################################,,,,####,       
                ,###########''''           ''''###############################       
              ,#####''   ,,,,##########,,,,          '''####'''          '####       
            ,##' ,,,,###########################,,,                        '##       
           ' ,,###''''                  '''############,,,                           
         ,,##''                                '''############,,,,        ,,,,,,###''
      ,#''                                            '''#######################'''  
     '                                                          ''''####''''         
             ,#######,   #######,   ,#######,      ##                                
            ,#'     '#,  ##    ##  ,#'     '#,    #''#        ######   ,####,        
            ##       ##  ##   ,#'  ##            #'  '#       #        #'  '#        
            ##       ##  #######   ##           ,######,      #####,   #    #        
            '#,     ,#'  ##    ##  '#,     ,#' ,#      #,         ##   #,  ,#        
             '#######'   ##     ##  '#######'  #'      '#     #####' # '####'        



                  #######################################################
                  #                        -***-                        #
                  #          Department of theory and spectroscopy      #
                  #    Directorship and core code : Frank Neese         #
                  #        Max Planck Institute fuer Kohlenforschung    #
                  #                Kaiser Wilhelm Platz 1               #
                  #                 D-45470 Muelheim/Ruhr               #
                  #                      Germany                        #
                  #                                                     #
                  #                  All rights reserved                #
                  #                        -***-                        #
                  #######################################################


                         Program Version 5.0.4 -  RELEASE  -


 With contributions from (in alphabetic order):
   Daniel Aravena         : Magnetic Suceptibility
   Michael Atanasov       : Ab Initio Ligand Field Theory (pilot matlab implementation)
   Alexander A. Auer      : GIAO ZORA, VPT2 properties, NMR spectrum
   Ute Becker             : Parallelization
   Giovanni Bistoni       : ED, misc. LED, open-shell LED, HFLD
   Martin Brehm           : Molecular dynamics
   Dmytro Bykov           : SCF Hessian
   Vijay G. Chilkuri      : MRCI spin determinant printing, contributions to CSF-ICE
   Dipayan Datta          : RHF DLPNO-CCSD density
   Achintya Kumar Dutta   : EOM-CC, STEOM-CC
   Dmitry Ganyushin       : Spin-Orbit,Spin-Spin,Magnetic field MRCI
   Miquel Garcia          : C-PCM and meta-GGA Hessian, CC/C-PCM, Gaussian charge scheme
   Yang Guo               : DLPNO-NEVPT2, F12-NEVPT2, CIM, IAO-localization
   Andreas Hansen         : Spin unrestricted coupled pair/coupled cluster methods
   Benjamin Helmich-Paris : MC-RPA, TRAH-SCF, COSX integrals
   Lee Huntington         : MR-EOM, pCC
   Robert Izsak           : Overlap fitted RIJCOSX, COSX-SCS-MP3, EOM
   Marcus Kettner         : VPT2
   Christian Kollmar      : KDIIS, OOCD, Brueckner-CCSD(T), CCSD density, CASPT2, CASPT2-K
   Simone Kossmann        : Meta GGA functionals, TD-DFT gradient, OOMP2, MP2 Hessian
   Martin Krupicka        : Initial AUTO-CI
   Lucas Lang             : DCDCAS
   Marvin Lechner         : AUTO-CI (C++ implementation), FIC-MRCC
   Dagmar Lenk            : GEPOL surface, SMD
   Dimitrios Liakos       : Extrapolation schemes; Compound Job, initial MDCI parallelization
   Dimitrios Manganas     : Further ROCIS development; embedding schemes
   Dimitrios Pantazis     : SARC Basis sets
   Anastasios Papadopoulos: AUTO-CI, single reference methods and gradients
   Taras Petrenko         : DFT Hessian,TD-DFT gradient, ASA, ECA, R-Raman, ABS, FL, XAS/XES, NRVS
   Peter Pinski           : DLPNO-MP2, DLPNO-MP2 Gradient
   Christoph Reimann      : Effective Core Potentials
   Marius Retegan         : Local ZFS, SOC
   Christoph Riplinger    : Optimizer, TS searches, QM/MM, DLPNO-CCSD(T), (RO)-DLPNO pert. Triples
   Tobias Risthaus        : Range-separated hybrids, TD-DFT gradient, RPA, STAB
   Michael Roemelt        : Original ROCIS implementation
   Masaaki Saitow         : Open-shell DLPNO-CCSD energy and density
   Barbara Sandhoefer     : DKH picture change effects
   Avijit Sen             : IP-ROCIS
   Kantharuban Sivalingam : CASSCF convergence, NEVPT2, FIC-MRCI
   Bernardo de Souza      : ESD, SOC TD-DFT
   Georgi Stoychev        : AutoAux, RI-MP2 NMR, DLPNO-MP2 response
   Willem Van den Heuvel  : Paramagnetic NMR
   Boris Wezisla          : Elementary symmetry handling
   Frank Wennmohs         : Technical directorship


 We gratefully acknowledge several colleagues who have allowed us to
 interface, adapt or use parts of their codes:
   Stefan Grimme, W. Hujo, H. Kruse, P. Pracht,  : VdW corrections, initial TS optimization,
                  C. Bannwarth, S. Ehlert          DFT functionals, gCP, sTDA/sTD-DF
   Ed Valeev, F. Pavosevic, A. Kumar             : LibInt (2-el integral package), F12 methods
   Garnet Chan, S. Sharma, J. Yang, R. Olivares  : DMRG
   Ulf Ekstrom                                   : XCFun DFT Library
   Mihaly Kallay                                 : mrcc  (arbitrary order and MRCC methods)
   Jiri Pittner, Ondrej Demel                    : Mk-CCSD
   Frank Weinhold                                : gennbo (NPA and NBO analysis)
   Christopher J. Cramer and Donald G. Truhlar   : smd solvation model
   Lars Goerigk                                  : TD-DFT with DH, B97 family of functionals
   V. Asgeirsson, H. Jonsson                     : NEB implementation
   FAccTs GmbH                                   : IRC, NEB, NEB-TS, DLPNO-Multilevel, CI-OPT
                                                   MM, QMMM, 2- and 3-layer-ONIOM, Crystal-QMMM,
                                                   LR-CPCM, SF, NACMEs, symmetry and pop. for TD-DFT,
                                                   nearIR, NL-DFT gradient (VV10), updates on ESD,
                                                   ML-optimized integration grids
   S Lehtola, MJT Oliveira, MAL Marques          : LibXC Library
   Liviu Ungur et al                             : ANISO software


 Your calculation uses the libint2 library for the computation of 2-el integrals
 For citations please refer to: http://libint.valeyev.net

 Your ORCA version has been built with support for libXC version: 5.1.0
 For citations please refer to: https://tddft.org/programs/libxc/

 This ORCA versions uses:
   CBLAS   interface :  Fast vector & matrix operations
   LAPACKE interface :  Fast linear algebra routines
   SCALAPACK package :  Parallel linear algebra routines
   Shared memory     :  Shared parallel matrices
   BLAS/LAPACK       :  OpenBLAS 0.3.15  USE64BITINT DYNAMIC_ARCH NO_AFFINITY Zen SINGLE_THREADED
        Core in use  :  Zen
   Copyright (c) 2011-2014, The OpenBLAS Project


================================================================================

----- Orbital basis set information -----
Your calculation utilizes the basis: aug-cc-pVQZ 
    H, B-Ne : Obtained from the ccRepo (grant-hill.group.shef.ac.uk/ccrepo) Feb. 2017
              R. A. Kendall, T. H. Dunning, Jr., R. J. Harrison, J. Chem. Phys. 96, 6796 (1992)
         He : Obtained from the ccRepo (grant-hill.group.shef.ac.uk/ccrepo) Feb. 2017
              D. E. Woon, T. H. Dunning, Jr., J. Chem. Phys. 100, 2975 (1994)
  Li-Be, Na : Obtained from the ccRepo (grant-hill.group.shef.ac.uk/ccrepo) Feb. 2017
              B. P. Prascher, D. E. Woon, K. A. Peterson, T. H. Dunning, Jr., A. K. Wilson, Theor. Chem. Acc. 128, 69 (2011)
         Mg : Obtained from the Peterson Research Group Website (tyr0.chem.wsu.edu/~kipeters) Feb. 2017
              B. P. Prascher, D. E. Woon, K. A. Peterson, T. H. Dunning, Jr., A. K. Wilson, Theor. Chem. Acc. 128, 69 (2011)
      Al-Ar : Obtained from the ccRepo (grant-hill.group.shef.ac.uk/ccrepo) Feb. 2017
              D. E. Woon, T. H. Dunning, Jr., J. Chem. Phys. 98, 1358 (1993)
      Sc-Zn : Obtained from the ccRepo (grant-hill.group.shef.ac.uk/ccrepo) Feb. 2017
              N. B. Balabanov, K. A. Peterson, J. Chem. Phys. 123, 064107 (2005)
              N. B. Balabanov, K. A. Peterson, J. Chem. Phys. 125, 074110 (2006)
      Ga-Kr : Obtained from the ccRepo (grant-hill.group.shef.ac.uk/ccrepo) Feb. 2017
              A. K. Wilson, D. E. Woon, K. A. Peterson, T. H. Dunning, Jr., J. Chem. Phys. 110, 7667 (1999)

----- AuxC basis set information -----
Your calculation utilizes the auxiliary basis: aug-cc-pVQZ/C 
  H-He, B-F, Al-Ar, Ga-Kr : Obtained from the EMSL Basis Set Exchange (bse.pnl.gov) Feb. 2017
                            F. Weigend, A. Kohn, C. Hattig, J. Chem. Phys. 116, 3175 (2002)
                   Be, Mg : Obtained from the TURBOMOLE 7.0 basis set library
                            C. Haettig, Phys. Chem. Chem. Phys. 7, 59 (2005)
                       Ne : Obtained from the EMSL Basis Set Exchange (bse.pnl.gov) Feb. 2017
                            C. Haettig, Phys. Chem. Chem. Phys. 7, 59 (2005)
                            F. Weigend, A. Kohn, C. Hattig, J. Chem. Phys. 116, 3175 (2002)
                    Sc-Zn : Obtained from the EMSL Basis Set Exchange (bse.pnl.gov) Feb. 2017
                            D. H. Bross, J. G. Hill, H. J. Werner, K. A. Peterson, J. Chem. Phys. 139, 094302 (2013)

================================================================================
                                        WARNINGS
                       Please study these warnings very carefully!
================================================================================


WARNING: No MP2 level density has been requested!
         To caclulate MP2 level properties use
         %mp2 Density relaxed end
         or
         %mp2 Density unrelaxed end

WARNING: Post HF methods need fully converged wavefunctions
  ===> : Setting SCFConvForced true
         You can overwrite this default with %scf ConvForced false 


INFO   : the flag for use of the SHARK integral package has been found!

================================================================================
                                       INPUT FILE
================================================================================
NAME = 2-methylpiperidine.inp
|  1> !ri-mp2 aug-cc-pvqz aug-cc-pvqz/c tightscf
|  2> %pal nprocs 16 end
|  3> 
|  4> * xyz 0 1
|  5> C     -1.876724   -0.056528    0.292117
|  6> C     -1.220756    1.238754   -0.193233
|  7> C      0.269212    1.266716    0.162963
|  8> C      0.993150    0.003566   -0.331778
|  9> N      0.336494   -1.236054    0.101240
| 10> C     -1.093530   -1.276574   -0.206570
| 11> C      2.458080   -0.022920    0.084158
| 12> H     -2.914516   -0.113656   -0.046636
| 13> H     -1.900320   -0.067386    1.387040
| 14> H     -1.331150    1.311007   -1.280554
| 15> H     -1.729106    2.108897    0.227207
| 16> H      0.744092    2.156300   -0.259637
| 17> H      0.385539    1.333833    1.250920
| 18> H      0.947191    0.002171   -1.427861
| 19> H      0.478094   -1.362314    1.097987
| 20> H     -1.506343   -2.198011    0.207370
| 21> H     -1.194856   -1.349044   -1.294590
| 22> H      2.954195   -0.908747   -0.311642
| 23> H      2.551510   -0.040360    1.173496
| 24> H      2.983619    0.861609   -0.277729
| 25> *
| 26> 
| 27>                          ****END OF INPUT****
================================================================================

                       ****************************
                       * Single Point Calculation *
                       ****************************

---------------------------------
CARTESIAN COORDINATES (ANGSTROEM)
---------------------------------
  C     -1.876724   -0.056528    0.292117
  C     -1.220756    1.238754   -0.193233
  C      0.269212    1.266716    0.162963
  C      0.993150    0.003566   -0.331778
  N      0.336494   -1.236054    0.101240
  C     -1.093530   -1.276574   -0.206570
  C      2.458080   -0.022920    0.084158
  H     -2.914516   -0.113656   -0.046636
  H     -1.900320   -0.067386    1.387040
  H     -1.331150    1.311007   -1.280554
  H     -1.729106    2.108897    0.227207
  H      0.744092    2.156300   -0.259637
  H      0.385539    1.333833    1.250920
  H      0.947191    0.002171   -1.427861
  H      0.478094   -1.362314    1.097987
  H     -1.506343   -2.198011    0.207370
  H     -1.194856   -1.349044   -1.294590
  H      2.954195   -0.908747   -0.311642
  H      2.551510   -0.040360    1.173496
  H      2.983619    0.861609   -0.277729

----------------------------
CARTESIAN COORDINATES (A.U.)
----------------------------
  NO LB      ZA    FRAG     MASS         X           Y           Z
   0 C     6.0000    0    12.011   -3.546494   -0.106822    0.552021
   1 C     6.0000    0    12.011   -2.306895    2.340906   -0.365157
   2 C     6.0000    0    12.011    0.508737    2.393746    0.307955
   3 C     6.0000    0    12.011    1.876782    0.006739   -0.626970
   4 N     7.0000    0    14.007    0.635882   -2.335804    0.191316
   5 C     6.0000    0    12.011   -2.066472   -2.412375   -0.390361
   6 C     6.0000    0    12.011    4.645098   -0.043313    0.159036
   7 H     1.0000    0     1.008   -5.507637   -0.214779   -0.088129
   8 H     1.0000    0     1.008   -3.591084   -0.127341    2.621126
   9 H     1.0000    0     1.008   -2.515509    2.477444   -2.419896
  10 H     1.0000    0     1.008   -3.267537    3.985238    0.429359
  11 H     1.0000    0     1.008    1.406130    4.074816   -0.490643
  12 H     1.0000    0     1.008    0.728563    2.520579    2.363896
  13 H     1.0000    0     1.008    1.789932    0.004103   -2.698266
  14 H     1.0000    0     1.008    0.903467   -2.574400    2.074895
  15 H     1.0000    0     1.008   -2.846576   -4.153639    0.391873
  16 H     1.0000    0     1.008   -2.257951   -2.549324   -2.446421
  17 H     1.0000    0     1.008    5.582619   -1.717283   -0.588918
  18 H     1.0000    0     1.008    4.821655   -0.076269    2.217586
  19 H     1.0000    0     1.008    5.638223    1.628205   -0.524832

--------------------------------
INTERNAL COORDINATES (ANGSTROEM)
--------------------------------
 C      0   0   0     0.000000000000     0.00000000     0.00000000
 C      1   0   0     1.530886703531     0.00000000     0.00000000
 C      2   1   0     1.532208244621   111.00285382     0.00000000
 C      3   2   1     1.537661473610   111.59454843    52.93225172
 N      4   3   2     1.468114244553   112.83893634   307.75189753
 C      5   4   3     1.463337796640   113.48035908    51.66390489
 C      4   3   2     1.523064072583   112.28740608   183.31904210
 H      1   2   3     1.093174020299   110.65580381   185.36207375
 H      1   2   3     1.095231045629   109.54632799    67.88580338
 H      2   1   3     1.095296438543   109.10844792   120.28946627
 H      2   1   3     1.091942469432   110.65149263   237.05608619
 H      3   2   1     1.093371605382   110.32517060   175.34483042
 H      3   2   1     1.096214895204   109.57435837   292.55954735
 H      4   3   2     1.097046999264   107.62508827    64.28758209
 H      5   4   3     1.014641182689   109.41431628   288.59489391
 H      6   5   4     1.091241055651   108.25669821   183.66997266
 H      6   5   4     1.095128476288   107.53166487    68.83363014
 H      7   4   3     1.089714277760   110.66105073   182.15846138
 H      7   4   3     1.093476381429   110.76385789    62.33924752
 H      7   4   3     1.090662639468   111.02312198   302.86169392

---------------------------
INTERNAL COORDINATES (A.U.)
---------------------------
 C      0   0   0     0.000000000000     0.00000000     0.00000000
 C      1   0   0     2.892956611735     0.00000000     0.00000000
 C      2   1   0     2.895453962470   111.00285382     0.00000000
 C      3   2   1     2.905759071805   111.59454843    52.93225172
 N      4   3   2     2.774333855514   112.83893634   307.75189753
 C      5   4   3     2.765307677066   113.48035908    51.66390489
 C      4   3   2     2.878173981596   112.28740608   183.31904210
 H      1   2   3     2.065799515083   110.65580381   185.36207375
 H      1   2   3     2.069686729607   109.54632799    67.88580338
 H      2   1   3     2.069810304306   109.10844792   120.28946627
 H      2   1   3     2.063472221224   110.65149263   237.05608619
 H      3   2   1     2.066172896778   110.32517060   175.34483042
 H      3   2   1     2.071545935861   109.57435837   292.55954735
 H      4   3   2     2.073118384650   107.62508827    64.28758209
 H      5   4   3     1.917393959481   109.41431628   288.59489391
 H      6   5   4     2.062146741271   108.25669821   183.66997266
 H      6   5   4     2.069492901642   107.53166487    68.83363014
 H      7   4   3     2.059261549190   110.66105073   182.15846138
 H      7   4   3     2.066370894813   110.76385789    62.33924752
 H      7   4   3     2.061053693094   111.02312198   302.86169392

---------------------
BASIS SET INFORMATION
---------------------
There are 3 groups of distinct atoms

 Group   1 Type C   : 22s7p4d3f2g contracted to 6s5p4d3f2g pattern {991111/31111/1111/111/11}
 Group   2 Type N   : 22s7p4d3f2g contracted to 6s5p4d3f2g pattern {991111/31111/1111/111/11}
 Group   3 Type H   : 7s4p3d2f contracted to 5s4p3d2f pattern {31111/1111/111/11}

Atom   0C    basis set group =>   1
Atom   1C    basis set group =>   1
Atom   2C    basis set group =>   1
Atom   3C    basis set group =>   1
Atom   4N    basis set group =>   2
Atom   5C    basis set group =>   1
Atom   6C    basis set group =>   1
Atom   7H    basis set group =>   3
Atom   8H    basis set group =>   3
Atom   9H    basis set group =>   3
Atom  10H    basis set group =>   3
Atom  11H    basis set group =>   3
Atom  12H    basis set group =>   3
Atom  13H    basis set group =>   3
Atom  14H    basis set group =>   3
Atom  15H    basis set group =>   3
Atom  16H    basis set group =>   3
Atom  17H    basis set group =>   3
Atom  18H    basis set group =>   3
Atom  19H    basis set group =>   3
---------------------------------
AUXILIARY/C BASIS SET INFORMATION
---------------------------------
There are 3 groups of distinct atoms

 Group   1 Type C   : 9s8p7d6f4g2h contracted to 9s8p7d6f4g2h pattern {111111111/11111111/1111111/111111/1111/11}
 Group   2 Type N   : 9s8p7d6f4g2h contracted to 9s8p7d6f4g2h pattern {111111111/11111111/1111111/111111/1111/11}
 Group   3 Type H   : 6s5p4d3f2g contracted to 6s5p4d3f2g pattern {111111/11111/1111/111/11}

Atom   0C    basis set group =>   1
Atom   1C    basis set group =>   1
Atom   2C    basis set group =>   1
Atom   3C    basis set group =>   1
Atom   4N    basis set group =>   2
Atom   5C    basis set group =>   1
Atom   6C    basis set group =>   1
Atom   7H    basis set group =>   3
Atom   8H    basis set group =>   3
Atom   9H    basis set group =>   3
Atom  10H    basis set group =>   3
Atom  11H    basis set group =>   3
Atom  12H    basis set group =>   3
Atom  13H    basis set group =>   3
Atom  14H    basis set group =>   3
Atom  15H    basis set group =>   3
Atom  16H    basis set group =>   3
Atom  17H    basis set group =>   3
Atom  18H    basis set group =>   3
Atom  19H    basis set group =>   3


           ************************************************************
           *        Program running with 16 parallel MPI-processes    *
           *              working on a common directory               *
           ************************************************************
------------------------------------------------------------------------------
                           ORCA GTO INTEGRAL CALCULATION
------------------------------------------------------------------------------
------------------------------------------------------------------------------
                   ___                                                        
                  /   \      - P O W E R E D   B Y -                         
                 /     \                                                     
                 |  |  |   _    _      __       _____    __    __             
                 |  |  |  | |  | |    /  \     |  _  \  |  |  /  |          
                  \  \/   | |  | |   /    \    | | | |  |  | /  /          
                 / \  \   | |__| |  /  /\  \   | |_| |  |  |/  /          
                |  |  |   |  __  | /  /__\  \  |    /   |      \           
                |  |  |   | |  | | |   __   |  |    \   |  |\   \          
                \     /   | |  | | |  |  |  |  | |\  \  |  | \   \       
                 \___/    |_|  |_| |__|  |__|  |_| \__\ |__|  \__/        
                                                                              
                      - O R C A' S   B I G   F R I E N D -                    
                                      &                                       
                       - I N T E G R A L  F E E D E R -                       
                                                                              
 v1 FN, 2020, v2 2021                                                         
------------------------------------------------------------------------------


Reading SHARK input file 2-methylpiperidine.SHARKINP.tmp ... ok
----------------------
SHARK INTEGRAL PACKAGE
----------------------

Number of atoms                             ...     20
Number of basis functions                   ...   1207
Number of shells                            ...    371
Maximum angular momentum                    ...      4
Integral batch strategy                     ... SHARK/LIBINT Hybrid
RI-J (if used) integral strategy            ... SPLIT-RIJ (Revised 2003 algorithm where possible)
Printlevel                                  ...      1
Contraction scheme used                     ... PARTIAL GENERAL contraction
Coulomb Range Separation                    ... NOT USED
Exchange Range Separation                   ... NOT USED
Finite Nucleus Model                        ... NOT USED
Auxiliary Coulomb fitting basis             ... NOT available
Auxiliary J/K fitting basis                 ... NOT available
Auxiliary Correlation fitting basis         ... AVAILABLE
   # of basis functions in Aux-C            ...   2216
   # of shells in Aux-C                     ...    512
   Maximum angular momentum in Aux-C        ...      5
Auxiliary 'external' fitting basis          ... NOT available
Integral threshold                          ...     2.500000e-11
Primitive cut-off                           ...     2.500000e-12
Primitive pair pre-selection threshold      ...     2.500000e-12

Calculating pre-screening integrals         ... done (  0.1 sec) Dimension = 371
Calculating pre-screening integrals (ORCA)  ... done (  0.2 sec) Dimension = 322
Organizing shell pair data                  ... done (  2.8 sec)
Shell pair information
Total number of shell pairs                 ...     69006
Shell pairs after pre-screening             ...     60539
Total number of primitive shell pairs       ...     84726
Primitive shell pairs kept                  ...     69873
          la=0 lb=0:   9381 shell pairs
          la=1 lb=0:  11824 shell pairs
          la=1 lb=1:   3571 shell pairs
          la=2 lb=0:   8961 shell pairs
          la=2 lb=1:   5456 shell pairs
          la=2 lb=2:   2126 shell pairs
          la=3 lb=0:   6435 shell pairs
          la=3 lb=1:   3851 shell pairs
          la=3 lb=2:   2960 shell pairs
          la=3 lb=3:   1068 shell pairs
          la=4 lb=0:   2061 shell pairs
          la=4 lb=1:   1182 shell pairs
          la=4 lb=2:    914 shell pairs
          la=4 lb=3:    644 shell pairs
          la=4 lb=4:    105 shell pairs

Calculating one electron integrals          ... done (  0.1 sec)
Calculating RI/C V-Matrix + Cholesky decomp.... done (  0.5 sec)
Calculating Nuclear repulsion               ... done (  0.0 sec) ENN=    332.192517621446 Eh

SHARK setup successfully completed in  22.2 seconds

Maximum memory used throughout the entire GTOINT-calculation: 87.4 MB
[1715541984.232441] [nc30644:1302388:0]          mpool.c:42   UCX  WARN  object 0xb57f240 was not returned to mpool ucp_requests
[1715541984.232462] [nc30644:1302388:0]          mpool.c:42   UCX  WARN  object 0xb57f400 was not returned to mpool ucp_requests
[1715541984.232466] [nc30644:1302388:0]          mpool.c:42   UCX  WARN  object 0xb57f5c0 was not returned to mpool ucp_requests
[1715541984.232468] [nc30644:1302388:0]          mpool.c:42   UCX  WARN  object 0xb57f780 was not returned to mpool ucp_requests
[1715541984.232470] [nc30644:1302388:0]          mpool.c:42   UCX  WARN  object 0xb57f940 was not returned to mpool ucp_requests
[1715541984.232473] [nc30644:1302388:0]          mpool.c:42   UCX  WARN  object 0xb57fb00 was not returned to mpool ucp_requests
[1715541984.232475] [nc30644:1302388:0]          mpool.c:42   UCX  WARN  object 0xb57fcc0 was not returned to mpool ucp_requests
[1715541984.232477] [nc30644:1302388:0]          mpool.c:42   UCX  WARN  object 0xb57fe80 was not returned to mpool ucp_requests
[1715541984.232480] [nc30644:1302388:0]          mpool.c:42   UCX  WARN  object 0xb580040 was not returned to mpool ucp_requests
[1715541984.232482] [nc30644:1302388:0]          mpool.c:42   UCX  WARN  object 0xb580200 was not returned to mpool ucp_requests
[1715541984.232485] [nc30644:1302388:0]          mpool.c:42   UCX  WARN  object 0xb5803c0 was not returned to mpool ucp_requests
[1715541984.232487] [nc30644:1302388:0]          mpool.c:42   UCX  WARN  object 0xb580580 was not returned to mpool ucp_requests
[1715541984.232489] [nc30644:1302388:0]          mpool.c:42   UCX  WARN  object 0xb580740 was not returned to mpool ucp_requests
[1715541984.232492] [nc30644:1302388:0]          mpool.c:42   UCX  WARN  object 0xb580900 was not returned to mpool ucp_requests
[1715541984.232494] [nc30644:1302388:0]          mpool.c:42   UCX  WARN  object 0xb580ac0 was not returned to mpool ucp_requests
[1715541984.232496] [nc30644:1302388:0]          mpool.c:42   UCX  WARN  object 0xb580c80 was not returned to mpool ucp_requests
[1715541984.232499] [nc30644:1302388:0]          mpool.c:42   UCX  WARN  object 0xb580e40 was not returned to mpool ucp_requests
[1715541984.243849] [nc30644:1302379:0]          mpool.c:42   UCX  WARN  object 0xb313f80 was not returned to mpool ucp_requests
[1715541984.243868] [nc30644:1302379:0]          mpool.c:42   UCX  WARN  object 0xb314140 was not returned to mpool ucp_requests
[1715541984.243873] [nc30644:1302379:0]          mpool.c:42   UCX  WARN  object 0xb314300 was not returned to mpool ucp_requests
[1715541984.243877] [nc30644:1302379:0]          mpool.c:42   UCX  WARN  object 0xb3144c0 was not returned to mpool ucp_requests
[1715541984.243880] [nc30644:1302379:0]          mpool.c:42   UCX  WARN  object 0xb314680 was not returned to mpool ucp_requests
[1715541984.243883] [nc30644:1302379:0]          mpool.c:42   UCX  WARN  object 0xb314840 was not returned to mpool ucp_requests
[1715541984.243886] [nc30644:1302379:0]          mpool.c:42   UCX  WARN  object 0xb314a00 was not returned to mpool ucp_requests
[1715541984.243889] [nc30644:1302379:0]          mpool.c:42   UCX  WARN  object 0xb314bc0 was not returned to mpool ucp_requests
[1715541984.243891] [nc30644:1302379:0]          mpool.c:42   UCX  WARN  object 0xb314d80 was not returned to mpool ucp_requests
[1715541984.243895] [nc30644:1302379:0]          mpool.c:42   UCX  WARN  object 0xb314f40 was not returned to mpool ucp_requests
[1715541984.243898] [nc30644:1302379:0]          mpool.c:42   UCX  WARN  object 0xb315100 was not returned to mpool ucp_requests
[1715541984.243902] [nc30644:1302379:0]          mpool.c:42   UCX  WARN  object 0xb3152c0 was not returned to mpool ucp_requests
[1715541984.243905] [nc30644:1302379:0]          mpool.c:42   UCX  WARN  object 0xb315480 was not returned to mpool ucp_requests
[1715541984.243909] [nc30644:1302379:0]          mpool.c:42   UCX  WARN  object 0xb315640 was not returned to mpool ucp_requests
[1715541984.243911] [nc30644:1302379:0]          mpool.c:42   UCX  WARN  object 0xb315800 was not returned to mpool ucp_requests
[1715541984.243914] [nc30644:1302379:0]          mpool.c:42   UCX  WARN  object 0xb3159c0 was not returned to mpool ucp_requests
[1715541984.243916] [nc30644:1302379:0]          mpool.c:42   UCX  WARN  object 0xb315b80 was not returned to mpool ucp_requests
[1715541984.243918] [nc30644:1302379:0]          mpool.c:42   UCX  WARN  object 0xb315d40 was not returned to mpool ucp_requests
[1715541984.243921] [nc30644:1302379:0]          mpool.c:42   UCX  WARN  object 0xb315f00 was not returned to mpool ucp_requests
[1715541984.260571] [nc30644:1302375:0]          mpool.c:42   UCX  WARN  object 0xb330200 was not returned to mpool ucp_requests
[1715541984.260590] [nc30644:1302375:0]          mpool.c:42   UCX  WARN  object 0xb3303c0 was not returned to mpool ucp_requests
[1715541984.260596] [nc30644:1302375:0]          mpool.c:42   UCX  WARN  object 0xb330580 was not returned to mpool ucp_requests
[1715541984.260600] [nc30644:1302375:0]          mpool.c:42   UCX  WARN  object 0xb330740 was not returned to mpool ucp_requests
[1715541984.260603] [nc30644:1302375:0]          mpool.c:42   UCX  WARN  object 0xb330900 was not returned to mpool ucp_requests
[1715541984.260608] [nc30644:1302375:0]          mpool.c:42   UCX  WARN  object 0xb330ac0 was not returned to mpool ucp_requests
[1715541984.260611] [nc30644:1302375:0]          mpool.c:42   UCX  WARN  object 0xb330c80 was not returned to mpool ucp_requests
[1715541984.260615] [nc30644:1302375:0]          mpool.c:42   UCX  WARN  object 0xb330e40 was not returned to mpool ucp_requests
[1715541984.260620] [nc30644:1302375:0]          mpool.c:42   UCX  WARN  object 0xb331000 was not returned to mpool ucp_requests
[1715541984.260624] [nc30644:1302375:0]          mpool.c:42   UCX  WARN  object 0xb3311c0 was not returned to mpool ucp_requests
[1715541984.260627] [nc30644:1302375:0]          mpool.c:42   UCX  WARN  object 0xb331380 was not returned to mpool ucp_requests
[1715541984.260631] [nc30644:1302375:0]          mpool.c:42   UCX  WARN  object 0xb331540 was not returned to mpool ucp_requests
[1715541984.260635] [nc30644:1302375:0]          mpool.c:42   UCX  WARN  object 0xb331700 was not returned to mpool ucp_requests
[1715541984.260638] [nc30644:1302375:0]          mpool.c:42   UCX  WARN  object 0xb3318c0 was not returned to mpool ucp_requests
[1715541984.260642] [nc30644:1302375:0]          mpool.c:42   UCX  WARN  object 0xb331a80 was not returned to mpool ucp_requests
[1715541984.260645] [nc30644:1302375:0]          mpool.c:42   UCX  WARN  object 0xb331c40 was not returned to mpool ucp_requests
[1715541984.261695] [nc30644:1302381:0]          mpool.c:42   UCX  WARN  object 0xb199800 was not returned to mpool ucp_requests
[1715541984.261709] [nc30644:1302381:0]          mpool.c:42   UCX  WARN  object 0xb1999c0 was not returned to mpool ucp_requests
[1715541984.261715] [nc30644:1302381:0]          mpool.c:42   UCX  WARN  object 0xb199b80 was not returned to mpool ucp_requests
[1715541984.261718] [nc30644:1302381:0]          mpool.c:42   UCX  WARN  object 0xb199d40 was not returned to mpool ucp_requests
[1715541984.261721] [nc30644:1302381:0]          mpool.c:42   UCX  WARN  object 0xb199f00 was not returned to mpool ucp_requests
[1715541984.261723] [nc30644:1302381:0]          mpool.c:42   UCX  WARN  object 0xb19a0c0 was not returned to mpool ucp_requests
[1715541984.261726] [nc30644:1302381:0]          mpool.c:42   UCX  WARN  object 0xb19a280 was not returned to mpool ucp_requests
[1715541984.261729] [nc30644:1302381:0]          mpool.c:42   UCX  WARN  object 0xb19a440 was not returned to mpool ucp_requests
[1715541984.261732] [nc30644:1302381:0]          mpool.c:42   UCX  WARN  object 0xb19a600 was not returned to mpool ucp_requests
[1715541984.261735] [nc30644:1302381:0]          mpool.c:42   UCX  WARN  object 0xb19a7c0 was not returned to mpool ucp_requests
[1715541984.261738] [nc30644:1302381:0]          mpool.c:42   UCX  WARN  object 0xb19a980 was not returned to mpool ucp_requests
[1715541984.261740] [nc30644:1302381:0]          mpool.c:42   UCX  WARN  object 0xb19ab40 was not returned to mpool ucp_requests
[1715541984.261743] [nc30644:1302381:0]          mpool.c:42   UCX  WARN  object 0xb19ad00 was not returned to mpool ucp_requests
[1715541984.261746] [nc30644:1302381:0]          mpool.c:42   UCX  WARN  object 0xb19aec0 was not returned to mpool ucp_requests
[1715541984.261748] [nc30644:1302381:0]          mpool.c:42   UCX  WARN  object 0xb19b080 was not returned to mpool ucp_requests
[1715541984.261751] [nc30644:1302381:0]          mpool.c:42   UCX  WARN  object 0xb19b240 was not returned to mpool ucp_requests
[1715541984.261753] [nc30644:1302381:0]          mpool.c:42   UCX  WARN  object 0xb19b400 was not returned to mpool ucp_requests
[1715541984.261756] [nc30644:1302381:0]          mpool.c:42   UCX  WARN  object 0xb19b5c0 was not returned to mpool ucp_requests
[1715541984.261758] [nc30644:1302381:0]          mpool.c:42   UCX  WARN  object 0xb19b780 was not returned to mpool ucp_requests
[1715541984.261795] [nc30644:1302377:0]          mpool.c:42   UCX  WARN  object 0xb2b9d40 was not returned to mpool ucp_requests
[1715541984.261818] [nc30644:1302377:0]          mpool.c:42   UCX  WARN  object 0xb2b9f00 was not returned to mpool ucp_requests
[1715541984.261835] [nc30644:1302377:0]          mpool.c:42   UCX  WARN  object 0xb2ba0c0 was not returned to mpool ucp_requests
[1715541984.261838] [nc30644:1302377:0]          mpool.c:42   UCX  WARN  object 0xb2ba280 was not returned to mpool ucp_requests
[1715541984.261842] [nc30644:1302377:0]          mpool.c:42   UCX  WARN  object 0xb2ba440 was not returned to mpool ucp_requests
[1715541984.261846] [nc30644:1302377:0]          mpool.c:42   UCX  WARN  object 0xb2ba600 was not returned to mpool ucp_requests
[1715541984.261849] [nc30644:1302377:0]          mpool.c:42   UCX  WARN  object 0xb2ba7c0 was not returned to mpool ucp_requests
[1715541984.261853] [nc30644:1302377:0]          mpool.c:42   UCX  WARN  object 0xb2ba980 was not returned to mpool ucp_requests
[1715541984.261856] [nc30644:1302377:0]          mpool.c:42   UCX  WARN  object 0xb2bab40 was not returned to mpool ucp_requests
[1715541984.261860] [nc30644:1302377:0]          mpool.c:42   UCX  WARN  object 0xb2bad00 was not returned to mpool ucp_requests
[1715541984.261864] [nc30644:1302377:0]          mpool.c:42   UCX  WARN  object 0xb2baec0 was not returned to mpool ucp_requests
[1715541984.261868] [nc30644:1302377:0]          mpool.c:42   UCX  WARN  object 0xb2bb080 was not returned to mpool ucp_requests
[1715541984.261871] [nc30644:1302377:0]          mpool.c:42   UCX  WARN  object 0xb2bb240 was not returned to mpool ucp_requests
[1715541984.261875] [nc30644:1302377:0]          mpool.c:42   UCX  WARN  object 0xb2bb400 was not returned to mpool ucp_requests
[1715541984.261879] [nc30644:1302377:0]          mpool.c:42   UCX  WARN  object 0xb2bb5c0 was not returned to mpool ucp_requests
[1715541984.261883] [nc30644:1302377:0]          mpool.c:42   UCX  WARN  object 0xb2bb780 was not returned to mpool ucp_requests
[1715541984.262050] [nc30644:1302378:0]          mpool.c:42   UCX  WARN  object 0xb95d9c0 was not returned to mpool ucp_requests
[1715541984.262073] [nc30644:1302378:0]          mpool.c:42   UCX  WARN  object 0xb95db80 was not returned to mpool ucp_requests
[1715541984.262079] [nc30644:1302378:0]          mpool.c:42   UCX  WARN  object 0xb95dd40 was not returned to mpool ucp_requests
[1715541984.262081] [nc30644:1302378:0]          mpool.c:42   UCX  WARN  object 0xb95df00 was not returned to mpool ucp_requests
[1715541984.262085] [nc30644:1302378:0]          mpool.c:42   UCX  WARN  object 0xb95e0c0 was not returned to mpool ucp_requests
[1715541984.262088] [nc30644:1302378:0]          mpool.c:42   UCX  WARN  object 0xb95e280 was not returned to mpool ucp_requests
[1715541984.262091] [nc30644:1302378:0]          mpool.c:42   UCX  WARN  object 0xb95e440 was not returned to mpool ucp_requests
[1715541984.262105] [nc30644:1302378:0]          mpool.c:42   UCX  WARN  object 0xb95e600 was not returned to mpool ucp_requests
[1715541984.262108] [nc30644:1302378:0]          mpool.c:42   UCX  WARN  object 0xb95e7c0 was not returned to mpool ucp_requests
[1715541984.262110] [nc30644:1302378:0]          mpool.c:42   UCX  WARN  object 0xb95e980 was not returned to mpool ucp_requests
[1715541984.262113] [nc30644:1302378:0]          mpool.c:42   UCX  WARN  object 0xb95eb40 was not returned to mpool ucp_requests
[1715541984.262116] [nc30644:1302378:0]          mpool.c:42   UCX  WARN  object 0xb95ed00 was not returned to mpool ucp_requests
[1715541984.262119] [nc30644:1302378:0]          mpool.c:42   UCX  WARN  object 0xb95eec0 was not returned to mpool ucp_requests
[1715541984.262121] [nc30644:1302378:0]          mpool.c:42   UCX  WARN  object 0xb95f080 was not returned to mpool ucp_requests
[1715541984.262124] [nc30644:1302378:0]          mpool.c:42   UCX  WARN  object 0xb95f240 was not returned to mpool ucp_requests
[1715541984.262127] [nc30644:1302378:0]          mpool.c:42   UCX  WARN  object 0xb95f400 was not returned to mpool ucp_requests
[1715541984.262129] [nc30644:1302378:0]          mpool.c:42   UCX  WARN  object 0xb95f5c0 was not returned to mpool ucp_requests
[1715541984.262132] [nc30644:1302378:0]          mpool.c:42   UCX  WARN  object 0xb95f780 was not returned to mpool ucp_requests
[1715541984.262135] [nc30644:1302378:0]          mpool.c:42   UCX  WARN  object 0xb95f940 was not returned to mpool ucp_requests
[1715541984.262732] [nc30644:1302389:0]          mpool.c:42   UCX  WARN  object 0xb586a80 was not returned to mpool ucp_requests
[1715541984.262751] [nc30644:1302389:0]          mpool.c:42   UCX  WARN  object 0xb586c40 was not returned to mpool ucp_requests
[1715541984.262757] [nc30644:1302389:0]          mpool.c:42   UCX  WARN  object 0xb586e00 was not returned to mpool ucp_requests
[1715541984.262762] [nc30644:1302389:0]          mpool.c:42   UCX  WARN  object 0xb586fc0 was not returned to mpool ucp_requests
[1715541984.262765] [nc30644:1302389:0]          mpool.c:42   UCX  WARN  object 0xb587180 was not returned to mpool ucp_requests
[1715541984.262769] [nc30644:1302389:0]          mpool.c:42   UCX  WARN  object 0xb587340 was not returned to mpool ucp_requests
[1715541984.262772] [nc30644:1302389:0]          mpool.c:42   UCX  WARN  object 0xb587500 was not returned to mpool ucp_requests
[1715541984.262776] [nc30644:1302389:0]          mpool.c:42   UCX  WARN  object 0xb5876c0 was not returned to mpool ucp_requests
[1715541984.262779] [nc30644:1302389:0]          mpool.c:42   UCX  WARN  object 0xb587880 was not returned to mpool ucp_requests
[1715541984.262782] [nc30644:1302389:0]          mpool.c:42   UCX  WARN  object 0xb587a40 was not returned to mpool ucp_requests
[1715541984.262780] [nc30644:1302384:0]          mpool.c:42   UCX  WARN  object 0xc0af300 was not returned to mpool ucp_requests
[1715541984.262791] [nc30644:1302384:0]          mpool.c:42   UCX  WARN  object 0xc0af4c0 was not returned to mpool ucp_requests
[1715541984.262797] [nc30644:1302384:0]          mpool.c:42   UCX  WARN  object 0xc0af680 was not returned to mpool ucp_requests
[1715541984.262801] [nc30644:1302384:0]          mpool.c:42   UCX  WARN  object 0xc0af840 was not returned to mpool ucp_requests
[1715541984.262786] [nc30644:1302389:0]          mpool.c:42   UCX  WARN  object 0xb587c00 was not returned to mpool ucp_requests
[1715541984.262790] [nc30644:1302389:0]          mpool.c:42   UCX  WARN  object 0xb587dc0 was not returned to mpool ucp_requests
[1715541984.262793] [nc30644:1302389:0]          mpool.c:42   UCX  WARN  object 0xb587f80 was not returned to mpool ucp_requests
[1715541984.262796] [nc30644:1302389:0]          mpool.c:42   UCX  WARN  object 0xb588140 was not returned to mpool ucp_requests
[1715541984.262798] [nc30644:1302389:0]          mpool.c:42   UCX  WARN  object 0xb588300 was not returned to mpool ucp_requests
[1715541984.262801] [nc30644:1302389:0]          mpool.c:42   UCX  WARN  object 0xb5884c0 was not returned to mpool ucp_requests
[1715541984.262804] [nc30644:1302384:0]          mpool.c:42   UCX  WARN  object 0xc0afa00 was not returned to mpool ucp_requests
[1715541984.262809] [nc30644:1302384:0]          mpool.c:42   UCX  WARN  object 0xc0afbc0 was not returned to mpool ucp_requests
[1715541984.262805] [nc30644:1302389:0]          mpool.c:42   UCX  WARN  object 0xb588680 was not returned to mpool ucp_requests
[1715541984.262812] [nc30644:1302384:0]          mpool.c:42   UCX  WARN  object 0xc0afd80 was not returned to mpool ucp_requests
[1715541984.262816] [nc30644:1302384:0]          mpool.c:42   UCX  WARN  object 0xc0aff40 was not returned to mpool ucp_requests
[1715541984.262819] [nc30644:1302384:0]          mpool.c:42   UCX  WARN  object 0xc0b0100 was not returned to mpool ucp_requests
[1715541984.262823] [nc30644:1302384:0]          mpool.c:42   UCX  WARN  object 0xc0b02c0 was not returned to mpool ucp_requests
[1715541984.262842] [nc30644:1302384:0]          mpool.c:42   UCX  WARN  object 0xc0b0480 was not returned to mpool ucp_requests
[1715541984.262845] [nc30644:1302384:0]          mpool.c:42   UCX  WARN  object 0xc0b0640 was not returned to mpool ucp_requests
[1715541984.262848] [nc30644:1302384:0]          mpool.c:42   UCX  WARN  object 0xc0b0800 was not returned to mpool ucp_requests
[1715541984.262852] [nc30644:1302384:0]          mpool.c:42   UCX  WARN  object 0xc0b09c0 was not returned to mpool ucp_requests
[1715541984.262856] [nc30644:1302384:0]          mpool.c:42   UCX  WARN  object 0xc0b0b80 was not returned to mpool ucp_requests
[1715541984.262859] [nc30644:1302384:0]          mpool.c:42   UCX  WARN  object 0xc0b0d40 was not returned to mpool ucp_requests
[1715541984.262863] [nc30644:1302384:0]          mpool.c:42   UCX  WARN  object 0xc0b0f00 was not returned to mpool ucp_requests
[1715541984.263159] [nc30644:1302402:0]          mpool.c:42   UCX  WARN  object 0xc0db800 was not returned to mpool ucp_requests
[1715541984.263182] [nc30644:1302402:0]          mpool.c:42   UCX  WARN  object 0xc0db9c0 was not returned to mpool ucp_requests
[1715541984.263187] [nc30644:1302402:0]          mpool.c:42   UCX  WARN  object 0xc0dbb80 was not returned to mpool ucp_requests
[1715541984.263191] [nc30644:1302402:0]          mpool.c:42   UCX  WARN  object 0xc0dbd40 was not returned to mpool ucp_requests
[1715541984.263195] [nc30644:1302402:0]          mpool.c:42   UCX  WARN  object 0xc0dbf00 was not returned to mpool ucp_requests
[1715541984.263199] [nc30644:1302402:0]          mpool.c:42   UCX  WARN  object 0xc0dc0c0 was not returned to mpool ucp_requests
[1715541984.263203] [nc30644:1302402:0]          mpool.c:42   UCX  WARN  object 0xc0dc280 was not returned to mpool ucp_requests
[1715541984.263207] [nc30644:1302402:0]          mpool.c:42   UCX  WARN  object 0xc0dc440 was not returned to mpool ucp_requests
[1715541984.263211] [nc30644:1302402:0]          mpool.c:42   UCX  WARN  object 0xc0dc600 was not returned to mpool ucp_requests
[1715541984.263214] [nc30644:1302402:0]          mpool.c:42   UCX  WARN  object 0xc0dc7c0 was not returned to mpool ucp_requests
[1715541984.263219] [nc30644:1302402:0]          mpool.c:42   UCX  WARN  object 0xc0dc980 was not returned to mpool ucp_requests
[1715541984.263222] [nc30644:1302402:0]          mpool.c:42   UCX  WARN  object 0xc0dcb40 was not returned to mpool ucp_requests
[1715541984.263226] [nc30644:1302402:0]          mpool.c:42   UCX  WARN  object 0xc0dcd00 was not returned to mpool ucp_requests
[1715541984.263229] [nc30644:1302402:0]          mpool.c:42   UCX  WARN  object 0xc0dcec0 was not returned to mpool ucp_requests
[1715541984.263232] [nc30644:1302402:0]          mpool.c:42   UCX  WARN  object 0xc0dd080 was not returned to mpool ucp_requests
[1715541984.263236] [nc30644:1302402:0]          mpool.c:42   UCX  WARN  object 0xc0dd240 was not returned to mpool ucp_requests
[1715541984.263239] [nc30644:1302402:0]          mpool.c:42   UCX  WARN  object 0xc0dd400 was not returned to mpool ucp_requests
[1715541984.263435] [nc30644:1302395:0]          mpool.c:42   UCX  WARN  object 0xb6eec40 was not returned to mpool ucp_requests
[1715541984.263447] [nc30644:1302395:0]          mpool.c:42   UCX  WARN  object 0xb6eee00 was not returned to mpool ucp_requests
[1715541984.263454] [nc30644:1302395:0]          mpool.c:42   UCX  WARN  object 0xb6eefc0 was not returned to mpool ucp_requests
[1715541984.263457] [nc30644:1302395:0]          mpool.c:42   UCX  WARN  object 0xb6ef180 was not returned to mpool ucp_requests
[1715541984.263462] [nc30644:1302395:0]          mpool.c:42   UCX  WARN  object 0xb6ef340 was not returned to mpool ucp_requests
[1715541984.263465] [nc30644:1302395:0]          mpool.c:42   UCX  WARN  object 0xb6ef500 was not returned to mpool ucp_requests
[1715541984.263468] [nc30644:1302395:0]          mpool.c:42   UCX  WARN  object 0xb6ef6c0 was not returned to mpool ucp_requests
[1715541984.263471] [nc30644:1302395:0]          mpool.c:42   UCX  WARN  object 0xb6ef880 was not returned to mpool ucp_requests
[1715541984.263473] [nc30644:1302395:0]          mpool.c:42   UCX  WARN  object 0xb6efa40 was not returned to mpool ucp_requests
[1715541984.263476] [nc30644:1302395:0]          mpool.c:42   UCX  WARN  object 0xb6efc00 was not returned to mpool ucp_requests
[1715541984.263479] [nc30644:1302395:0]          mpool.c:42   UCX  WARN  object 0xb6efdc0 was not returned to mpool ucp_requests
[1715541984.263481] [nc30644:1302395:0]          mpool.c:42   UCX  WARN  object 0xb6eff80 was not returned to mpool ucp_requests
[1715541984.263484] [nc30644:1302395:0]          mpool.c:42   UCX  WARN  object 0xb6f0140 was not returned to mpool ucp_requests
[1715541984.263487] [nc30644:1302395:0]          mpool.c:42   UCX  WARN  object 0xb6f0300 was not returned to mpool ucp_requests
[1715541984.263490] [nc30644:1302395:0]          mpool.c:42   UCX  WARN  object 0xb6f04c0 was not returned to mpool ucp_requests
[1715541984.263497] [nc30644:1302395:0]          mpool.c:42   UCX  WARN  object 0xb6f0680 was not returned to mpool ucp_requests
[1715541984.263499] [nc30644:1302395:0]          mpool.c:42   UCX  WARN  object 0xb6f0840 was not returned to mpool ucp_requests
[1715541984.264039] [nc30644:1302392:0]          mpool.c:42   UCX  WARN  object 0xaf0b680 was not returned to mpool ucp_requests
[1715541984.264059] [nc30644:1302392:0]          mpool.c:42   UCX  WARN  object 0xaf0b840 was not returned to mpool ucp_requests
[1715541984.264064] [nc30644:1302392:0]          mpool.c:42   UCX  WARN  object 0xaf0ba00 was not returned to mpool ucp_requests
[1715541984.264069] [nc30644:1302392:0]          mpool.c:42   UCX  WARN  object 0xaf0bbc0 was not returned to mpool ucp_requests
[1715541984.264074] [nc30644:1302392:0]          mpool.c:42   UCX  WARN  object 0xaf0bd80 was not returned to mpool ucp_requests
[1715541984.264079] [nc30644:1302392:0]          mpool.c:42   UCX  WARN  object 0xaf0bf40 was not returned to mpool ucp_requests
[1715541984.264083] [nc30644:1302392:0]          mpool.c:42   UCX  WARN  object 0xaf0c100 was not returned to mpool ucp_requests
[1715541984.264087] [nc30644:1302392:0]          mpool.c:42   UCX  WARN  object 0xaf0c2c0 was not returned to mpool ucp_requests
[1715541984.264091] [nc30644:1302392:0]          mpool.c:42   UCX  WARN  object 0xaf0c480 was not returned to mpool ucp_requests
[1715541984.264095] [nc30644:1302392:0]          mpool.c:42   UCX  WARN  object 0xaf0c640 was not returned to mpool ucp_requests
[1715541984.264098] [nc30644:1302392:0]          mpool.c:42   UCX  WARN  object 0xaf0c800 was not returned to mpool ucp_requests
[1715541984.264101] [nc30644:1302392:0]          mpool.c:42   UCX  WARN  object 0xaf0c9c0 was not returned to mpool ucp_requests
[1715541984.264105] [nc30644:1302392:0]          mpool.c:42   UCX  WARN  object 0xaf0cb80 was not returned to mpool ucp_requests
[1715541984.264109] [nc30644:1302392:0]          mpool.c:42   UCX  WARN  object 0xaf0cd40 was not returned to mpool ucp_requests
[1715541984.264113] [nc30644:1302392:0]          mpool.c:42   UCX  WARN  object 0xaf0cf00 was not returned to mpool ucp_requests
[1715541984.264116] [nc30644:1302392:0]          mpool.c:42   UCX  WARN  object 0xaf0d0c0 was not returned to mpool ucp_requests
[1715541984.264120] [nc30644:1302392:0]          mpool.c:42   UCX  WARN  object 0xaf0d280 was not returned to mpool ucp_requests
[1715541984.264089] [nc30644:1302376:0]          mpool.c:42   UCX  WARN  object 0xc398080 was not returned to mpool ucp_requests
[1715541984.264112] [nc30644:1302376:0]          mpool.c:42   UCX  WARN  object 0xc398240 was not returned to mpool ucp_requests
[1715541984.264117] [nc30644:1302376:0]          mpool.c:42   UCX  WARN  object 0xc398400 was not returned to mpool ucp_requests
[1715541984.264121] [nc30644:1302376:0]          mpool.c:42   UCX  WARN  object 0xc3985c0 was not returned to mpool ucp_requests
[1715541984.264126] [nc30644:1302376:0]          mpool.c:42   UCX  WARN  object 0xc398780 was not returned to mpool ucp_requests
[1715541984.264130] [nc30644:1302376:0]          mpool.c:42   UCX  WARN  object 0xc398940 was not returned to mpool ucp_requests
[1715541984.264137] [nc30644:1302376:0]          mpool.c:42   UCX  WARN  object 0xc398b00 was not returned to mpool ucp_requests
[1715541984.264142] [nc30644:1302376:0]          mpool.c:42   UCX  WARN  object 0xc398cc0 was not returned to mpool ucp_requests
[1715541984.264146] [nc30644:1302376:0]          mpool.c:42   UCX  WARN  object 0xc398e80 was not returned to mpool ucp_requests
[1715541984.264152] [nc30644:1302376:0]          mpool.c:42   UCX  WARN  object 0xc399040 was not returned to mpool ucp_requests
[1715541984.264156] [nc30644:1302376:0]          mpool.c:42   UCX  WARN  object 0xc399200 was not returned to mpool ucp_requests
[1715541984.264161] [nc30644:1302376:0]          mpool.c:42   UCX  WARN  object 0xc3993c0 was not returned to mpool ucp_requests
[1715541984.264165] [nc30644:1302376:0]          mpool.c:42   UCX  WARN  object 0xc399580 was not returned to mpool ucp_requests
[1715541984.264169] [nc30644:1302376:0]          mpool.c:42   UCX  WARN  object 0xc399740 was not returned to mpool ucp_requests
[1715541984.264174] [nc30644:1302376:0]          mpool.c:42   UCX  WARN  object 0xc399900 was not returned to mpool ucp_requests
[1715541984.264177] [nc30644:1302376:0]          mpool.c:42   UCX  WARN  object 0xc399ac0 was not returned to mpool ucp_requests
[1715541984.264364] [nc30644:1302385:0]          mpool.c:42   UCX  WARN  object 0xb7c50c0 was not returned to mpool ucp_requests
[1715541984.264385] [nc30644:1302385:0]          mpool.c:42   UCX  WARN  object 0xb7c5280 was not returned to mpool ucp_requests
[1715541984.264394] [nc30644:1302385:0]          mpool.c:42   UCX  WARN  object 0xb7c5440 was not returned to mpool ucp_requests
[1715541984.264398] [nc30644:1302385:0]          mpool.c:42   UCX  WARN  object 0xb7c5600 was not returned to mpool ucp_requests
[1715541984.264401] [nc30644:1302385:0]          mpool.c:42   UCX  WARN  object 0xb7c57c0 was not returned to mpool ucp_requests
[1715541984.264406] [nc30644:1302385:0]          mpool.c:42   UCX  WARN  object 0xb7c5980 was not returned to mpool ucp_requests
[1715541984.264409] [nc30644:1302385:0]          mpool.c:42   UCX  WARN  object 0xb7c5b40 was not returned to mpool ucp_requests
[1715541984.264412] [nc30644:1302385:0]          mpool.c:42   UCX  WARN  object 0xb7c5d00 was not returned to mpool ucp_requests
[1715541984.264416] [nc30644:1302385:0]          mpool.c:42   UCX  WARN  object 0xb7c5ec0 was not returned to mpool ucp_requests
[1715541984.264420] [nc30644:1302385:0]          mpool.c:42   UCX  WARN  object 0xb7c6080 was not returned to mpool ucp_requests
[1715541984.264424] [nc30644:1302385:0]          mpool.c:42   UCX  WARN  object 0xb7c6240 was not returned to mpool ucp_requests
[1715541984.264428] [nc30644:1302385:0]          mpool.c:42   UCX  WARN  object 0xb7c6400 was not returned to mpool ucp_requests
[1715541984.264431] [nc30644:1302385:0]          mpool.c:42   UCX  WARN  object 0xb7c65c0 was not returned to mpool ucp_requests
[1715541984.264435] [nc30644:1302385:0]          mpool.c:42   UCX  WARN  object 0xb7c6780 was not returned to mpool ucp_requests
[1715541984.264439] [nc30644:1302385:0]          mpool.c:42   UCX  WARN  object 0xb7c6940 was not returned to mpool ucp_requests
[1715541984.264443] [nc30644:1302385:0]          mpool.c:42   UCX  WARN  object 0xb7c6b00 was not returned to mpool ucp_requests
[1715541984.264447] [nc30644:1302385:0]          mpool.c:42   UCX  WARN  object 0xb7c6cc0 was not returned to mpool ucp_requests
[1715541984.264589] [nc30644:1302397:0]          mpool.c:42   UCX  WARN  object 0xc0adf40 was not returned to mpool ucp_requests
[1715541984.264601] [nc30644:1302397:0]          mpool.c:42   UCX  WARN  object 0xc0ae100 was not returned to mpool ucp_requests
[1715541984.264605] [nc30644:1302397:0]          mpool.c:42   UCX  WARN  object 0xc0ae2c0 was not returned to mpool ucp_requests
[1715541984.264607] [nc30644:1302397:0]          mpool.c:42   UCX  WARN  object 0xc0ae480 was not returned to mpool ucp_requests
[1715541984.264610] [nc30644:1302397:0]          mpool.c:42   UCX  WARN  object 0xc0ae640 was not returned to mpool ucp_requests
[1715541984.264612] [nc30644:1302397:0]          mpool.c:42   UCX  WARN  object 0xc0ae800 was not returned to mpool ucp_requests
[1715541984.264615] [nc30644:1302397:0]          mpool.c:42   UCX  WARN  object 0xc0ae9c0 was not returned to mpool ucp_requests
[1715541984.264617] [nc30644:1302397:0]          mpool.c:42   UCX  WARN  object 0xc0aeb80 was not returned to mpool ucp_requests
[1715541984.264619] [nc30644:1302397:0]          mpool.c:42   UCX  WARN  object 0xc0aed40 was not returned to mpool ucp_requests
[1715541984.264622] [nc30644:1302397:0]          mpool.c:42   UCX  WARN  object 0xc0aef00 was not returned to mpool ucp_requests
[1715541984.264625] [nc30644:1302397:0]          mpool.c:42   UCX  WARN  object 0xc0af0c0 was not returned to mpool ucp_requests
[1715541984.264627] [nc30644:1302397:0]          mpool.c:42   UCX  WARN  object 0xc0af280 was not returned to mpool ucp_requests
[1715541984.264630] [nc30644:1302397:0]          mpool.c:42   UCX  WARN  object 0xc0af440 was not returned to mpool ucp_requests
[1715541984.264633] [nc30644:1302397:0]          mpool.c:42   UCX  WARN  object 0xc0af600 was not returned to mpool ucp_requests
[1715541984.264635] [nc30644:1302397:0]          mpool.c:42   UCX  WARN  object 0xc0af7c0 was not returned to mpool ucp_requests
[1715541984.264638] [nc30644:1302397:0]          mpool.c:42   UCX  WARN  object 0xc0af980 was not returned to mpool ucp_requests
[1715541984.264640] [nc30644:1302397:0]          mpool.c:42   UCX  WARN  object 0xc0afb40 was not returned to mpool ucp_requests
[1715541984.265364] [nc30644:1302380:0]          mpool.c:42   UCX  WARN  object 0xbe240c0 was not returned to mpool ucp_requests
[1715541984.265391] [nc30644:1302380:0]          mpool.c:42   UCX  WARN  object 0xbe24280 was not returned to mpool ucp_requests
[1715541984.265398] [nc30644:1302380:0]          mpool.c:42   UCX  WARN  object 0xbe24440 was not returned to mpool ucp_requests
[1715541984.265402] [nc30644:1302380:0]          mpool.c:42   UCX  WARN  object 0xbe24600 was not returned to mpool ucp_requests
[1715541984.265406] [nc30644:1302380:0]          mpool.c:42   UCX  WARN  object 0xbe247c0 was not returned to mpool ucp_requests
[1715541984.265410] [nc30644:1302380:0]          mpool.c:42   UCX  WARN  object 0xbe24980 was not returned to mpool ucp_requests
[1715541984.265415] [nc30644:1302380:0]          mpool.c:42   UCX  WARN  object 0xbe24b40 was not returned to mpool ucp_requests
[1715541984.265421] [nc30644:1302380:0]          mpool.c:42   UCX  WARN  object 0xbe24d00 was not returned to mpool ucp_requests
[1715541984.265426] [nc30644:1302380:0]          mpool.c:42   UCX  WARN  object 0xbe24ec0 was not returned to mpool ucp_requests
[1715541984.265429] [nc30644:1302380:0]          mpool.c:42   UCX  WARN  object 0xbe25080 was not returned to mpool ucp_requests
[1715541984.265433] [nc30644:1302380:0]          mpool.c:42   UCX  WARN  object 0xbe25240 was not returned to mpool ucp_requests
[1715541984.265437] [nc30644:1302380:0]          mpool.c:42   UCX  WARN  object 0xbe25400 was not returned to mpool ucp_requests
[1715541984.265441] [nc30644:1302380:0]          mpool.c:42   UCX  WARN  object 0xbe255c0 was not returned to mpool ucp_requests
[1715541984.265445] [nc30644:1302380:0]          mpool.c:42   UCX  WARN  object 0xbe25780 was not returned to mpool ucp_requests
[1715541984.265449] [nc30644:1302380:0]          mpool.c:42   UCX  WARN  object 0xbe25940 was not returned to mpool ucp_requests
[1715541984.265453] [nc30644:1302380:0]          mpool.c:42   UCX  WARN  object 0xbe25b00 was not returned to mpool ucp_requests
[1715541984.265456] [nc30644:1302380:0]          mpool.c:42   UCX  WARN  object 0xbe25cc0 was not returned to mpool ucp_requests
[1715541984.265460] [nc30644:1302380:0]          mpool.c:42   UCX  WARN  object 0xbe25e80 was not returned to mpool ucp_requests
[1715541984.265464] [nc30644:1302380:0]          mpool.c:42   UCX  WARN  object 0xbe26040 was not returned to mpool ucp_requests


           ************************************************************
           *        Program running with 16 parallel MPI-processes    *
           *              working on a common directory               *
           ************************************************************
-------------------------------------------------------------------------------
                                 ORCA SCF
-------------------------------------------------------------------------------

------------
SCF SETTINGS
------------
Hamiltonian:
 Ab initio Hamiltonian  Method          .... Hartree-Fock(GTOs)


General Settings:
 Integral files         IntName         .... 2-methylpiperidine
 Hartree-Fock type      HFTyp           .... RHF
 Total Charge           Charge          ....    0
 Multiplicity           Mult            ....    1
 Number of Electrons    NEL             ....   56
 Basis Dimension        Dim             .... 1158
 Nuclear Repulsion      ENuc            ....    332.1925176214 Eh

Convergence Acceleration:
 DIIS                   CNVDIIS         .... on
   Start iteration      DIISMaxIt       ....    12
   Startup error        DIISStart       ....  0.200000
   # of expansion vecs  DIISMaxEq       ....     5
   Bias factor          DIISBfac        ....   1.050
   Max. coefficient     DIISMaxC        ....  10.000
 Trust-Rad. Augm. Hess. CNVTRAH         .... auto
   Auto Start mean grad. ratio tolernc. ....  1.125000
   Auto Start start iteration           ....    20
   Auto Start num. interpolation iter.  ....    10
   Max. Number of Micro iterations      ....    16
   Max. Number of Macro iterations      .... Maxiter - #DIIS iter
   Number of Davidson start vectors     ....     2
   Converg. threshold I  (grad. norm)   ....   1.000e-05
   Converg. threshold II (energy diff.) ....   1.000e-08
   Grad. Scal. Fac. for Micro threshold ....   0.100
   Minimum threshold for Micro iter.    ....   0.010
   NR start threshold (gradient norm)   ....   0.001
   Initial trust radius                 ....   0.400
   Minimum AH scaling param. (alpha)    ....   1.000
   Maximum AH scaling param. (alpha)    .... 1000.000
   Orbital update algorithm             .... Taylor
   White noise on init. David. guess    .... on
   Maximum white noise                  ....   0.010
   Quad. conv. algorithm                .... NR
 SOSCF                  CNVSOSCF        .... on
   Start iteration      SOSCFMaxIt      ....   150
   Startup grad/error   SOSCFStart      ....  0.003300
 Level Shifting         CNVShift        .... on
   Level shift para.    LevelShift      ....    0.2500
   Turn off err/grad.   ShiftErr        ....    0.0010
 Zerner damping         CNVZerner       .... off
 Static damping         CNVDamp         .... on
   Fraction old density DampFac         ....    0.7000
   Max. Damping (<1)    DampMax         ....    0.9800
   Min. Damping (>=0)   DampMin         ....    0.0000
   Turn off err/grad.   DampErr         ....    0.1000
 Fernandez-Rico         CNVRico         .... off

SCF Procedure:
 Maximum # iterations   MaxIter         ....   125
 SCF integral mode      SCFMode         .... Direct
   Integral package                     .... SHARK and LIBINT hybrid scheme
 Reset frequency        DirectResetFreq ....    20
 Integral Threshold     Thresh          ....  2.500e-11 Eh
 Primitive CutOff       TCut            ....  2.500e-12 Eh

Convergence Tolerance:
 Convergence Check Mode ConvCheckMode   .... Total+1el-Energy
 Convergence forced     ConvForced      .... 1
 Energy Change          TolE            ....  1.000e-08 Eh
 1-El. energy change                    ....  1.000e-05 Eh
 Orbital Gradient       TolG            ....  1.000e-05
 Orbital Rotation angle TolX            ....  1.000e-05
 DIIS Error             TolErr          ....  5.000e-07


Diagonalization of the overlap matrix:
Smallest eigenvalue                        ... 3.619e-07
Time for diagonalization                   ...    0.159 sec
Threshold for overlap eigenvalues          ... 1.000e-08
Number of eigenvalues below threshold      ... 0
Time for construction of square roots      ...    0.325 sec
Total time needed                          ...    0.489 sec

Time for model grid setup =    0.222 sec

------------------------------
INITIAL GUESS: MODEL POTENTIAL
------------------------------
Loading Hartree-Fock densities                     ... done
Calculating cut-offs                               ... done
Initializing the effective Hamiltonian             ... done
Setting up the integral package (SHARK)            ... done
Starting the Coulomb interaction                   ... done (   4.8 sec)
Reading the grid                                   ... done
Mapping shells                                     ... done
Starting the XC term evaluation                    ... done (   0.3 sec)
Transforming the Hamiltonian                       ... done (   0.1 sec)
Diagonalizing the Hamiltonian                      ... done (   0.2 sec)
Back transforming the eigenvectors                 ... done (   0.1 sec)
Now organizing SCF variables                       ... done
                      ------------------
                      INITIAL GUESS DONE (   5.7 sec)
                      ------------------
--------------
SCF ITERATIONS
--------------
ITER       Energy         Delta-E        Max-DP      RMS-DP      [F,P]     Damp
               ***  Starting incremental Fock matrix formation  ***
  0   -288.9262199938   0.000000000000 0.11498077  0.00063354  0.2970281 0.7000
  1   -289.0735785087  -0.147358514978 0.08652048  0.00048650  0.1882000 0.7000
                               ***Turning on DIIS***
  2   -289.1621935148  -0.088615006100 0.06362779  0.00035329  0.1136208 0.7000
  3   -290.1795254160  -1.017331901151 0.16381560  0.00088447  0.0697726 0.0000
  4   -289.2475924938   0.931932922184 0.00832915  0.00006287  0.0083235 0.0000
                      *** Initiating the SOSCF procedure ***
                           *** Shutting down DIIS ***
                      *** Re-Reading the Fockian *** 
                      *** Removing any level shift *** 
ITER      Energy       Delta-E        Grad      Rot      Max-DP    RMS-DP
  5   -289.33344603  -0.0858535394  0.000740  0.000740  0.004897  0.000028
               *** Restarting incremental Fock matrix formation ***
  6   -289.34559457  -0.0121485408  0.000302  0.000517  0.003057  0.000013
  7   -289.34562007  -0.0000254924  0.000083  0.000314  0.001760  0.000008
  8   -289.34562396  -0.0000038942  0.000029  0.000027  0.000159  0.000001
  9   -289.34562418  -0.0000002199  0.000007  0.000010  0.000072  0.000001
                  ***Gradient check signals convergence***
              ***Rediagonalizing the Fockian in SOSCF/NRSCF***

               *****************************************************
               *                     SUCCESS                       *
               *           SCF CONVERGED AFTER  10 CYCLES          *
               *****************************************************


----------------
TOTAL SCF ENERGY
----------------

Total Energy       :         -289.34562422 Eh           -7873.49472 eV

Components:
Nuclear Repulsion  :          332.19251762 Eh            9039.41796 eV
Electronic Energy  :         -621.53814184 Eh          -16912.91268 eV
One Electron Energy:        -1049.30681558 Eh          -28553.09006 eV
Two Electron Energy:          427.76867374 Eh           11640.17739 eV

Virial components:
Potential Energy   :         -578.40501451 Eh          -15739.20061 eV
Kinetic Energy     :          289.05939030 Eh            7865.70589 eV
Virial Ratio       :            2.00099023


---------------
SCF CONVERGENCE
---------------

  Last Energy change         ...   -3.5287e-08  Tolerance :   1.0000e-08
  Last MAX-Density change    ...    1.7075e-04  Tolerance :   1.0000e-07
  Last RMS-Density change    ...    1.4053e-06  Tolerance :   5.0000e-09
  Last Orbital Gradient      ...    1.8306e-06  Tolerance :   1.0000e-05
  Last Orbital Rotation      ...    4.2682e-06  Tolerance :   1.0000e-05

             **** THE GBW FILE WAS UPDATED (2-methylpiperidine.gbw) ****
             **** DENSITY 2-methylpiperidine.scfp WAS UPDATED ****
             **** ENERGY FILE WAS UPDATED (2-methylpiperidine.en.tmp) ****
             **** THE GBW FILE WAS UPDATED (2-methylpiperidine.gbw) ****
             **** DENSITY 2-methylpiperidine.scfp WAS UPDATED ****
----------------
ORBITAL ENERGIES
----------------

  NO   OCC          E(Eh)            E(eV) 
   0   2.0000     -15.530780      -422.6140 
   1   2.0000     -11.245403      -306.0030 
   2   2.0000     -11.239194      -305.8340 
   3   2.0000     -11.215165      -305.1801 
   4   2.0000     -11.212668      -305.1122 
   5   2.0000     -11.211754      -305.0873 
   6   2.0000     -11.206953      -304.9567 
   7   2.0000      -1.208232       -32.8777 
   8   2.0000      -1.053440       -28.6656 
   9   2.0000      -1.035538       -28.1784 
  10   2.0000      -0.934327       -25.4243 
  11   2.0000      -0.855622       -23.2827 
  12   2.0000      -0.811821       -22.0908 
  13   2.0000      -0.770558       -20.9680 
  14   2.0000      -0.644683       -17.5427 
  15   2.0000      -0.623086       -16.9550 
  16   2.0000      -0.617159       -16.7938 
  17   2.0000      -0.601498       -16.3676 
  18   2.0000      -0.578224       -15.7343 
  19   2.0000      -0.545751       -14.8506 
  20   2.0000      -0.519419       -14.1341 
  21   2.0000      -0.510838       -13.9006 
  22   2.0000      -0.506832       -13.7916 
  23   2.0000      -0.481607       -13.1052 
  24   2.0000      -0.472331       -12.8528 
  25   2.0000      -0.455767       -12.4020 
  26   2.0000      -0.443305       -12.0629 
  27   2.0000      -0.352688        -9.5971 
  28   0.0000       0.026344         0.7169 
  29   0.0000       0.030544         0.8312 
  30   0.0000       0.031122         0.8469 
  31   0.0000       0.032806         0.8927 
  32   0.0000       0.045589         1.2405 
  33   0.0000       0.047513         1.2929 
  34   0.0000       0.048741         1.3263 
  35   0.0000       0.049855         1.3566 
  36   0.0000       0.051847         1.4108 
  37   0.0000       0.068773         1.8714 
  38   0.0000       0.069228         1.8838 
  39   0.0000       0.070827         1.9273 
  40   0.0000       0.073018         1.9869 
  41   0.0000       0.095874         2.6089 
  42   0.0000       0.099368         2.7039 
  43   0.0000       0.103714         2.8222 
  44   0.0000       0.105070         2.8591 
  45   0.0000       0.108733         2.9588 
  46   0.0000       0.109457         2.9785 
  47   0.0000       0.115018         3.1298 
  48   0.0000       0.118680         3.2294 
  49   0.0000       0.123983         3.3737 
  50   0.0000       0.128059         3.4847 
  51   0.0000       0.128785         3.5044 
  52   0.0000       0.129434         3.5221 
  53   0.0000       0.134288         3.6542 
  54   0.0000       0.136393         3.7115 
  55   0.0000       0.141490         3.8501 
  56   0.0000       0.143563         3.9066 
  57   0.0000       0.145706         3.9649 
  58   0.0000       0.154127         4.1940 
  59   0.0000       0.156851         4.2681 
  60   0.0000       0.168441         4.5835 
  61   0.0000       0.172687         4.6991 
  62   0.0000       0.179409         4.8820 
  63   0.0000       0.190208         5.1758 
  64   0.0000       0.199072         5.4170 
  65   0.0000       0.207058         5.6343 
  66   0.0000       0.210542         5.7291 
  67   0.0000       0.220243         5.9931 
  68   0.0000       0.225553         6.1376 
  69   0.0000       0.233939         6.3658 
  70   0.0000       0.237349         6.4586 
  71   0.0000       0.245205         6.6724 
  72   0.0000       0.248176         6.7532 
  73   0.0000       0.253467         6.8972 
  74   0.0000       0.255499         6.9525 
  75   0.0000       0.260258         7.0820 
  76   0.0000       0.265366         7.2210 
  77   0.0000       0.272191         7.4067 
  78   0.0000       0.276050         7.5117 
  79   0.0000       0.278032         7.5656 
  80   0.0000       0.284983         7.7548 
  81   0.0000       0.292311         7.9542 
  82   0.0000       0.292980         7.9724 
  83   0.0000       0.297814         8.1039 
  84   0.0000       0.299577         8.1519 
  85   0.0000       0.301878         8.2145 
  86   0.0000       0.305161         8.3039 
  87   0.0000       0.307644         8.3714 
  88   0.0000       0.311186         8.4678 
  89   0.0000       0.314463         8.5570 
  90   0.0000       0.317074         8.6280 
  91   0.0000       0.320101         8.7104 
  92   0.0000       0.321493         8.7483 
  93   0.0000       0.322471         8.7749 
  94   0.0000       0.333180         9.0663 
  95   0.0000       0.340319         9.2606 
  96   0.0000       0.347396         9.4531 
  97   0.0000       0.350661         9.5420 
  98   0.0000       0.351500         9.5648 
  99   0.0000       0.357586         9.7304 
 100   0.0000       0.365249         9.9389 
 101   0.0000       0.367022         9.9872 
 102   0.0000       0.372293        10.1306 
 103   0.0000       0.374804        10.1989 
 104   0.0000       0.377527        10.2730 
 105   0.0000       0.381936        10.3930 
 106   0.0000       0.385627        10.4934 
 107   0.0000       0.388427        10.5696 
 108   0.0000       0.390632        10.6296 
 109   0.0000       0.399614        10.8741 
 110   0.0000       0.401661        10.9297 
 111   0.0000       0.407160        11.0794 
 112   0.0000       0.409576        11.1451 
 113   0.0000       0.410648        11.1743 
 114   0.0000       0.413178        11.2431 
 115   0.0000       0.420066        11.4306 
 116   0.0000       0.424780        11.5589 
 117   0.0000       0.431288        11.7359 
 118   0.0000       0.432430        11.7670 
 119   0.0000       0.434207        11.8154 
 120   0.0000       0.439136        11.9495 
 121   0.0000       0.443105        12.0575 
 122   0.0000       0.447419        12.1749 
 123   0.0000       0.449828        12.2404 
 124   0.0000       0.453711        12.3461 
 125   0.0000       0.456420        12.4198 
 126   0.0000       0.461783        12.5658 
 127   0.0000       0.463310        12.6073 
 128   0.0000       0.472360        12.8536 
 129   0.0000       0.473702        12.8901 
 130   0.0000       0.475392        12.9361 
 131   0.0000       0.481472        13.1015 
 132   0.0000       0.484288        13.1782 
 133   0.0000       0.488496        13.2926 
 134   0.0000       0.490836        13.3563 
 135   0.0000       0.495646        13.4872 
 136   0.0000       0.500522        13.6199 
 137   0.0000       0.503557        13.7025 
 138   0.0000       0.505999        13.7689 
 139   0.0000       0.509698        13.8696 
 140   0.0000       0.515737        14.0339 
 141   0.0000       0.519162        14.1271 
 142   0.0000       0.528200        14.3731 
 143   0.0000       0.531322        14.4580 
 144   0.0000       0.541028        14.7221 
 145   0.0000       0.541295        14.7294 
 146   0.0000       0.543752        14.7962 
 147   0.0000       0.554051        15.0765 
 148   0.0000       0.557081        15.1589 
 149   0.0000       0.559620        15.2280 
 150   0.0000       0.570000        15.5105 
 151   0.0000       0.573844        15.6151 
 152   0.0000       0.576766        15.6946 
 153   0.0000       0.583640        15.8817 
 154   0.0000       0.590193        16.0600 
 155   0.0000       0.592318        16.1178 
 156   0.0000       0.603332        16.4175 
 157   0.0000       0.606012        16.4904 
 158   0.0000       0.613993        16.7076 
 159   0.0000       0.624195        16.9852 
 160   0.0000       0.629455        17.1283 
 161   0.0000       0.637693        17.3525 
 162   0.0000       0.640551        17.4303 
 163   0.0000       0.644088        17.5265 
 164   0.0000       0.647119        17.6090 
 165   0.0000       0.655090        17.8259 
 166   0.0000       0.657679        17.8964 
 167   0.0000       0.663623        18.0581 
 168   0.0000       0.667341        18.1593 
 169   0.0000       0.676449        18.4071 
 170   0.0000       0.679534        18.4910 
 171   0.0000       0.685130        18.6433 
 172   0.0000       0.695154        18.9161 
 173   0.0000       0.697056        18.9679 
 174   0.0000       0.704320        19.1655 
 175   0.0000       0.708236        19.2721 
 176   0.0000       0.713988        19.4286 
 177   0.0000       0.717971        19.5370 
 178   0.0000       0.726905        19.7801 
 179   0.0000       0.729506        19.8509 
 180   0.0000       0.731442        19.9035 
 181   0.0000       0.735618        20.0172 
 182   0.0000       0.741820        20.1860 
 183   0.0000       0.748584        20.3700 
 184   0.0000       0.753921        20.5152 
 185   0.0000       0.756940        20.5974 
 186   0.0000       0.762540        20.7498 
 187   0.0000       0.769924        20.9507 
 188   0.0000       0.774232        21.0679 
 189   0.0000       0.782300        21.2875 
 190   0.0000       0.782993        21.3063 
 191   0.0000       0.788400        21.4535 
 192   0.0000       0.793870        21.6023 
 193   0.0000       0.796727        21.6800 
 194   0.0000       0.802164        21.8280 
 195   0.0000       0.810095        22.0438 
 196   0.0000       0.811424        22.0800 
 197   0.0000       0.818851        22.2821 
 198   0.0000       0.823007        22.3952 
 199   0.0000       0.827073        22.5058 
 200   0.0000       0.838438        22.8151 
 201   0.0000       0.844180        22.9713 
 202   0.0000       0.849292        23.1104 
 203   0.0000       0.853027        23.2120 
 204   0.0000       0.858602        23.3638 
 205   0.0000       0.858707        23.3666 
 206   0.0000       0.866670        23.5833 
 207   0.0000       0.877042        23.8655 
 208   0.0000       0.883600        24.0440 
 209   0.0000       0.888858        24.1871 
 210   0.0000       0.894049        24.3283 
 211   0.0000       0.899229        24.4693 
 212   0.0000       0.904457        24.6115 
 213   0.0000       0.908465        24.7206 
 214   0.0000       0.913106        24.8469 
 215   0.0000       0.914271        24.8786 
 216   0.0000       0.918469        24.9928 
 217   0.0000       0.921711        25.0810 
 218   0.0000       0.931772        25.3548 
 219   0.0000       0.935399        25.4535 
 220   0.0000       0.941421        25.6174 
 221   0.0000       0.942710        25.6524 
 222   0.0000       0.955718        26.0064 
 223   0.0000       0.962903        26.2019 
 224   0.0000       0.965056        26.2605 
 225   0.0000       0.973148        26.4807 
 226   0.0000       0.981384        26.7048 
 227   0.0000       0.984607        26.7925 
 228   0.0000       0.988954        26.9108 
 229   0.0000       0.995371        27.0854 
 230   0.0000       0.998261        27.1641 
 231   0.0000       1.001321        27.2473 
 232   0.0000       1.004502        27.3339 
 233   0.0000       1.013048        27.5664 
 234   0.0000       1.014035        27.5933 
 235   0.0000       1.021345        27.7922 
 236   0.0000       1.029430        28.0122 
 237   0.0000       1.034066        28.1384 
 238   0.0000       1.037181        28.2231 
 239   0.0000       1.046446        28.4752 
 240   0.0000       1.049142        28.5486 
 241   0.0000       1.051654        28.6170 
 242   0.0000       1.059720        28.8365 
 243   0.0000       1.062147        28.9025 
 244   0.0000       1.064757        28.9735 
 245   0.0000       1.077212        29.3124 
 246   0.0000       1.081635        29.4328 
 247   0.0000       1.092322        29.7236 
 248   0.0000       1.098939        29.9036 
 249   0.0000       1.101696        29.9787 
 250   0.0000       1.104112        30.0444 
 251   0.0000       1.106823        30.1182 
 252   0.0000       1.110995        30.2317 
 253   0.0000       1.118711        30.4417 
 254   0.0000       1.123394        30.5691 
 255   0.0000       1.132140        30.8071 
 256   0.0000       1.134546        30.8726 
 257   0.0000       1.136984        30.9389 
 258   0.0000       1.145768        31.1779 
 259   0.0000       1.149027        31.2666 
 260   0.0000       1.152588        31.3635 
 261   0.0000       1.158940        31.5364 
 262   0.0000       1.166652        31.7462 
 263   0.0000       1.168895        31.8073 
 264   0.0000       1.174804        31.9680 
 265   0.0000       1.183089        32.1935 
 266   0.0000       1.185463        32.2581 
 267   0.0000       1.194122        32.4937 
 268   0.0000       1.201388        32.6914 
 269   0.0000       1.206712        32.8363 
 270   0.0000       1.211282        32.9607 
 271   0.0000       1.214409        33.0457 
 272   0.0000       1.217773        33.1373 
 273   0.0000       1.222593        33.2684 
 274   0.0000       1.235146        33.6100 
[...]
[1715546169.644651] [nc30644:1302497:0]          mpool.c:42   UCX  WARN  object 0x12941580 was not returned to mpool ucp_requests
[1715546169.644653] [nc30644:1302497:0]          mpool.c:42   UCX  WARN  object 0x12941740 was not returned to mpool ucp_requests
[1715546169.644656] [nc30644:1302497:0]          mpool.c:42   UCX  WARN  object 0x12941900 was not returned to mpool ucp_requests
[1715546169.648569] [nc30644:1302498:0]          mpool.c:42   UCX  WARN  object 0x13271c00 was not returned to mpool ucp_requests
[1715546169.648581] [nc30644:1302498:0]          mpool.c:42   UCX  WARN  object 0x13272300 was not returned to mpool ucp_requests
[1715546169.648585] [nc30644:1302498:0]          mpool.c:42   UCX  WARN  object 0x132724c0 was not returned to mpool ucp_requests
[1715546169.648587] [nc30644:1302498:0]          mpool.c:42   UCX  WARN  object 0x13272680 was not returned to mpool ucp_requests
[1715546169.648590] [nc30644:1302498:0]          mpool.c:42   UCX  WARN  object 0x13272840 was not returned to mpool ucp_requests
[1715546169.648592] [nc30644:1302498:0]          mpool.c:42   UCX  WARN  object 0x13272a00 was not returned to mpool ucp_requests
[1715546169.648595] [nc30644:1302498:0]          mpool.c:42   UCX  WARN  object 0x13272bc0 was not returned to mpool ucp_requests
[1715546169.648597] [nc30644:1302498:0]          mpool.c:42   UCX  WARN  object 0x13272d80 was not returned to mpool ucp_requests
[1715546169.648599] [nc30644:1302498:0]          mpool.c:42   UCX  WARN  object 0x13273100 was not returned to mpool ucp_requests
[1715546169.651091] [nc30644:1302493:0]          mpool.c:42   UCX  WARN  object 0x13cd6600 was not returned to mpool ucp_requests
[1715546169.651102] [nc30644:1302493:0]          mpool.c:42   UCX  WARN  object 0x13cd67c0 was not returned to mpool ucp_requests
[1715546169.651108] [nc30644:1302493:0]          mpool.c:42   UCX  WARN  object 0x13cd6980 was not returned to mpool ucp_requests
[1715546169.651111] [nc30644:1302493:0]          mpool.c:42   UCX  WARN  object 0x13cd6b40 was not returned to mpool ucp_requests
[1715546169.651114] [nc30644:1302493:0]          mpool.c:42   UCX  WARN  object 0x13cd6d00 was not returned to mpool ucp_requests
[1715546169.651117] [nc30644:1302493:0]          mpool.c:42   UCX  WARN  object 0x13cd6ec0 was not returned to mpool ucp_requests
[1715546169.651120] [nc30644:1302493:0]          mpool.c:42   UCX  WARN  object 0x13cd7080 was not returned to mpool ucp_requests
[1715546169.651123] [nc30644:1302493:0]          mpool.c:42   UCX  WARN  object 0x13cd7240 was not returned to mpool ucp_requests
[1715546169.651126] [nc30644:1302493:0]          mpool.c:42   UCX  WARN  object 0x13cd7400 was not returned to mpool ucp_requests
[1715546169.651300] [nc30644:1302503:0]          mpool.c:42   UCX  WARN  object 0x12c782c0 was not returned to mpool ucp_requests
[1715546169.651321] [nc30644:1302503:0]          mpool.c:42   UCX  WARN  object 0x12c78800 was not returned to mpool ucp_requests
[1715546169.651327] [nc30644:1302503:0]          mpool.c:42   UCX  WARN  object 0x12c789c0 was not returned to mpool ucp_requests
[1715546169.651330] [nc30644:1302503:0]          mpool.c:42   UCX  WARN  object 0x12c78b80 was not returned to mpool ucp_requests
[1715546169.651335] [nc30644:1302503:0]          mpool.c:42   UCX  WARN  object 0x12c78d40 was not returned to mpool ucp_requests
[1715546169.651339] [nc30644:1302503:0]          mpool.c:42   UCX  WARN  object 0x12c78f00 was not returned to mpool ucp_requests
[1715546169.651343] [nc30644:1302503:0]          mpool.c:42   UCX  WARN  object 0x12c790c0 was not returned to mpool ucp_requests
[1715546169.651346] [nc30644:1302503:0]          mpool.c:42   UCX  WARN  object 0x12c79280 was not returned to mpool ucp_requests
[1715546169.651350] [nc30644:1302503:0]          mpool.c:42   UCX  WARN  object 0x12c79440 was not returned to mpool ucp_requests
[1715546169.651368] [nc30644:1302492:0]          mpool.c:42   UCX  WARN  object 0x134156c0 was not returned to mpool ucp_requests
[1715546169.651388] [nc30644:1302492:0]          mpool.c:42   UCX  WARN  object 0x13415880 was not returned to mpool ucp_requests
[1715546169.651394] [nc30644:1302492:0]          mpool.c:42   UCX  WARN  object 0x13415a40 was not returned to mpool ucp_requests
[1715546169.651397] [nc30644:1302492:0]          mpool.c:42   UCX  WARN  object 0x13415c00 was not returned to mpool ucp_requests
[1715546169.651401] [nc30644:1302492:0]          mpool.c:42   UCX  WARN  object 0x13415dc0 was not returned to mpool ucp_requests
[1715546169.651403] [nc30644:1302492:0]          mpool.c:42   UCX  WARN  object 0x13415f80 was not returned to mpool ucp_requests
[1715546169.651407] [nc30644:1302492:0]          mpool.c:42   UCX  WARN  object 0x13416140 was not returned to mpool ucp_requests
[1715546169.651409] [nc30644:1302492:0]          mpool.c:42   UCX  WARN  object 0x13416300 was not returned to mpool ucp_requests
[1715546169.651412] [nc30644:1302492:0]          mpool.c:42   UCX  WARN  object 0x134164c0 was not returned to mpool ucp_requests
[1715546169.651664] [nc30644:1302483:0]          mpool.c:42   UCX  WARN  object 0x143b5040 was not returned to mpool ucp_requests
[1715546169.651681] [nc30644:1302483:0]          mpool.c:42   UCX  WARN  object 0x143b5200 was not returned to mpool ucp_requests
[1715546169.651689] [nc30644:1302483:0]          mpool.c:42   UCX  WARN  object 0x143b53c0 was not returned to mpool ucp_requests
[1715546169.651693] [nc30644:1302483:0]          mpool.c:42   UCX  WARN  object 0x143b5580 was not returned to mpool ucp_requests
[1715546169.651696] [nc30644:1302483:0]          mpool.c:42   UCX  WARN  object 0x143b5740 was not returned to mpool ucp_requests
[1715546169.651699] [nc30644:1302483:0]          mpool.c:42   UCX  WARN  object 0x143b5900 was not returned to mpool ucp_requests
[1715546169.651702] [nc30644:1302483:0]          mpool.c:42   UCX  WARN  object 0x143b5ac0 was not returned to mpool ucp_requests
[1715546169.651705] [nc30644:1302483:0]          mpool.c:42   UCX  WARN  object 0x143b5c80 was not returned to mpool ucp_requests
[1715546169.651708] [nc30644:1302483:0]          mpool.c:42   UCX  WARN  object 0x143b5e40 was not returned to mpool ucp_requests
[1715546169.651712] [nc30644:1302483:0]          mpool.c:42   UCX  WARN  object 0x143b61c0 was not returned to mpool ucp_requests
[1715546169.651714] [nc30644:1302483:0]          mpool.c:42   UCX  WARN  object 0x143b6380 was not returned to mpool ucp_requests
[1715546169.652196] [nc30644:1302490:0]          mpool.c:42   UCX  WARN  object 0x1422c980 was not returned to mpool ucp_requests
[1715546169.652221] [nc30644:1302490:0]          mpool.c:42   UCX  WARN  object 0x1422cb40 was not returned to mpool ucp_requests
[1715546169.652226] [nc30644:1302490:0]          mpool.c:42   UCX  WARN  object 0x1422cd00 was not returned to mpool ucp_requests
[1715546169.652231] [nc30644:1302490:0]          mpool.c:42   UCX  WARN  object 0x1422cec0 was not returned to mpool ucp_requests
[1715546169.652234] [nc30644:1302490:0]          mpool.c:42   UCX  WARN  object 0x1422d080 was not returned to mpool ucp_requests
[1715546169.652238] [nc30644:1302490:0]          mpool.c:42   UCX  WARN  object 0x1422d240 was not returned to mpool ucp_requests
[1715546169.652241] [nc30644:1302490:0]          mpool.c:42   UCX  WARN  object 0x1422d400 was not returned to mpool ucp_requests
[1715546169.652246] [nc30644:1302490:0]          mpool.c:42   UCX  WARN  object 0x1422d5c0 was not returned to mpool ucp_requests
[1715546169.652251] [nc30644:1302490:0]          mpool.c:42   UCX  WARN  object 0x1422d780 was not returned to mpool ucp_requests
[1715546169.652540] [nc30644:1302484:0]          mpool.c:42   UCX  WARN  object 0x13d8a200 was not returned to mpool ucp_requests
[1715546169.652553] [nc30644:1302484:0]          mpool.c:42   UCX  WARN  object 0x13d8a740 was not returned to mpool ucp_requests
[1715546169.652557] [nc30644:1302484:0]          mpool.c:42   UCX  WARN  object 0x13d8a900 was not returned to mpool ucp_requests
[1715546169.652561] [nc30644:1302484:0]          mpool.c:42   UCX  WARN  object 0x13d8aac0 was not returned to mpool ucp_requests
[1715546169.652564] [nc30644:1302484:0]          mpool.c:42   UCX  WARN  object 0x13d8ac80 was not returned to mpool ucp_requests
[1715546169.652568] [nc30644:1302484:0]          mpool.c:42   UCX  WARN  object 0x13d8ae40 was not returned to mpool ucp_requests
[1715546169.652572] [nc30644:1302484:0]          mpool.c:42   UCX  WARN  object 0x13d8b000 was not returned to mpool ucp_requests
[1715546169.652575] [nc30644:1302484:0]          mpool.c:42   UCX  WARN  object 0x13d8b1c0 was not returned to mpool ucp_requests
[1715546169.652580] [nc30644:1302484:0]          mpool.c:42   UCX  WARN  object 0x13d8b380 was not returned to mpool ucp_requests
[1715546169.652583] [nc30644:1302484:0]          mpool.c:42   UCX  WARN  object 0x13d8b540 was not returned to mpool ucp_requests
[1715546169.652587] [nc30644:1302484:0]          mpool.c:42   UCX  WARN  object 0x13d8b8c0 was not returned to mpool ucp_requests
[1715546169.652671] [nc30644:1302494:0]          mpool.c:42   UCX  WARN  object 0x13cac2c0 was not returned to mpool ucp_requests
[1715546169.652684] [nc30644:1302494:0]          mpool.c:42   UCX  WARN  object 0x13cac480 was not returned to mpool ucp_requests
[1715546169.652690] [nc30644:1302494:0]          mpool.c:42   UCX  WARN  object 0x13cac640 was not returned to mpool ucp_requests
[1715546169.652694] [nc30644:1302494:0]          mpool.c:42   UCX  WARN  object 0x13cac800 was not returned to mpool ucp_requests
[1715546169.652699] [nc30644:1302494:0]          mpool.c:42   UCX  WARN  object 0x13cac9c0 was not returned to mpool ucp_requests
[1715546169.652703] [nc30644:1302494:0]          mpool.c:42   UCX  WARN  object 0x13cacb80 was not returned to mpool ucp_requests
[1715546169.652707] [nc30644:1302494:0]          mpool.c:42   UCX  WARN  object 0x13cacd40 was not returned to mpool ucp_requests
[1715546169.652711] [nc30644:1302494:0]          mpool.c:42   UCX  WARN  object 0x13cacf00 was not returned to mpool ucp_requests
[1715546169.652715] [nc30644:1302494:0]          mpool.c:42   UCX  WARN  object 0x13cad0c0 was not returned to mpool ucp_requests
[1715546169.652908] [nc30644:1302501:0]          mpool.c:42   UCX  WARN  object 0x14236040 was not returned to mpool ucp_requests
[1715546169.652928] [nc30644:1302501:0]          mpool.c:42   UCX  WARN  object 0x14236740 was not returned to mpool ucp_requests
[1715546169.652932] [nc30644:1302501:0]          mpool.c:42   UCX  WARN  object 0x14236900 was not returned to mpool ucp_requests
[1715546169.652934] [nc30644:1302501:0]          mpool.c:42   UCX  WARN  object 0x14236ac0 was not returned to mpool ucp_requests
[1715546169.652936] [nc30644:1302501:0]          mpool.c:42   UCX  WARN  object 0x14236c80 was not returned to mpool ucp_requests
[1715546169.652939] [nc30644:1302501:0]          mpool.c:42   UCX  WARN  object 0x14236e40 was not returned to mpool ucp_requests
[1715546169.652941] [nc30644:1302501:0]          mpool.c:42   UCX  WARN  object 0x14237000 was not returned to mpool ucp_requests
[1715546169.652944] [nc30644:1302501:0]          mpool.c:42   UCX  WARN  object 0x142371c0 was not returned to mpool ucp_requests
[1715546169.652946] [nc30644:1302501:0]          mpool.c:42   UCX  WARN  object 0x14237540 was not returned to mpool ucp_requests
[1715546169.653427] [nc30644:1302485:0]          mpool.c:42   UCX  WARN  object 0x132e2380 was not returned to mpool ucp_requests
[1715546169.653448] [nc30644:1302485:0]          mpool.c:42   UCX  WARN  object 0x132e2540 was not returned to mpool ucp_requests
[1715546169.653454] [nc30644:1302485:0]          mpool.c:42   UCX  WARN  object 0x132e2700 was not returned to mpool ucp_requests
[1715546169.653457] [nc30644:1302485:0]          mpool.c:42   UCX  WARN  object 0x132e28c0 was not returned to mpool ucp_requests
[1715546169.653461] [nc30644:1302485:0]          mpool.c:42   UCX  WARN  object 0x132e2a80 was not returned to mpool ucp_requests
[1715546169.653465] [nc30644:1302485:0]          mpool.c:42   UCX  WARN  object 0x132e2c40 was not returned to mpool ucp_requests
[1715546169.653469] [nc30644:1302485:0]          mpool.c:42   UCX  WARN  object 0x132e2e00 was not returned to mpool ucp_requests
[1715546169.653473] [nc30644:1302485:0]          mpool.c:42   UCX  WARN  object 0x132e2fc0 was not returned to mpool ucp_requests
[1715546169.653476] [nc30644:1302485:0]          mpool.c:42   UCX  WARN  object 0x132e3180 was not returned to mpool ucp_requests


           ************************************************************
           *        Program running with 16 parallel MPI-processes    *
           *              working on a common directory               *
           ************************************************************

------------------------------------------------------------------------------
                                ORCA  MP2 
------------------------------------------------------------------------------

Freezing NCore=14 chemical core electrons

-------------
RI-MP2 ENERGY
-------------
Dimension of the basis                    ... 1158
Memory devoted to MP2                     ...  256 MB   
Data format for buffers                   ... DOUBLE
Compression type for matrix containers    ... UNCOMPRESSED
Overall scaling of the MP2 energy         ...   1.000e+00
Calculating two index integrals           ... done (    0.042 sec)
Cholesky decomposition of V**-1           ... done (    0.711 sec)

-----------------
RI-TRANSFORMATION (AUX index driven)
-----------------

Dimension of the orbital-basis         ... 1158
Dimension of the aux-basis             ... 2216
Transformation of internal/external MOs...    7-  27 to   28-1157
Number Format for Storage              ... Double (8 Byte)
Integral mode                          ... Direct

First Phase: integral generation and transformation of MO indices
  Aux angular momentum 0               ... done (    0.286 sec)
  Aux angular momentum 1               ... done (    0.586 sec)
  Aux angular momentum 2               ... done (    0.869 sec)
  Aux angular momentum 3               ... done (    1.089 sec)
  Aux angular momentum 4               ... done (    0.975 sec)
  Aux angular momentum 5               ... done (    0.353 sec)
Closing buffer VIA ( 0.39 GB; CompressionRatio= 1.00)
  Phase 1 completed in     7.402 sec
Second Phase: sorting and transformation of aux index

IA-Transformation
Memory available                       ... 156 MB 
Max. # MO pairs treated in a batch     ... 2    
# of internal orbitals                 ... 21
# batches for internal orbitals        ... 1
Closing buffer IAV ( 0.39 GB; CompressionRatio= 1.00)
(ia|v) transformation done in     5.540 sec

  Phase 2 completed in     5.786 sec
RI-Integral transformation completed in    13.201 sec
Opening buffers                              ... done

Starting loop over batches of integrals:

Operator 0  - window                       ... (  7- 27)x( 28-1157)
Operator 0  - Memory available             ...   256 MB
Operator 0  - Memory needed per MO         ...  19.1 MB
Operator 0  - Number of orbitals per batch ... 2
Operator 0  - Number of batches            ... 1

OPERATOR  0   PASS   0:  MOs     7 ...    8 +    9 ...   10 +   11 ...   12 +   13 ...   14
                            +   15 ...   16 +   17 ...   18 +   19 ...   20 +   21 ...   22
                            +   23 ...   24 +   25 ...   26 +   27 ...   27
  Reading integrals       ... ok
Time spent in pair loops =     0.509 sec
Deleting buffer (Ka|jb)[aa] ...done

-----------------------------------------------
 RI-MP2 CORRELATION ENERGY:     -1.339489194 Eh
-----------------------------------------------


-------
TIMINGS
-------

Total time                :   28.202 sec
Integral trafo            :   13.217 sec ( 46.9%)
I/O of integrals          :    0.018 sec (  0.1%)
K(i,j) Operators          :    0.414 sec (  1.5%)
T(i,j) pair energies      :    0.041 sec (  0.1%)
V-calculation             :    0.042 sec (  0.2%)
V**(-1/2)                 :    0.711 sec (  2.5%)
Gamma(ia|P)               :    0.000 sec (  0.0%)
Gamma-Trafo               :    0.000 sec (  0.0%)
D(virtual)                :    0.000 sec (  0.0%)
D(internal)               :    0.000 sec (  0.0%)
W(virtual)                :    0.000 sec (  0.0%)
W(internal)               :    0.000 sec (  0.0%)
L(virtual)                :    0.000 sec (  0.0%)
L(internal)               :    0.000 sec (  0.0%)
G(D)                      :    0.000 sec (  0.0%)
G(Z)                      :    0.000 sec (  0.0%)
Z-Vector Solution         :    0.000 sec (  0.0%)
3-Index Derivative        :    0.000 sec (  0.0%)
2-Index Derivative        :    0.000 sec (  0.0%)
Separable Gradient        :    0.000 sec (  0.0%)


---------------------------------------
MP2 TOTAL ENERGY:     -290.685113410 Eh
---------------------------------------

Maximum memory used throughout the entire MP2-calculation: 289.2 MB

-------------------------   --------------------
FINAL SINGLE POINT ENERGY      -290.685113409765
-------------------------   --------------------


                            ***************************************
                            *     ORCA property calculations      *
                            ***************************************


  WARNING: The energy has been calculated at the MP2 level but the densities
           used in the property calculations are still SCF densities
           MP2 response densities have not been calculated 
           use %mp2 Density relaxed end
           or  %mp2 Density unrelaxed end

                                    ---------------------
                                    Active property flags
                                    ---------------------
   (+) Dipole Moment


------------------------------------------------------------------------------
                       ORCA ELECTRIC PROPERTIES CALCULATION
------------------------------------------------------------------------------

Dipole Moment Calculation                       ... on
Quadrupole Moment Calculation                   ... off
Polarizability Calculation                      ... off
GBWName                                         ... 2-methylpiperidine.gbw
Electron density                                ... 2-methylpiperidine.scfp
The origin for moment calculation is the CENTER OF MASS  = (-0.008899, -0.032704 -0.008445)

-------------
DIPOLE MOMENT
-------------
                                X             Y             Z
Electronic contribution:     -0.70448      -1.48085      -0.27061
Nuclear contribution   :      0.49833       1.83144       0.47292
                        -----------------------------------------
Total Dipole Moment    :     -0.20615       0.35059       0.20231
                        -----------------------------------------
Magnitude (a.u.)       :      0.45425
Magnitude (Debye)      :      1.15461



--------------------
Rotational spectrum 
--------------------
 
Rotational constants in cm-1:     0.143765     0.075234     0.054395 
Rotational constants in MHz :  4309.972493  2255.467789  1630.721755 

 Dipole components along the rotational axes: 
x,y,z [a.u.] :     0.211009     0.349037     0.199973 
x,y,z [Debye]:     0.536344     0.887182     0.508292 

 

Timings for individual modules:

Sum of individual times         ...     4242.456 sec (=  70.708 min)
GTO integral calculation        ...       23.238 sec (=   0.387 min)   0.5 %
SCF iterations                  ...     4185.397 sec (=  69.757 min)  98.7 %
MP2 module                      ...       33.821 sec (=   0.564 min)   0.8 %
                             ****ORCA TERMINATED NORMALLY****
TOTAL RUN TIME: 0 days 1 hours 11 minutes 8 seconds 238 msec
