
                                 *****************
                                 * O   R   C   A *
                                 *****************

                                            #,                                       
                                            ###                                      
                                            ####                                     
                                            #####                                    
                                            ######                                   
                                           ########,                                 
                                     ,,################,,,,,                         
                               ,,#################################,,                 
                          ,,##########################################,,             
                       ,#########################################, ''#####,          
                    ,#############################################,,   '####,        
                  ,##################################################,,,,####,       
                ,###########''''           ''''###############################       
              ,#####''   ,,,,##########,,,,          '''####'''          '####       
            ,##' ,,,,###########################,,,                        '##       
           ' ,,###''''                  '''############,,,                           
         ,,##''                                '''############,,,,        ,,,,,,###''
      ,#''                                            '''#######################'''  
     '                                                          ''''####''''         
             ,#######,   #######,   ,#######,      ##                                
            ,#'     '#,  ##    ##  ,#'     '#,    #''#        ######   ,####,        
            ##       ##  ##   ,#'  ##            #'  '#       #        #'  '#        
            ##       ##  #######   ##           ,######,      #####,   #    #        
            '#,     ,#'  ##    ##  '#,     ,#' ,#      #,         ##   #,  ,#        
             '#######'   ##     ##  '#######'  #'      '#     #####' # '####'        



                  #######################################################
                  #                        -***-                        #
                  #          Department of theory and spectroscopy      #
                  #    Directorship and core code : Frank Neese         #
                  #        Max Planck Institute fuer Kohlenforschung    #
                  #                Kaiser Wilhelm Platz 1               #
                  #                 D-45470 Muelheim/Ruhr               #
                  #                      Germany                        #
                  #                                                     #
                  #                  All rights reserved                #
                  #                        -***-                        #
                  #######################################################


                         Program Version 5.0.4 -  RELEASE  -


 With contributions from (in alphabetic order):
   Daniel Aravena         : Magnetic Suceptibility
   Michael Atanasov       : Ab Initio Ligand Field Theory (pilot matlab implementation)
   Alexander A. Auer      : GIAO ZORA, VPT2 properties, NMR spectrum
   Ute Becker             : Parallelization
   Giovanni Bistoni       : ED, misc. LED, open-shell LED, HFLD
   Martin Brehm           : Molecular dynamics
   Dmytro Bykov           : SCF Hessian
   Vijay G. Chilkuri      : MRCI spin determinant printing, contributions to CSF-ICE
   Dipayan Datta          : RHF DLPNO-CCSD density
   Achintya Kumar Dutta   : EOM-CC, STEOM-CC
   Dmitry Ganyushin       : Spin-Orbit,Spin-Spin,Magnetic field MRCI
   Miquel Garcia          : C-PCM and meta-GGA Hessian, CC/C-PCM, Gaussian charge scheme
   Yang Guo               : DLPNO-NEVPT2, F12-NEVPT2, CIM, IAO-localization
   Andreas Hansen         : Spin unrestricted coupled pair/coupled cluster methods
   Benjamin Helmich-Paris : MC-RPA, TRAH-SCF, COSX integrals
   Lee Huntington         : MR-EOM, pCC
   Robert Izsak           : Overlap fitted RIJCOSX, COSX-SCS-MP3, EOM
   Marcus Kettner         : VPT2
   Christian Kollmar      : KDIIS, OOCD, Brueckner-CCSD(T), CCSD density, CASPT2, CASPT2-K
   Simone Kossmann        : Meta GGA functionals, TD-DFT gradient, OOMP2, MP2 Hessian
   Martin Krupicka        : Initial AUTO-CI
   Lucas Lang             : DCDCAS
   Marvin Lechner         : AUTO-CI (C++ implementation), FIC-MRCC
   Dagmar Lenk            : GEPOL surface, SMD
   Dimitrios Liakos       : Extrapolation schemes; Compound Job, initial MDCI parallelization
   Dimitrios Manganas     : Further ROCIS development; embedding schemes
   Dimitrios Pantazis     : SARC Basis sets
   Anastasios Papadopoulos: AUTO-CI, single reference methods and gradients
   Taras Petrenko         : DFT Hessian,TD-DFT gradient, ASA, ECA, R-Raman, ABS, FL, XAS/XES, NRVS
   Peter Pinski           : DLPNO-MP2, DLPNO-MP2 Gradient
   Christoph Reimann      : Effective Core Potentials
   Marius Retegan         : Local ZFS, SOC
   Christoph Riplinger    : Optimizer, TS searches, QM/MM, DLPNO-CCSD(T), (RO)-DLPNO pert. Triples
   Tobias Risthaus        : Range-separated hybrids, TD-DFT gradient, RPA, STAB
   Michael Roemelt        : Original ROCIS implementation
   Masaaki Saitow         : Open-shell DLPNO-CCSD energy and density
   Barbara Sandhoefer     : DKH picture change effects
   Avijit Sen             : IP-ROCIS
   Kantharuban Sivalingam : CASSCF convergence, NEVPT2, FIC-MRCI
   Bernardo de Souza      : ESD, SOC TD-DFT
   Georgi Stoychev        : AutoAux, RI-MP2 NMR, DLPNO-MP2 response
   Willem Van den Heuvel  : Paramagnetic NMR
   Boris Wezisla          : Elementary symmetry handling
   Frank Wennmohs         : Technical directorship


 We gratefully acknowledge several colleagues who have allowed us to
 interface, adapt or use parts of their codes:
   Stefan Grimme, W. Hujo, H. Kruse, P. Pracht,  : VdW corrections, initial TS optimization,
                  C. Bannwarth, S. Ehlert          DFT functionals, gCP, sTDA/sTD-DF
   Ed Valeev, F. Pavosevic, A. Kumar             : LibInt (2-el integral package), F12 methods
   Garnet Chan, S. Sharma, J. Yang, R. Olivares  : DMRG
   Ulf Ekstrom                                   : XCFun DFT Library
   Mihaly Kallay                                 : mrcc  (arbitrary order and MRCC methods)
   Jiri Pittner, Ondrej Demel                    : Mk-CCSD
   Frank Weinhold                                : gennbo (NPA and NBO analysis)
   Christopher J. Cramer and Donald G. Truhlar   : smd solvation model
   Lars Goerigk                                  : TD-DFT with DH, B97 family of functionals
   V. Asgeirsson, H. Jonsson                     : NEB implementation
   FAccTs GmbH                                   : IRC, NEB, NEB-TS, DLPNO-Multilevel, CI-OPT
                                                   MM, QMMM, 2- and 3-layer-ONIOM, Crystal-QMMM,
                                                   LR-CPCM, SF, NACMEs, symmetry and pop. for TD-DFT,
                                                   nearIR, NL-DFT gradient (VV10), updates on ESD,
                                                   ML-optimized integration grids
   S Lehtola, MJT Oliveira, MAL Marques          : LibXC Library
   Liviu Ungur et al                             : ANISO software


 Your calculation uses the libint2 library for the computation of 2-el integrals
 For citations please refer to: http://libint.valeyev.net

 Your ORCA version has been built with support for libXC version: 5.1.0
 For citations please refer to: https://tddft.org/programs/libxc/

 This ORCA versions uses:
   CBLAS   interface :  Fast vector & matrix operations
   LAPACKE interface :  Fast linear algebra routines
   SCALAPACK package :  Parallel linear algebra routines
   Shared memory     :  Shared parallel matrices
   BLAS/LAPACK       :  OpenBLAS 0.3.15  USE64BITINT DYNAMIC_ARCH NO_AFFINITY Zen SINGLE_THREADED
        Core in use  :  Zen
   Copyright (c) 2011-2014, The OpenBLAS Project


================================================================================

----- Orbital basis set information -----
Your calculation utilizes the basis: aug-cc-pVQZ 
    H, B-Ne : Obtained from the ccRepo (grant-hill.group.shef.ac.uk/ccrepo) Feb. 2017
              R. A. Kendall, T. H. Dunning, Jr., R. J. Harrison, J. Chem. Phys. 96, 6796 (1992)
         He : Obtained from the ccRepo (grant-hill.group.shef.ac.uk/ccrepo) Feb. 2017
              D. E. Woon, T. H. Dunning, Jr., J. Chem. Phys. 100, 2975 (1994)
  Li-Be, Na : Obtained from the ccRepo (grant-hill.group.shef.ac.uk/ccrepo) Feb. 2017
              B. P. Prascher, D. E. Woon, K. A. Peterson, T. H. Dunning, Jr., A. K. Wilson, Theor. Chem. Acc. 128, 69 (2011)
         Mg : Obtained from the Peterson Research Group Website (tyr0.chem.wsu.edu/~kipeters) Feb. 2017
              B. P. Prascher, D. E. Woon, K. A. Peterson, T. H. Dunning, Jr., A. K. Wilson, Theor. Chem. Acc. 128, 69 (2011)
      Al-Ar : Obtained from the ccRepo (grant-hill.group.shef.ac.uk/ccrepo) Feb. 2017
              D. E. Woon, T. H. Dunning, Jr., J. Chem. Phys. 98, 1358 (1993)
      Sc-Zn : Obtained from the ccRepo (grant-hill.group.shef.ac.uk/ccrepo) Feb. 2017
              N. B. Balabanov, K. A. Peterson, J. Chem. Phys. 123, 064107 (2005)
              N. B. Balabanov, K. A. Peterson, J. Chem. Phys. 125, 074110 (2006)
      Ga-Kr : Obtained from the ccRepo (grant-hill.group.shef.ac.uk/ccrepo) Feb. 2017
              A. K. Wilson, D. E. Woon, K. A. Peterson, T. H. Dunning, Jr., J. Chem. Phys. 110, 7667 (1999)

----- AuxC basis set information -----
Your calculation utilizes the auxiliary basis: aug-cc-pVQZ/C 
  H-He, B-F, Al-Ar, Ga-Kr : Obtained from the EMSL Basis Set Exchange (bse.pnl.gov) Feb. 2017
                            F. Weigend, A. Kohn, C. Hattig, J. Chem. Phys. 116, 3175 (2002)
                   Be, Mg : Obtained from the TURBOMOLE 7.0 basis set library
                            C. Haettig, Phys. Chem. Chem. Phys. 7, 59 (2005)
                       Ne : Obtained from the EMSL Basis Set Exchange (bse.pnl.gov) Feb. 2017
                            C. Haettig, Phys. Chem. Chem. Phys. 7, 59 (2005)
                            F. Weigend, A. Kohn, C. Hattig, J. Chem. Phys. 116, 3175 (2002)
                    Sc-Zn : Obtained from the EMSL Basis Set Exchange (bse.pnl.gov) Feb. 2017
                            D. H. Bross, J. G. Hill, H. J. Werner, K. A. Peterson, J. Chem. Phys. 139, 094302 (2013)

================================================================================
                                        WARNINGS
                       Please study these warnings very carefully!
================================================================================


WARNING: No MP2 level density has been requested!
         To caclulate MP2 level properties use
         %mp2 Density relaxed end
         or
         %mp2 Density unrelaxed end

WARNING: Post HF methods need fully converged wavefunctions
  ===> : Setting SCFConvForced true
         You can overwrite this default with %scf ConvForced false 


INFO   : the flag for use of the SHARK integral package has been found!

================================================================================
                                       INPUT FILE
================================================================================
NAME = 2-chloroallylisothiocyanate.inp
|  1> !ri-mp2 aug-cc-pvqz aug-cc-pvqz/c tightscf
|  2> %pal nprocs 16 end
|  3> 
|  4> * xyz 0 1
|  5> Cl    -1.347415    1.412561    0.204092
|  6> S      2.973465    0.301056   -0.225140
|  7> N      0.624438   -1.122322    0.123077
|  8> C     -1.679642   -0.291748   -0.037658
|  9> C     -0.706921   -1.216488    0.644751
| 10> C      1.609055   -0.467672   -0.001390
| 11> C     -2.720952   -0.690146   -0.750013
| 12> H     -0.681309   -1.001003    1.716381
| 13> H     -1.057855   -2.239216    0.515322
| 14> H     -2.900921   -1.746442   -0.895230
| 15> H     -3.409606    0.008805   -1.199480
| 16> *
| 17> 
| 18>                          ****END OF INPUT****
================================================================================

                       ****************************
                       * Single Point Calculation *
                       ****************************

---------------------------------
CARTESIAN COORDINATES (ANGSTROEM)
---------------------------------
  Cl    -1.347415    1.412561    0.204092
  S      2.973465    0.301056   -0.225140
  N      0.624438   -1.122322    0.123077
  C     -1.679642   -0.291748   -0.037658
  C     -0.706921   -1.216488    0.644751
  C      1.609055   -0.467672   -0.001390
  C     -2.720952   -0.690146   -0.750013
  H     -0.681309   -1.001003    1.716381
  H     -1.057855   -2.239216    0.515322
  H     -2.900921   -1.746442   -0.895230
  H     -3.409606    0.008805   -1.199480

----------------------------
CARTESIAN COORDINATES (A.U.)
----------------------------
  NO LB      ZA    FRAG     MASS         X           Y           Z
   0 Cl   17.0000    0    35.453   -2.546245    2.669353    0.385678
   1 S    16.0000    0    32.060    5.619035    0.568913   -0.425453
   2 N     7.0000    0    14.007    1.180017   -2.120881    0.232582
   3 C     6.0000    0    12.011   -3.174063   -0.551324   -0.071163
   4 C     6.0000    0    12.011   -1.335887   -2.298829    1.218403
   5 C     6.0000    0    12.011    3.040673   -0.883772   -0.002627
   6 C     6.0000    0    12.011   -5.141854   -1.304187   -1.417319
   7 H     1.0000    0     1.008   -1.287487   -1.891622    3.243490
   8 H     1.0000    0     1.008   -1.999056   -4.231505    0.973817
   9 H     1.0000    0     1.008   -5.481946   -3.300297   -1.691740
  10 H     1.0000    0     1.008   -6.443222    0.016639   -2.266689

--------------------------------
INTERNAL COORDINATES (ANGSTROEM)
--------------------------------
 Cl     0   0   0     0.000000000000     0.00000000     0.00000000
 S      1   0   0     4.482152100191     0.00000000     0.00000000
 N      2   1   0     2.768607566395    45.37408317     0.00000000
 C      1   2   3     1.753136335118    85.89424316   347.67906731
 C      3   2   1     1.433013532634   150.20784470   329.46276001
 C      3   2   1     1.188919380479     2.68116221   333.76997102
 C      4   1   2     1.323063539113   121.07265016   218.40817164
 H      5   3   2     1.093380362303   108.78903714   306.14465461
 H      5   3   2     1.088980762172   108.53268038   188.85826283
 H      7   4   1     1.081313117310   119.83148043   179.34161031
 H      7   4   1     1.079257808036   122.10111240   359.33659515

---------------------------
INTERNAL COORDINATES (A.U.)
---------------------------
 Cl     0   0   0     0.000000000000     0.00000000     0.00000000
 S      1   0   0     8.470039959941     0.00000000     0.00000000
 N      2   1   0     5.231910072790    45.37408317     0.00000000
 C      1   2   3     3.312947548799    85.89424316   347.67906731
 C      3   2   1     2.708003122882   150.20784470   329.46276001
 C      3   2   1     2.246732024416     2.68116221   333.76997102
 C      4   1   2     2.500227746699   121.07265016   218.40817164
 H      5   3   2     2.066189444960   108.78903714   306.14465461
 H      5   3   2     2.057875405614   108.53268038   188.85826283
 H      7   4   1     2.043385656732   119.83148043   179.34161031
 H      7   4   1     2.039501685084   122.10111240   359.33659515

---------------------
BASIS SET INFORMATION
---------------------
There are 5 groups of distinct atoms

 Group   1 Type Cl  : 43s20p4d3f2g contracted to 7s6p4d3f2g pattern {1313131111/881111/1111/111/11}
 Group   2 Type S   : 43s20p4d3f2g contracted to 7s6p4d3f2g pattern {1313131111/881111/1111/111/11}
 Group   3 Type N   : 22s7p4d3f2g contracted to 6s5p4d3f2g pattern {991111/31111/1111/111/11}
 Group   4 Type C   : 22s7p4d3f2g contracted to 6s5p4d3f2g pattern {991111/31111/1111/111/11}
 Group   5 Type H   : 7s4p3d2f contracted to 5s4p3d2f pattern {31111/1111/111/11}

Atom   0Cl   basis set group =>   1
Atom   1S    basis set group =>   2
Atom   2N    basis set group =>   3
Atom   3C    basis set group =>   4
Atom   4C    basis set group =>   4
Atom   5C    basis set group =>   4
Atom   6C    basis set group =>   4
Atom   7H    basis set group =>   5
Atom   8H    basis set group =>   5
Atom   9H    basis set group =>   5
Atom  10H    basis set group =>   5
---------------------------------
AUXILIARY/C BASIS SET INFORMATION
---------------------------------
There are 5 groups of distinct atoms

 Group   1 Type Cl  : 12s10p9d7f4g2h contracted to 12s10p9d7f4g2h pattern {111111111111/1111111111/111111111/1111111/1111/11}
 Group   2 Type S   : 12s10p9d7f4g2h contracted to 12s10p9d7f4g2h pattern {111111111111/1111111111/111111111/1111111/1111/11}
 Group   3 Type N   : 9s8p7d6f4g2h contracted to 9s8p7d6f4g2h pattern {111111111/11111111/1111111/111111/1111/11}
 Group   4 Type C   : 9s8p7d6f4g2h contracted to 9s8p7d6f4g2h pattern {111111111/11111111/1111111/111111/1111/11}
 Group   5 Type H   : 6s5p4d3f2g contracted to 6s5p4d3f2g pattern {111111/11111/1111/111/11}

Atom   0Cl   basis set group =>   1
Atom   1S    basis set group =>   2
Atom   2N    basis set group =>   3
Atom   3C    basis set group =>   4
Atom   4C    basis set group =>   4
Atom   5C    basis set group =>   4
Atom   6C    basis set group =>   4
Atom   7H    basis set group =>   5
Atom   8H    basis set group =>   5
Atom   9H    basis set group =>   5
Atom  10H    basis set group =>   5


           ************************************************************
           *        Program running with 16 parallel MPI-processes    *
           *              working on a common directory               *
           ************************************************************
------------------------------------------------------------------------------
                           ORCA GTO INTEGRAL CALCULATION
------------------------------------------------------------------------------
------------------------------------------------------------------------------
                   ___                                                        
                  /   \      - P O W E R E D   B Y -                         
                 /     \                                                     
                 |  |  |   _    _      __       _____    __    __             
                 |  |  |  | |  | |    /  \     |  _  \  |  |  /  |          
                  \  \/   | |  | |   /    \    | | | |  |  | /  /          
                 / \  \   | |__| |  /  /\  \   | |_| |  |  |/  /          
                |  |  |   |  __  | /  /__\  \  |    /   |      \           
                |  |  |   | |  | | |   __   |  |    \   |  |\   \          
                \     /   | |  | | |  |  |  |  | |\  \  |  | \   \       
                 \___/    |_|  |_| |__|  |__|  |_| \__\ |__|  \__/        
                                                                              
                      - O R C A' S   B I G   F R I E N D -                    
                                      &                                       
                       - I N T E G R A L  F E E D E R -                       
                                                                              
 v1 FN, 2020, v2 2021                                                         
------------------------------------------------------------------------------


Reading SHARK input file 2-chloroallylisothiocyanate.SHARKINP.tmp ... ok
----------------------
SHARK INTEGRAL PACKAGE
----------------------

Number of atoms                             ...     11
Number of basis functions                   ...    843
Number of shells                            ...    267
Maximum angular momentum                    ...      4
Integral batch strategy                     ... SHARK/LIBINT Hybrid
RI-J (if used) integral strategy            ... SPLIT-RIJ (Revised 2003 algorithm where possible)
Printlevel                                  ...      1
Contraction scheme used                     ... PARTIAL GENERAL contraction
Coulomb Range Separation                    ... NOT USED
Exchange Range Separation                   ... NOT USED
Finite Nucleus Model                        ... NOT USED
Auxiliary Coulomb fitting basis             ... NOT available
Auxiliary J/K fitting basis                 ... NOT available
Auxiliary Correlation fitting basis         ... AVAILABLE
   # of basis functions in Aux-C            ...   1548
   # of shells in Aux-C                     ...    348
   Maximum angular momentum in Aux-C        ...      5
Auxiliary 'external' fitting basis          ... NOT available
Integral threshold                          ...     2.500000e-11
Primitive cut-off                           ...     2.500000e-12
Primitive pair pre-selection threshold      ...     2.500000e-12

Calculating pre-screening integrals         ... done (  0.1 sec) Dimension = 267
Calculating pre-screening integrals (ORCA)  ... done (  0.3 sec) Dimension = 200
Organizing shell pair data                  ... done (  1.1 sec)
Shell pair information
Total number of shell pairs                 ...     35778
Shell pairs after pre-screening             ...     28152
Total number of primitive shell pairs       ...     40782
Primitive shell pairs kept                  ...     30891
          la=0 lb=0:   4406 shell pairs
          la=1 lb=0:   5730 shell pairs
          la=1 lb=1:   1788 shell pairs
          la=2 lb=0:   3894 shell pairs
          la=2 lb=1:   2278 shell pairs
          la=2 lb=2:    777 shell pairs
          la=3 lb=0:   2839 shell pairs
          la=3 lb=1:   1657 shell pairs
          la=3 lb=2:   1101 shell pairs
          la=3 lb=3:    417 shell pairs
          la=4 lb=0:   1410 shell pairs
          la=4 lb=1:    817 shell pairs
          la=4 lb=2:    539 shell pairs
          la=4 lb=3:    395 shell pairs
          la=4 lb=4:    104 shell pairs

Calculating one electron integrals          ... done (  0.0 sec)
Calculating RI/C V-Matrix + Cholesky decomp.... done (  0.2 sec)
Calculating Nuclear repulsion               ... done (  0.0 sec) ENN=    374.670586359776 Eh

SHARK setup successfully completed in   3.2 seconds

Maximum memory used throughout the entire GTOINT-calculation: 82.2 MB
[1715539973.384419] [nc30541:2380230:0]          mpool.c:42   UCX  WARN  object 0xb993280 was not returned to mpool ucp_requests
[1715539973.384442] [nc30541:2380230:0]          mpool.c:42   UCX  WARN  object 0xb993440 was not returned to mpool ucp_requests
[1715539973.384447] [nc30541:2380230:0]          mpool.c:42   UCX  WARN  object 0xb993600 was not returned to mpool ucp_requests
[1715539973.384449] [nc30541:2380230:0]          mpool.c:42   UCX  WARN  object 0xb9937c0 was not returned to mpool ucp_requests
[1715539973.384453] [nc30541:2380230:0]          mpool.c:42   UCX  WARN  object 0xb993980 was not returned to mpool ucp_requests
[1715539973.384456] [nc30541:2380230:0]          mpool.c:42   UCX  WARN  object 0xb993b40 was not returned to mpool ucp_requests
[1715539973.384458] [nc30541:2380230:0]          mpool.c:42   UCX  WARN  object 0xb993d00 was not returned to mpool ucp_requests
[1715539973.384462] [nc30541:2380230:0]          mpool.c:42   UCX  WARN  object 0xb993ec0 was not returned to mpool ucp_requests
[1715539973.384465] [nc30541:2380230:0]          mpool.c:42   UCX  WARN  object 0xb994080 was not returned to mpool ucp_requests
[1715539973.384470] [nc30541:2380230:0]          mpool.c:42   UCX  WARN  object 0xb994240 was not returned to mpool ucp_requests
[1715539973.384473] [nc30541:2380230:0]          mpool.c:42   UCX  WARN  object 0xb994400 was not returned to mpool ucp_requests
[1715539973.384478] [nc30541:2380230:0]          mpool.c:42   UCX  WARN  object 0xb9945c0 was not returned to mpool ucp_requests
[1715539973.384494] [nc30541:2380229:0]          mpool.c:42   UCX  WARN  object 0xbbf03c0 was not returned to mpool ucp_requests
[1715539973.384517] [nc30541:2380229:0]          mpool.c:42   UCX  WARN  object 0xbbf0580 was not returned to mpool ucp_requests
[1715539973.384522] [nc30541:2380229:0]          mpool.c:42   UCX  WARN  object 0xbbf0740 was not returned to mpool ucp_requests
[1715539973.384526] [nc30541:2380229:0]          mpool.c:42   UCX  WARN  object 0xbbf0900 was not returned to mpool ucp_requests
[1715539973.384529] [nc30541:2380229:0]          mpool.c:42   UCX  WARN  object 0xbbf0ac0 was not returned to mpool ucp_requests
[1715539973.384533] [nc30541:2380229:0]          mpool.c:42   UCX  WARN  object 0xbbf0c80 was not returned to mpool ucp_requests
[1715539973.384537] [nc30541:2380229:0]          mpool.c:42   UCX  WARN  object 0xbbf0e40 was not returned to mpool ucp_requests
[1715539973.384540] [nc30541:2380229:0]          mpool.c:42   UCX  WARN  object 0xbbf1000 was not returned to mpool ucp_requests
[1715539973.384544] [nc30541:2380229:0]          mpool.c:42   UCX  WARN  object 0xbbf11c0 was not returned to mpool ucp_requests
[1715539973.384549] [nc30541:2380229:0]          mpool.c:42   UCX  WARN  object 0xbbf1380 was not returned to mpool ucp_requests
[1715539973.384554] [nc30541:2380229:0]          mpool.c:42   UCX  WARN  object 0xbbf1540 was not returned to mpool ucp_requests
[1715539973.384558] [nc30541:2380229:0]          mpool.c:42   UCX  WARN  object 0xbbf1700 was not returned to mpool ucp_requests
[1715539973.385104] [nc30541:2380238:0]          mpool.c:42   UCX  WARN  object 0xb7bd8c0 was not returned to mpool ucp_requests
[1715539973.385127] [nc30541:2380238:0]          mpool.c:42   UCX  WARN  object 0xb7bda80 was not returned to mpool ucp_requests
[1715539973.385133] [nc30541:2380238:0]          mpool.c:42   UCX  WARN  object 0xb7bdc40 was not returned to mpool ucp_requests
[1715539973.385138] [nc30541:2380238:0]          mpool.c:42   UCX  WARN  object 0xb7bde00 was not returned to mpool ucp_requests
[1715539973.385110] [nc30541:2380240:0]          mpool.c:42   UCX  WARN  object 0xa979140 was not returned to mpool ucp_requests
[1715539973.385132] [nc30541:2380240:0]          mpool.c:42   UCX  WARN  object 0xa979300 was not returned to mpool ucp_requests
[1715539973.385137] [nc30541:2380240:0]          mpool.c:42   UCX  WARN  object 0xa9794c0 was not returned to mpool ucp_requests
[1715539973.385140] [nc30541:2380240:0]          mpool.c:42   UCX  WARN  object 0xa979680 was not returned to mpool ucp_requests
[1715539973.385144] [nc30541:2380240:0]          mpool.c:42   UCX  WARN  object 0xa979840 was not returned to mpool ucp_requests
[1715539973.385142] [nc30541:2380238:0]          mpool.c:42   UCX  WARN  object 0xb7bdfc0 was not returned to mpool ucp_requests
[1715539973.385146] [nc30541:2380238:0]          mpool.c:42   UCX  WARN  object 0xb7be180 was not returned to mpool ucp_requests
[1715539973.385150] [nc30541:2380238:0]          mpool.c:42   UCX  WARN  object 0xb7be340 was not returned to mpool ucp_requests
[1715539973.385154] [nc30541:2380238:0]          mpool.c:42   UCX  WARN  object 0xb7be500 was not returned to mpool ucp_requests
[1715539973.385147] [nc30541:2380240:0]          mpool.c:42   UCX  WARN  object 0xa979a00 was not returned to mpool ucp_requests
[1715539973.385150] [nc30541:2380240:0]          mpool.c:42   UCX  WARN  object 0xa979bc0 was not returned to mpool ucp_requests
[1715539973.385153] [nc30541:2380240:0]          mpool.c:42   UCX  WARN  object 0xa979d80 was not returned to mpool ucp_requests
[1715539973.385157] [nc30541:2380240:0]          mpool.c:42   UCX  WARN  object 0xa979f40 was not returned to mpool ucp_requests
[1715539973.385158] [nc30541:2380238:0]          mpool.c:42   UCX  WARN  object 0xb7be6c0 was not returned to mpool ucp_requests
[1715539973.385163] [nc30541:2380238:0]          mpool.c:42   UCX  WARN  object 0xb7be880 was not returned to mpool ucp_requests
[1715539973.385167] [nc30541:2380238:0]          mpool.c:42   UCX  WARN  object 0xb7bea40 was not returned to mpool ucp_requests
[1715539973.385161] [nc30541:2380240:0]          mpool.c:42   UCX  WARN  object 0xa97a100 was not returned to mpool ucp_requests
[1715539973.385164] [nc30541:2380240:0]          mpool.c:42   UCX  WARN  object 0xa97a2c0 was not returned to mpool ucp_requests
[1715539973.385167] [nc30541:2380240:0]          mpool.c:42   UCX  WARN  object 0xa97a480 was not returned to mpool ucp_requests
[1715539973.385171] [nc30541:2380238:0]          mpool.c:42   UCX  WARN  object 0xb7bec00 was not returned to mpool ucp_requests
[1715539973.385377] [nc30541:2380245:0]          mpool.c:42   UCX  WARN  object 0xae18700 was not returned to mpool ucp_requests
[1715539973.385389] [nc30541:2380245:0]          mpool.c:42   UCX  WARN  object 0xae188c0 was not returned to mpool ucp_requests
[1715539973.385393] [nc30541:2380245:0]          mpool.c:42   UCX  WARN  object 0xae18a80 was not returned to mpool ucp_requests
[1715539973.385396] [nc30541:2380245:0]          mpool.c:42   UCX  WARN  object 0xae18c40 was not returned to mpool ucp_requests
[1715539973.385399] [nc30541:2380245:0]          mpool.c:42   UCX  WARN  object 0xae18e00 was not returned to mpool ucp_requests
[1715539973.385402] [nc30541:2380245:0]          mpool.c:42   UCX  WARN  object 0xae18fc0 was not returned to mpool ucp_requests
[1715539973.385405] [nc30541:2380245:0]          mpool.c:42   UCX  WARN  object 0xae19180 was not returned to mpool ucp_requests
[1715539973.385408] [nc30541:2380245:0]          mpool.c:42   UCX  WARN  object 0xae19340 was not returned to mpool ucp_requests
[1715539973.385411] [nc30541:2380245:0]          mpool.c:42   UCX  WARN  object 0xae19500 was not returned to mpool ucp_requests
[1715539973.385414] [nc30541:2380245:0]          mpool.c:42   UCX  WARN  object 0xae196c0 was not returned to mpool ucp_requests
[1715539973.385417] [nc30541:2380245:0]          mpool.c:42   UCX  WARN  object 0xae19880 was not returned to mpool ucp_requests
[1715539973.385420] [nc30541:2380245:0]          mpool.c:42   UCX  WARN  object 0xae19a40 was not returned to mpool ucp_requests
[1715539973.385409] [nc30541:2380232:0]          mpool.c:42   UCX  WARN  object 0xb4a3580 was not returned to mpool ucp_requests
[1715539973.385421] [nc30541:2380232:0]          mpool.c:42   UCX  WARN  object 0xb4a3740 was not returned to mpool ucp_requests
[1715539973.385426] [nc30541:2380232:0]          mpool.c:42   UCX  WARN  object 0xb4a3900 was not returned to mpool ucp_requests
[1715539973.385431] [nc30541:2380232:0]          mpool.c:42   UCX  WARN  object 0xb4a3ac0 was not returned to mpool ucp_requests
[1715539973.385436] [nc30541:2380232:0]          mpool.c:42   UCX  WARN  object 0xb4a3c80 was not returned to mpool ucp_requests
[1715539973.385440] [nc30541:2380232:0]          mpool.c:42   UCX  WARN  object 0xb4a3e40 was not returned to mpool ucp_requests
[1715539973.385445] [nc30541:2380232:0]          mpool.c:42   UCX  WARN  object 0xb4a4000 was not returned to mpool ucp_requests
[1715539973.385450] [nc30541:2380232:0]          mpool.c:42   UCX  WARN  object 0xb4a41c0 was not returned to mpool ucp_requests
[1715539973.385454] [nc30541:2380232:0]          mpool.c:42   UCX  WARN  object 0xb4a4380 was not returned to mpool ucp_requests
[1715539973.385458] [nc30541:2380232:0]          mpool.c:42   UCX  WARN  object 0xb4a4540 was not returned to mpool ucp_requests
[1715539973.385462] [nc30541:2380232:0]          mpool.c:42   UCX  WARN  object 0xb4a4700 was not returned to mpool ucp_requests
[1715539973.385466] [nc30541:2380232:0]          mpool.c:42   UCX  WARN  object 0xb4a48c0 was not returned to mpool ucp_requests
[1715539973.385566] [nc30541:2380236:0]          mpool.c:42   UCX  WARN  object 0xbc22c80 was not returned to mpool ucp_requests
[1715539973.385589] [nc30541:2380236:0]          mpool.c:42   UCX  WARN  object 0xbc22e40 was not returned to mpool ucp_requests
[1715539973.385595] [nc30541:2380236:0]          mpool.c:42   UCX  WARN  object 0xbc23000 was not returned to mpool ucp_requests
[1715539973.385599] [nc30541:2380236:0]          mpool.c:42   UCX  WARN  object 0xbc231c0 was not returned to mpool ucp_requests
[1715539973.385602] [nc30541:2380236:0]          mpool.c:42   UCX  WARN  object 0xbc23380 was not returned to mpool ucp_requests
[1715539973.385606] [nc30541:2380236:0]          mpool.c:42   UCX  WARN  object 0xbc23540 was not returned to mpool ucp_requests
[1715539973.385610] [nc30541:2380236:0]          mpool.c:42   UCX  WARN  object 0xbc23700 was not returned to mpool ucp_requests
[1715539973.385614] [nc30541:2380236:0]          mpool.c:42   UCX  WARN  object 0xbc238c0 was not returned to mpool ucp_requests
[1715539973.385618] [nc30541:2380236:0]          mpool.c:42   UCX  WARN  object 0xbc23a80 was not returned to mpool ucp_requests
[1715539973.385622] [nc30541:2380236:0]          mpool.c:42   UCX  WARN  object 0xbc23c40 was not returned to mpool ucp_requests
[1715539973.385628] [nc30541:2380236:0]          mpool.c:42   UCX  WARN  object 0xbc23e00 was not returned to mpool ucp_requests
[1715539973.385632] [nc30541:2380236:0]          mpool.c:42   UCX  WARN  object 0xbc23fc0 was not returned to mpool ucp_requests
[1715539973.385748] [nc30541:2380233:0]          mpool.c:42   UCX  WARN  object 0xb55e780 was not returned to mpool ucp_requests
[1715539973.385772] [nc30541:2380233:0]          mpool.c:42   UCX  WARN  object 0xb55e940 was not returned to mpool ucp_requests
[1715539973.385777] [nc30541:2380233:0]          mpool.c:42   UCX  WARN  object 0xb55eb00 was not returned to mpool ucp_requests
[1715539973.385781] [nc30541:2380233:0]          mpool.c:42   UCX  WARN  object 0xb55ecc0 was not returned to mpool ucp_requests
[1715539973.385786] [nc30541:2380233:0]          mpool.c:42   UCX  WARN  object 0xb55ee80 was not returned to mpool ucp_requests
[1715539973.385790] [nc30541:2380233:0]          mpool.c:42   UCX  WARN  object 0xb55f040 was not returned to mpool ucp_requests
[1715539973.385793] [nc30541:2380233:0]          mpool.c:42   UCX  WARN  object 0xb55f200 was not returned to mpool ucp_requests
[1715539973.385797] [nc30541:2380233:0]          mpool.c:42   UCX  WARN  object 0xb55f3c0 was not returned to mpool ucp_requests
[1715539973.385800] [nc30541:2380233:0]          mpool.c:42   UCX  WARN  object 0xb55f580 was not returned to mpool ucp_requests
[1715539973.385805] [nc30541:2380233:0]          mpool.c:42   UCX  WARN  object 0xb55f740 was not returned to mpool ucp_requests
[1715539973.385809] [nc30541:2380233:0]          mpool.c:42   UCX  WARN  object 0xb55f900 was not returned to mpool ucp_requests
[1715539973.385812] [nc30541:2380233:0]          mpool.c:42   UCX  WARN  object 0xb55fac0 was not returned to mpool ucp_requests
[1715539973.386086] [nc30541:2380234:0]          mpool.c:42   UCX  WARN  object 0xb89f1c0 was not returned to mpool ucp_requests
[1715539973.386108] [nc30541:2380234:0]          mpool.c:42   UCX  WARN  object 0xb89f380 was not returned to mpool ucp_requests
[1715539973.386114] [nc30541:2380234:0]          mpool.c:42   UCX  WARN  object 0xb89f540 was not returned to mpool ucp_requests
[1715539973.386117] [nc30541:2380234:0]          mpool.c:42   UCX  WARN  object 0xb89f700 was not returned to mpool ucp_requests
[1715539973.386121] [nc30541:2380234:0]          mpool.c:42   UCX  WARN  object 0xb89f8c0 was not returned to mpool ucp_requests
[1715539973.386125] [nc30541:2380234:0]          mpool.c:42   UCX  WARN  object 0xb89fa80 was not returned to mpool ucp_requests
[1715539973.386129] [nc30541:2380234:0]          mpool.c:42   UCX  WARN  object 0xb89fc40 was not returned to mpool ucp_requests
[1715539973.386133] [nc30541:2380234:0]          mpool.c:42   UCX  WARN  object 0xb89fe00 was not returned to mpool ucp_requests
[1715539973.386139] [nc30541:2380234:0]          mpool.c:42   UCX  WARN  object 0xb89ffc0 was not returned to mpool ucp_requests
[1715539973.386142] [nc30541:2380234:0]          mpool.c:42   UCX  WARN  object 0xb8a0180 was not returned to mpool ucp_requests
[1715539973.386146] [nc30541:2380234:0]          mpool.c:42   UCX  WARN  object 0xb8a0340 was not returned to mpool ucp_requests
[1715539973.386150] [nc30541:2380234:0]          mpool.c:42   UCX  WARN  object 0xb8a0500 was not returned to mpool ucp_requests
[1715539973.386134] [nc30541:2380241:0]          mpool.c:42   UCX  WARN  object 0xb459580 was not returned to mpool ucp_requests
[1715539973.386146] [nc30541:2380241:0]          mpool.c:42   UCX  WARN  object 0xb459740 was not returned to mpool ucp_requests
[1715539973.386150] [nc30541:2380241:0]          mpool.c:42   UCX  WARN  object 0xb459900 was not returned to mpool ucp_requests
[1715539973.386153] [nc30541:2380241:0]          mpool.c:42   UCX  WARN  object 0xb459ac0 was not returned to mpool ucp_requests
[1715539973.386155] [nc30541:2380241:0]          mpool.c:42   UCX  WARN  object 0xb459c80 was not returned to mpool ucp_requests
[1715539973.386158] [nc30541:2380241:0]          mpool.c:42   UCX  WARN  object 0xb459e40 was not returned to mpool ucp_requests
[1715539973.386160] [nc30541:2380241:0]          mpool.c:42   UCX  WARN  object 0xb45a000 was not returned to mpool ucp_requests
[1715539973.386163] [nc30541:2380241:0]          mpool.c:42   UCX  WARN  object 0xb45a1c0 was not returned to mpool ucp_requests
[1715539973.386165] [nc30541:2380241:0]          mpool.c:42   UCX  WARN  object 0xb45a380 was not returned to mpool ucp_requests
[1715539973.386167] [nc30541:2380241:0]          mpool.c:42   UCX  WARN  object 0xb45a540 was not returned to mpool ucp_requests
[1715539973.386170] [nc30541:2380241:0]          mpool.c:42   UCX  WARN  object 0xb45a700 was not returned to mpool ucp_requests
[1715539973.386172] [nc30541:2380241:0]          mpool.c:42   UCX  WARN  object 0xb45a8c0 was not returned to mpool ucp_requests
[1715539973.386384] [nc30541:2380235:0]          mpool.c:42   UCX  WARN  object 0xbde1900 was not returned to mpool ucp_requests
[1715539973.386406] [nc30541:2380235:0]          mpool.c:42   UCX  WARN  object 0xbde1ac0 was not returned to mpool ucp_requests
[1715539973.386412] [nc30541:2380235:0]          mpool.c:42   UCX  WARN  object 0xbde1c80 was not returned to mpool ucp_requests
[1715539973.386416] [nc30541:2380235:0]          mpool.c:42   UCX  WARN  object 0xbde1e40 was not returned to mpool ucp_requests
[1715539973.386419] [nc30541:2380235:0]          mpool.c:42   UCX  WARN  object 0xbde2000 was not returned to mpool ucp_requests
[1715539973.386424] [nc30541:2380235:0]          mpool.c:42   UCX  WARN  object 0xbde21c0 was not returned to mpool ucp_requests
[1715539973.386428] [nc30541:2380235:0]          mpool.c:42   UCX  WARN  object 0xbde2380 was not returned to mpool ucp_requests
[1715539973.386435] [nc30541:2380235:0]          mpool.c:42   UCX  WARN  object 0xbde2540 was not returned to mpool ucp_requests
[1715539973.386440] [nc30541:2380235:0]          mpool.c:42   UCX  WARN  object 0xbde2700 was not returned to mpool ucp_requests
[1715539973.386444] [nc30541:2380235:0]          mpool.c:42   UCX  WARN  object 0xbde28c0 was not returned to mpool ucp_requests
[1715539973.386448] [nc30541:2380235:0]          mpool.c:42   UCX  WARN  object 0xbde2a80 was not returned to mpool ucp_requests
[1715539973.386452] [nc30541:2380235:0]          mpool.c:42   UCX  WARN  object 0xbde2c40 was not returned to mpool ucp_requests
[1715539973.386546] [nc30541:2380231:0]          mpool.c:42   UCX  WARN  object 0xaee2f80 was not returned to mpool ucp_requests
[1715539973.386568] [nc30541:2380231:0]          mpool.c:42   UCX  WARN  object 0xaee3140 was not returned to mpool ucp_requests
[1715539973.386574] [nc30541:2380231:0]          mpool.c:42   UCX  WARN  object 0xaee3300 was not returned to mpool ucp_requests
[1715539973.386578] [nc30541:2380231:0]          mpool.c:42   UCX  WARN  object 0xaee34c0 was not returned to mpool ucp_requests
[1715539973.386581] [nc30541:2380231:0]          mpool.c:42   UCX  WARN  object 0xaee3680 was not returned to mpool ucp_requests
[1715539973.386585] [nc30541:2380231:0]          mpool.c:42   UCX  WARN  object 0xaee3840 was not returned to mpool ucp_requests
[1715539973.386589] [nc30541:2380231:0]          mpool.c:42   UCX  WARN  object 0xaee3a00 was not returned to mpool ucp_requests
[1715539973.386594] [nc30541:2380231:0]          mpool.c:42   UCX  WARN  object 0xaee3bc0 was not returned to mpool ucp_requests
[1715539973.386598] [nc30541:2380231:0]          mpool.c:42   UCX  WARN  object 0xaee3d80 was not returned to mpool ucp_requests
[1715539973.386602] [nc30541:2380231:0]          mpool.c:42   UCX  WARN  object 0xaee3f40 was not returned to mpool ucp_requests
[1715539973.386607] [nc30541:2380231:0]          mpool.c:42   UCX  WARN  object 0xaee4100 was not returned to mpool ucp_requests
[1715539973.386611] [nc30541:2380231:0]          mpool.c:42   UCX  WARN  object 0xaee42c0 was not returned to mpool ucp_requests
[1715539973.386751] [nc30541:2380239:0]          mpool.c:42   UCX  WARN  object 0xb20d740 was not returned to mpool ucp_requests
[1715539973.386770] [nc30541:2380239:0]          mpool.c:42   UCX  WARN  object 0xb20d900 was not returned to mpool ucp_requests
[1715539973.386775] [nc30541:2380239:0]          mpool.c:42   UCX  WARN  object 0xb20dac0 was not returned to mpool ucp_requests
[1715539973.386779] [nc30541:2380239:0]          mpool.c:42   UCX  WARN  object 0xb20dc80 was not returned to mpool ucp_requests
[1715539973.386782] [nc30541:2380239:0]          mpool.c:42   UCX  WARN  object 0xb20de40 was not returned to mpool ucp_requests
[1715539973.386786] [nc30541:2380239:0]          mpool.c:42   UCX  WARN  object 0xb20e000 was not returned to mpool ucp_requests
[1715539973.386790] [nc30541:2380239:0]          mpool.c:42   UCX  WARN  object 0xb20e1c0 was not returned to mpool ucp_requests
[1715539973.386793] [nc30541:2380239:0]          mpool.c:42   UCX  WARN  object 0xb20e380 was not returned to mpool ucp_requests
[1715539973.386797] [nc30541:2380239:0]          mpool.c:42   UCX  WARN  object 0xb20e540 was not returned to mpool ucp_requests
[1715539973.386800] [nc30541:2380239:0]          mpool.c:42   UCX  WARN  object 0xb20e700 was not returned to mpool ucp_requests
[1715539973.386804] [nc30541:2380239:0]          mpool.c:42   UCX  WARN  object 0xb20e8c0 was not returned to mpool ucp_requests
[1715539973.386808] [nc30541:2380239:0]          mpool.c:42   UCX  WARN  object 0xb20ea80 was not returned to mpool ucp_requests
[1715539973.386710] [nc30541:2380247:0]          mpool.c:42   UCX  WARN  object 0xba7fac0 was not returned to mpool ucp_requests
[1715539973.386733] [nc30541:2380247:0]          mpool.c:42   UCX  WARN  object 0xba7fc80 was not returned to mpool ucp_requests
[1715539973.386736] [nc30541:2380247:0]          mpool.c:42   UCX  WARN  object 0xba7fe40 was not returned to mpool ucp_requests
[1715539973.386739] [nc30541:2380247:0]          mpool.c:42   UCX  WARN  object 0xba80000 was not returned to mpool ucp_requests
[1715539973.386742] [nc30541:2380247:0]          mpool.c:42   UCX  WARN  object 0xba801c0 was not returned to mpool ucp_requests
[1715539973.386744] [nc30541:2380247:0]          mpool.c:42   UCX  WARN  object 0xba80380 was not returned to mpool ucp_requests
[1715539973.386747] [nc30541:2380247:0]          mpool.c:42   UCX  WARN  object 0xba80540 was not returned to mpool ucp_requests
[1715539973.386749] [nc30541:2380247:0]          mpool.c:42   UCX  WARN  object 0xba80700 was not returned to mpool ucp_requests
[1715539973.386754] [nc30541:2380247:0]          mpool.c:42   UCX  WARN  object 0xba808c0 was not returned to mpool ucp_requests
[1715539973.386756] [nc30541:2380247:0]          mpool.c:42   UCX  WARN  object 0xba80a80 was not returned to mpool ucp_requests
[1715539973.386761] [nc30541:2380247:0]          mpool.c:42   UCX  WARN  object 0xba80c40 was not returned to mpool ucp_requests
[1715539973.386763] [nc30541:2380247:0]          mpool.c:42   UCX  WARN  object 0xba80e00 was not returned to mpool ucp_requests
[1715539973.387201] [nc30541:2380237:0]          mpool.c:42   UCX  WARN  object 0xb30b140 was not returned to mpool ucp_requests
[1715539973.387215] [nc30541:2380237:0]          mpool.c:42   UCX  WARN  object 0xb30b300 was not returned to mpool ucp_requests
[1715539973.387221] [nc30541:2380237:0]          mpool.c:42   UCX  WARN  object 0xb30b4c0 was not returned to mpool ucp_requests
[1715539973.387227] [nc30541:2380237:0]          mpool.c:42   UCX  WARN  object 0xb30b680 was not returned to mpool ucp_requests
[1715539973.387231] [nc30541:2380237:0]          mpool.c:42   UCX  WARN  object 0xb30b840 was not returned to mpool ucp_requests
[1715539973.387236] [nc30541:2380237:0]          mpool.c:42   UCX  WARN  object 0xb30ba00 was not returned to mpool ucp_requests
[1715539973.387241] [nc30541:2380237:0]          mpool.c:42   UCX  WARN  object 0xb30bbc0 was not returned to mpool ucp_requests
[1715539973.387245] [nc30541:2380237:0]          mpool.c:42   UCX  WARN  object 0xb30bd80 was not returned to mpool ucp_requests
[1715539973.387250] [nc30541:2380237:0]          mpool.c:42   UCX  WARN  object 0xb30bf40 was not returned to mpool ucp_requests
[1715539973.387254] [nc30541:2380237:0]          mpool.c:42   UCX  WARN  object 0xb30c100 was not returned to mpool ucp_requests
[1715539973.387259] [nc30541:2380237:0]          mpool.c:42   UCX  WARN  object 0xb30c2c0 was not returned to mpool ucp_requests
[1715539973.387263] [nc30541:2380237:0]          mpool.c:42   UCX  WARN  object 0xb30c480 was not returned to mpool ucp_requests


           ************************************************************
           *        Program running with 16 parallel MPI-processes    *
           *              working on a common directory               *
           ************************************************************
-------------------------------------------------------------------------------
                                 ORCA SCF
-------------------------------------------------------------------------------

------------
SCF SETTINGS
------------
Hamiltonian:
 Ab initio Hamiltonian  Method          .... Hartree-Fock(GTOs)


General Settings:
 Integral files         IntName         .... 2-chloroallylisothiocyanate
 Hartree-Fock type      HFTyp           .... RHF
 Total Charge           Charge          ....    0
 Multiplicity           Mult            ....    1
 Number of Electrons    NEL             ....   68
 Basis Dimension        Dim             ....  752
 Nuclear Repulsion      ENuc            ....    374.6705863598 Eh

Convergence Acceleration:
 DIIS                   CNVDIIS         .... on
   Start iteration      DIISMaxIt       ....    12
   Startup error        DIISStart       ....  0.200000
   # of expansion vecs  DIISMaxEq       ....     5
   Bias factor          DIISBfac        ....   1.050
   Max. coefficient     DIISMaxC        ....  10.000
 Trust-Rad. Augm. Hess. CNVTRAH         .... auto
   Auto Start mean grad. ratio tolernc. ....  1.125000
   Auto Start start iteration           ....    20
   Auto Start num. interpolation iter.  ....    10
   Max. Number of Micro iterations      ....    16
   Max. Number of Macro iterations      .... Maxiter - #DIIS iter
   Number of Davidson start vectors     ....     2
   Converg. threshold I  (grad. norm)   ....   1.000e-05
   Converg. threshold II (energy diff.) ....   1.000e-08
   Grad. Scal. Fac. for Micro threshold ....   0.100
   Minimum threshold for Micro iter.    ....   0.010
   NR start threshold (gradient norm)   ....   0.001
   Initial trust radius                 ....   0.400
   Minimum AH scaling param. (alpha)    ....   1.000
   Maximum AH scaling param. (alpha)    .... 1000.000
   Orbital update algorithm             .... Taylor
   White noise on init. David. guess    .... on
   Maximum white noise                  ....   0.010
   Quad. conv. algorithm                .... NR
 SOSCF                  CNVSOSCF        .... on
   Start iteration      SOSCFMaxIt      ....   150
   Startup grad/error   SOSCFStart      ....  0.003300
 Level Shifting         CNVShift        .... on
   Level shift para.    LevelShift      ....    0.2500
   Turn off err/grad.   ShiftErr        ....    0.0010
 Zerner damping         CNVZerner       .... off
 Static damping         CNVDamp         .... on
   Fraction old density DampFac         ....    0.7000
   Max. Damping (<1)    DampMax         ....    0.9800
   Min. Damping (>=0)   DampMin         ....    0.0000
   Turn off err/grad.   DampErr         ....    0.1000
 Fernandez-Rico         CNVRico         .... off

SCF Procedure:
 Maximum # iterations   MaxIter         ....   125
 SCF integral mode      SCFMode         .... Direct
   Integral package                     .... SHARK and LIBINT hybrid scheme
 Reset frequency        DirectResetFreq ....    20
 Integral Threshold     Thresh          ....  2.500e-11 Eh
 Primitive CutOff       TCut            ....  2.500e-12 Eh

Convergence Tolerance:
 Convergence Check Mode ConvCheckMode   .... Total+1el-Energy
 Convergence forced     ConvForced      .... 1
 Energy Change          TolE            ....  1.000e-08 Eh
 1-El. energy change                    ....  1.000e-05 Eh
 Orbital Gradient       TolG            ....  1.000e-05
 Orbital Rotation angle TolX            ....  1.000e-05
 DIIS Error             TolErr          ....  5.000e-07


Diagonalization of the overlap matrix:
Smallest eigenvalue                        ... 1.797e-06
Time for diagonalization                   ...    0.110 sec
Threshold for overlap eigenvalues          ... 1.000e-08
Number of eigenvalues below threshold      ... 0
Time for construction of square roots      ...    0.074 sec
Total time needed                          ...    0.186 sec

Time for model grid setup =    0.281 sec

------------------------------
INITIAL GUESS: MODEL POTENTIAL
------------------------------
Loading Hartree-Fock densities                     ... done
Calculating cut-offs                               ... done
Initializing the effective Hamiltonian             ... done
Setting up the integral package (SHARK)            ... done
Starting the Coulomb interaction                   ... done (   0.2 sec)
Reading the grid                                   ... done
Mapping shells                                     ... done
Starting the XC term evaluation                    ... done (   0.1 sec)
Transforming the Hamiltonian                       ... done (   0.1 sec)
Diagonalizing the Hamiltonian                      ... done (   0.1 sec)
Back transforming the eigenvectors                 ... done (   0.0 sec)
Now organizing SCF variables                       ... done
                      ------------------
                      INITIAL GUESS DONE (   0.8 sec)
                      ------------------
--------------
SCF ITERATIONS
--------------
ITER       Energy         Delta-E        Max-DP      RMS-DP      [F,P]     Damp
               ***  Starting incremental Fock matrix formation  ***
  0  -1065.0833528372   0.000000000000 0.09762740  0.00062357  0.2792551 0.7000
  1  -1065.1812997697  -0.097946932555 0.06748180  0.00046578  0.1730556 0.7000
                               ***Turning on DIIS***
  2  -1065.2407728799  -0.059473110235 0.04629928  0.00033310  0.1023033 0.7000
  3  -1065.8183856291  -0.577612749174 0.10668546  0.00081937  0.0636410 0.0000
  4  -1065.3459405780   0.472445051076 0.00624335  0.00007861  0.0094179 0.0000
  5  -1065.3717037757  -0.025763197658 0.00388911  0.00003910  0.0046556 0.0000
                      *** Initiating the SOSCF procedure ***
                           *** Shutting down DIIS ***
                      *** Re-Reading the Fockian *** 
                      *** Removing any level shift *** 
ITER      Energy       Delta-E        Grad      Rot      Max-DP    RMS-DP
  6  -1065.36212957   0.0095742011  0.000969  0.000969  0.002588  0.000019
               *** Restarting incremental Fock matrix formation ***
  7  -1065.37022918  -0.0080996102  0.000388  0.000681  0.001716  0.000010
  8  -1065.37025010  -0.0000209124  0.000295  0.001193  0.002371  0.000013
  9  -1065.37025778  -0.0000076846  0.000114  0.000223  0.000250  0.000003
 10  -1065.37025891  -0.0000011242  0.000041  0.000065  0.000144  0.000001
 11  -1065.37025900  -0.0000000918  0.000017  0.000067  0.000043  0.000001
 12  -1065.37025904  -0.0000000374  0.000009  0.000033  0.000021  0.000000
 13  -1065.37025904  -0.0000000070  0.000004  0.000014  0.000035  0.000000
                  ***Gradient check signals convergence***
              ***Rediagonalizing the Fockian in SOSCF/NRSCF***

               *****************************************************
               *                     SUCCESS                       *
               *           SCF CONVERGED AFTER  14 CYCLES          *
               *****************************************************


----------------
TOTAL SCF ENERGY
----------------

Total Energy       :        -1065.37025904 Eh          -28990.19858 eV

Components:
Nuclear Repulsion  :          374.67058636 Eh           10195.30497 eV
Electronic Energy  :        -1440.04084540 Eh          -39185.50356 eV
One Electron Energy:        -2210.80630551 Eh          -60159.09800 eV
Two Electron Energy:          770.76546012 Eh           20973.59445 eV

Virial components:
Potential Energy   :        -2130.45009646 Eh          -57972.49439 eV
Kinetic Energy     :         1065.07983742 Eh           28982.29581 eV
Virial Ratio       :            2.00027268


---------------
SCF CONVERGENCE
---------------

  Last Energy change         ...    3.8665e-09  Tolerance :   1.0000e-08
  Last MAX-Density change    ...    3.6749e-05  Tolerance :   1.0000e-07
  Last RMS-Density change    ...    3.3314e-07  Tolerance :   5.0000e-09
  Last Orbital Gradient      ...    1.0617e-06  Tolerance :   1.0000e-05
  Last Orbital Rotation      ...    4.0130e-06  Tolerance :   1.0000e-05

             **** THE GBW FILE WAS UPDATED (2-chloroallylisothiocyanate.gbw) ****
             **** DENSITY 2-chloroallylisothiocyanate.scfp WAS UPDATED ****
             **** ENERGY FILE WAS UPDATED (2-chloroallylisothiocyanate.en.tmp) ****
             **** THE GBW FILE WAS UPDATED (2-chloroallylisothiocyanate.gbw) ****
             **** DENSITY 2-chloroallylisothiocyanate.scfp WAS UPDATED ****
----------------
ORBITAL ENERGIES
----------------

  NO   OCC          E(Eh)            E(eV) 
   0   2.0000    -104.851554     -2853.1558 
   1   2.0000     -91.945060     -2501.9523 
   2   2.0000     -15.608746      -424.7356 
   3   2.0000     -11.375771      -309.5505 
   4   2.0000     -11.327009      -308.2236 
   5   2.0000     -11.325761      -308.1896 
   6   2.0000     -11.262094      -306.4572 
   7   2.0000     -10.576906      -287.8122 
   8   2.0000      -8.949221      -243.5207 
   9   2.0000      -8.043994      -218.8882 
  10   2.0000      -8.042252      -218.8408 
  11   2.0000      -8.042216      -218.8398 
  12   2.0000      -6.631078      -180.4408 
  13   2.0000      -6.628721      -180.3767 
  14   2.0000      -6.628540      -180.3717 
  15   2.0000      -1.301434       -35.4138 
  16   2.0000      -1.180315       -32.1180 
  17   2.0000      -1.072718       -29.1901 
  18   2.0000      -1.032533       -28.0967 
  19   2.0000      -0.987442       -26.8697 
  20   2.0000      -0.800081       -21.7713 
  21   2.0000      -0.732802       -19.9406 
  22   2.0000      -0.687459       -18.7067 
  23   2.0000      -0.670960       -18.2577 
  24   2.0000      -0.616306       -16.7705 
  25   2.0000      -0.596049       -16.2193 
  26   2.0000      -0.569797       -15.5050 
  27   2.0000      -0.535042       -14.5592 
  28   2.0000      -0.524497       -14.2723 
  29   2.0000      -0.510112       -13.8809 
  30   2.0000      -0.468728       -12.7547 
  31   2.0000      -0.391629       -10.6568 
  32   2.0000      -0.363562        -9.8930 
  33   2.0000      -0.357283        -9.7222 
  34   0.0000       0.019665         0.5351 
  35   0.0000       0.029169         0.7937 
  36   0.0000       0.035066         0.9542 
  37   0.0000       0.046582         1.2676 
  38   0.0000       0.051755         1.4083 
  39   0.0000       0.059841         1.6284 
  40   0.0000       0.064576         1.7572 
  41   0.0000       0.070739         1.9249 
  42   0.0000       0.076852         2.0912 
  43   0.0000       0.087774         2.3884 
  44   0.0000       0.090032         2.4499 
  45   0.0000       0.096669         2.6305 
  46   0.0000       0.098599         2.6830 
  47   0.0000       0.102132         2.7792 
  48   0.0000       0.106033         2.8853 
  49   0.0000       0.111008         3.0207 
  50   0.0000       0.114041         3.1032 
  51   0.0000       0.116038         3.1576 
  52   0.0000       0.121066         3.2944 
  53   0.0000       0.128262         3.4902 
  54   0.0000       0.133277         3.6266 
  55   0.0000       0.140009         3.8098 
  56   0.0000       0.144592         3.9345 
  57   0.0000       0.147232         4.0064 
  58   0.0000       0.151323         4.1177 
  59   0.0000       0.155696         4.2367 
  60   0.0000       0.162023         4.4089 
  61   0.0000       0.172725         4.7001 
  62   0.0000       0.180337         4.9072 
  63   0.0000       0.186045         5.0626 
  64   0.0000       0.192675         5.2429 
  65   0.0000       0.195250         5.3130 
  66   0.0000       0.204638         5.5685 
  67   0.0000       0.208142         5.6638 
  68   0.0000       0.211678         5.7601 
  69   0.0000       0.223659         6.0861 
  70   0.0000       0.232750         6.3335 
  71   0.0000       0.241972         6.5844 
  72   0.0000       0.245631         6.6840 
  73   0.0000       0.249964         6.8019 
  74   0.0000       0.257229         6.9996 
  75   0.0000       0.265113         7.2141 
  76   0.0000       0.268109         7.2956 
  77   0.0000       0.274401         7.4668 
  78   0.0000       0.279263         7.5991 
  79   0.0000       0.280165         7.6237 
  80   0.0000       0.285816         7.7774 
  81   0.0000       0.291532         7.9330 
  82   0.0000       0.295838         8.0502 
  83   0.0000       0.301554         8.2057 
  84   0.0000       0.302535         8.2324 
  85   0.0000       0.310496         8.4490 
  86   0.0000       0.313434         8.5290 
  87   0.0000       0.316979         8.6254 
  88   0.0000       0.325543         8.8585 
  89   0.0000       0.331425         9.0185 
  90   0.0000       0.334228         9.0948 
  91   0.0000       0.335794         9.1374 
  92   0.0000       0.337050         9.1716 
  93   0.0000       0.343617         9.3503 
  94   0.0000       0.354686         9.6515 
  95   0.0000       0.360449         9.8083 
  96   0.0000       0.365223         9.9382 
  97   0.0000       0.370791        10.0897 
  98   0.0000       0.377213        10.2645 
  99   0.0000       0.383129        10.4255 
 100   0.0000       0.386829        10.5261 
 101   0.0000       0.396293        10.7837 
 102   0.0000       0.402081        10.9412 
 103   0.0000       0.410059        11.1583 
 104   0.0000       0.416679        11.3384 
 105   0.0000       0.419422        11.4131 
 106   0.0000       0.428945        11.6722 
 107   0.0000       0.430735        11.7209 
 108   0.0000       0.435154        11.8411 
 109   0.0000       0.446863        12.1598 
 110   0.0000       0.449417        12.2293 
 111   0.0000       0.452400        12.3104 
 112   0.0000       0.455490        12.3945 
 113   0.0000       0.458293        12.4708 
 114   0.0000       0.467998        12.7349 
 115   0.0000       0.483973        13.1696 
 116   0.0000       0.488182        13.2841 
 117   0.0000       0.494765        13.4632 
 118   0.0000       0.501042        13.6340 
 119   0.0000       0.512537        13.9468 
 120   0.0000       0.515127        14.0173 
 121   0.0000       0.523264        14.2387 
 122   0.0000       0.536616        14.6021 
 123   0.0000       0.539523        14.6812 
 124   0.0000       0.548440        14.9238 
 125   0.0000       0.555157        15.1066 
 126   0.0000       0.559509        15.2250 
 127   0.0000       0.569767        15.5041 
 128   0.0000       0.572164        15.5694 
 129   0.0000       0.578846        15.7512 
 130   0.0000       0.585315        15.9272 
 131   0.0000       0.589707        16.0467 
 132   0.0000       0.594566        16.1790 
 133   0.0000       0.597217        16.2511 
 134   0.0000       0.606034        16.4910 
 135   0.0000       0.610719        16.6185 
 136   0.0000       0.617341        16.7987 
 137   0.0000       0.628031        17.0896 
 138   0.0000       0.635307        17.2876 
 139   0.0000       0.651973        17.7411 
 140   0.0000       0.655810        17.8455 
 141   0.0000       0.661263        17.9939 
 142   0.0000       0.667975        18.1765 
 143   0.0000       0.671438        18.2708 
 144   0.0000       0.674234        18.3468 
 145   0.0000       0.679154        18.4807 
 146   0.0000       0.692338        18.8395 
 147   0.0000       0.697816        18.9885 
 148   0.0000       0.701066        19.0770 
 149   0.0000       0.704116        19.1600 
 150   0.0000       0.716414        19.4946 
 151   0.0000       0.717651        19.5283 
 152   0.0000       0.718987        19.5646 
 153   0.0000       0.729153        19.8413 
 154   0.0000       0.730606        19.8808 
 155   0.0000       0.743980        20.2447 
 156   0.0000       0.750496        20.4220 
 157   0.0000       0.754764        20.5382 
 158   0.0000       0.764254        20.7964 
 159   0.0000       0.770346        20.9622 
 160   0.0000       0.781151        21.2562 
 161   0.0000       0.789321        21.4785 
 162   0.0000       0.800506        21.7829 
 163   0.0000       0.800683        21.7877 
 164   0.0000       0.801793        21.8179 
 165   0.0000       0.808370        21.9969 
 166   0.0000       0.823103        22.3978 
 167   0.0000       0.830101        22.5882 
 168   0.0000       0.832742        22.6601 
 169   0.0000       0.838780        22.8244 
 170   0.0000       0.846509        23.0347 
 171   0.0000       0.854322        23.2473 
 172   0.0000       0.857325        23.3290 
 173   0.0000       0.866245        23.5717 
 174   0.0000       0.877332        23.8734 
 175   0.0000       0.885364        24.0920 
 176   0.0000       0.890691        24.2369 
 177   0.0000       0.895639        24.3716 
 178   0.0000       0.904358        24.6088 
 179   0.0000       0.911494        24.8030 
 180   0.0000       0.924867        25.1669 
 181   0.0000       0.927203        25.2305 
 182   0.0000       0.936595        25.4861 
 183   0.0000       0.940604        25.5951 
 184   0.0000       0.946184        25.7470 
 185   0.0000       0.952379        25.9155 
 186   0.0000       0.954222        25.9657 
 187   0.0000       0.972000        26.4495 
 188   0.0000       0.982355        26.7313 
 189   0.0000       0.987763        26.8784 
 190   0.0000       0.997848        27.1528 
 191   0.0000       1.004142        27.3241 
 192   0.0000       1.014585        27.6083 
 193   0.0000       1.015951        27.6454 
 194   0.0000       1.024025        27.8651 
 195   0.0000       1.029945        28.0262 
 196   0.0000       1.040375        28.3100 
 197   0.0000       1.048231        28.5238 
 198   0.0000       1.053470        28.6664 
 199   0.0000       1.072847        29.1937 
 200   0.0000       1.086117        29.5547 
 201   0.0000       1.090502        29.6741 
 202   0.0000       1.096887        29.8478 
 203   0.0000       1.102758        30.0076 
 204   0.0000       1.117160        30.3995 
 205   0.0000       1.128881        30.7184 
 206   0.0000       1.133063        30.8322 
 207   0.0000       1.147289        31.2193 
 208   0.0000       1.151649        31.3380 
 209   0.0000       1.167767        31.7765 
 210   0.0000       1.172091        31.8942 
 211   0.0000       1.182939        32.1894 
 212   0.0000       1.198027        32.6000 
 213   0.0000       1.201408        32.6920 
 214   0.0000       1.205835        32.8124 
 215   0.0000       1.213069        33.0093 
 216   0.0000       1.221208        33.2308 
 217   0.0000       1.230399        33.4809 
 218   0.0000       1.239565        33.7303 
 219   0.0000       1.241595        33.7855 
 220   0.0000       1.246542        33.9201 
 221   0.0000       1.256089        34.1799 
 222   0.0000       1.279384        34.8138 
 223   0.0000       1.280610        34.8472 
 224   0.0000       1.282803        34.9069 
 225   0.0000       1.298135        35.3241 
 226   0.0000       1.307783        35.5866 
 227   0.0000       1.321339        35.9555 
 228   0.0000       1.331906        36.2430 
 229   0.0000       1.336613        36.3711 
 230   0.0000       1.343056        36.5464 
 231   0.0000       1.353816        36.8392 
 232   0.0000       1.361000        37.0347 
 233   0.0000       1.372934        37.3594 
 234   0.0000       1.376733        37.4628 
 235   0.0000       1.385590        37.7038 
 236   0.0000       1.409688        38.3596 
 237   0.0000       1.410342        38.3774 
 238   0.0000       1.420623        38.6571 
 239   0.0000       1.429186        38.8901 
 240   0.0000       1.448401        39.4130 
 241   0.0000       1.462823        39.8054 
 242   0.0000       1.465620        39.8816 
 243   0.0000       1.477989        40.2181 
 244   0.0000       1.482840        40.3501 
 245   0.0000       1.485432        40.4207 
 246   0.0000       1.495804        40.7029 
 247   0.0000       1.507160        41.0119 
 248   0.0000       1.509085        41.0643 
 249   0.0000       1.513060        41.1725 
 250   0.0000       1.515362        41.2351 
 251   0.0000       1.531029        41.6614 
 252   0.0000       1.534227        41.7485 
 253   0.0000       1.550797        42.1993 
 254   0.0000       1.565739        42.6059 
 255   0.0000       1.577681        42.9309 
 256   0.0000       1.582464        43.0610 
 257   0.0000       1.588240        43.2182 
 258   0.0000       1.596439        43.4413 
 259   0.0000       1.601373        43.5756 
 260   0.0000       1.618164        44.0325 
 261   0.0000       1.627162        44.2773 
 262   0.0000       1.633362        44.4460 
 263   0.0000       1.646209        44.7956 
 264   0.0000       1.651890        44.9502 
 265   0.0000       1.667116        45.3645 
 266   0.0000       1.681190        45.7475 
 267   0.0000       1.685302        45.8594 
 268   0.0000       1.690359        45.9970 
 269   0.0000       1.698580        46.2207 
 270   0.0000       1.715103        46.6703 
 271   0.0000       1.722617        46.8748 
 272   0.0000       1.730210        47.0814 
 273   0.0000       1.744150        47.4607 
 274   0.0000       1.755156        47.7602 
 275   0.0000       1.759902        47.8894 
 276   0.0000       1.772623        48.2355 
 277   0.0000       1.776903        48.3520 
 278   0.0000       1.785721        48.5919 
 279   0.0000       1.793397        48.8008 
 280   0.0000       1.805487        49.1298 
 281   0.0000       1.818637        49.4876 
 282   0.0000       1.829156        49.7739 
 283   0.0000       1.842202        50.1289 
 284   0.0000       1.846055        50.2337 
 285   0.0000       1.857290        50.5394 
 286   0.0000       1.857799        50.5533 
 287   0.0000       1.867839        50.8265 
 288   0.0000       1.893751        51.5316 
 289   0.0000       1.902941        51.7817 
 290   0.0000       1.912677        52.0466 
 291   0.0000       1.916350        52.1465 
 292   0.0000       1.921759        52.2937 
 293   0.0000       1.942285        52.8523 
 294   0.0000       1.951688        53.1081 
 295   0.0000       1.954898        53.1955 
 296   0.0000       1.967842        53.5477 
 297   0.0000       1.972188        53.6660 
 298   0.0000       1.977737        53.8169 
 299   0.0000       2.000122        54.4261 
 300   0.0000       2.003023        54.5050 
 301   0.0000       2.011398        54.7329 
 302   0.0000       2.022523        55.0357 
 303   0.0000       2.026353        55.1399 
 304   0.0000       2.036505        55.4161 
 305   0.0000       2.044979        55.6467 
 306   0.0000       2.060515        56.0695 
 307   0.0000       2.063279        56.1447 
 308   0.0000       2.074806        56.4583 
 309   0.0000       2.082635        56.6714 
 310   0.0000       2.086373        56.7731 
 311   0.0000       2.089345        56.8540 
 312   0.0000       2.093784        56.9748 
 313   0.0000       2.105560        57.2952 
 314   0.0000       2.112868        57.4941 
 315   0.0000       2.121479        57.7284 
 316   0.0000       2.132723        58.0343 
 317   0.0000       2.146846        58.4186 
 318   0.0000       2.154441        58.6253 
 319   0.0000       2.159015        58.7498 
 320   0.0000       2.174169        59.1622 
 321   0.0000       2.182061        59.3769 
 322   0.0000       2.188231        59.5448 
 323   0.0000       2.192300        59.6555 
 324   0.0000       2.197005        59.7835 
 325   0.0000       2.204648        59.9915 
 326   0.0000       2.213963        60.2450 
 327   0.0000       2.215959        60.2993 
 328   0.0000       2.223859        60.5143 
 329   0.0000       2.235634        60.8347 
 330   0.0000       2.247213        61.1498 
 331   0.0000       2.249898        61.2228 
 332   0.0000       2.261860        61.5483 
 333   0.0000       2.269948        61.7684 
 334   0.0000       2.280978        62.0686 
 335   0.0000       2.300357        62.5959 
 336   0.0000       2.306486        62.7627 
 337   0.0000       2.313104        62.9428 
 338   0.0000       2.323625        63.2290 
 339   0.0000       2.328434        63.3599 
 340   0.0000       2.339842        63.6704 
 341   0.0000       2.342491        63.7424 
 342   0.0000       2.347009        63.8654 
 343   0.0000       2.359664        64.2097 
 344   0.0000       2.375363        64.6369 
 345   0.0000       2.379366        64.7458 
 346   0.0000       2.387106        64.9565 
 347   0.0000       2.399148        65.2841 
 348   0.0000       2.408748        65.5454 
 349   0.0000       2.420558        65.8667 
 350   0.0000       2.425583        66.0035 
 351   0.0000       2.439609        66.3851 
 352   0.0000       2.445219        66.5378 
 353   0.0000       2.455433        66.8157 
 354   0.0000       2.463422        67.0331 
 355   0.0000       2.477729        67.4224 
 356   0.0000       2.484140        67.5969 
 357   0.0000       2.488414        67.7132 
 358   0.0000       2.500358        68.0382 
 359   0.0000       2.508848        68.2692 
 360   0.0000       2.526278        68.7435 
 361   0.0000       2.541610        69.1607 
 362   0.0000       2.548928        69.3598 
 363   0.0000       2.555736        69.5451 
 364   0.0000       2.562744        69.7358 
 365   0.0000       2.577941        70.1494 
 366   0.0000       2.584317        70.3228 
 367   0.0000       2.613618        71.1202 
 368   0.0000       2.618691        71.2582 
 369   0.0000       2.622569        71.3637 
 370   0.0000       2.635175        71.7067 
 371   0.0000       2.650860        72.1336 
 372   0.0000       2.658816        72.3501 
 373   0.0000       2.670997        72.6815 
 374   0.0000       2.681740        72.9739 
 375   0.0000       2.692178        73.2579 
 376   0.0000       2.703382        73.5628 
 377   0.0000       2.717398        73.9442 
 378   0.0000       2.737375        74.4877 
 379   0.0000       2.743248        74.6476 
 380   0.0000       2.757723        75.0415 
 381   0.0000       2.777735        75.5860 
 382   0.0000       2.783380        75.7396 
 383   0.0000       2.792891        75.9984 
 384   0.0000       2.796459        76.0955 
 385   0.0000       2.807816        76.4046 
 386   0.0000       2.821531        76.7778 
 387   0.0000       2.834945        77.1428 
 388   0.0000       2.844545        77.4040 
 389   0.0000       2.862530        77.8934 
 390   0.0000       2.865380        77.9710 
 391   0.0000       2.890372        78.6510 
 392   0.0000       2.915350        79.3307 
 393   0.0000       2.927752        79.6682 
 394   0.0000       2.932516        79.7978 
 395   0.0000       2.955924        80.4348 
 396   0.0000       2.959961        80.5446 
 397   0.0000       2.989676        81.3532 
 398   0.0000       3.001887        81.6855 
 399   0.0000       3.013233        81.9942 
 400   0.0000       3.022734        82.2528 
 401   0.0000       3.035123        82.5899 
 402   0.0000       3.048962        82.9665 
 403   0.0000       3.049409        82.9786 
 404   0.0000       3.077102        83.7322 
 405   0.0000       3.087500        84.0151 
 406   0.0000       3.100250        84.3621 
 407   0.0000       3.112060        84.6835 
 408   0.0000       3.137942        85.3877 
 409   0.0000       3.154789        85.8462 
 410   0.0000       3.175516        86.4102 
 411   0.0000       3.184693        86.6599 
 412   0.0000       3.193221        86.8920 
 413   0.0000       3.212634        87.4202 
 414   0.0000       3.217828        87.5616 
 415   0.0000       3.245288        88.3088 
 416   0.0000       3.264423        88.8295 
 417   0.0000       3.278018        89.1994 
 418   0.0000       3.282867        89.3313 
 419   0.0000       3.307294        89.9960 
 420   0.0000       3.329977        90.6133 
 421   0.0000       3.338706        90.8508 
 422   0.0000       3.352950        91.2384 
 423   0.0000       3.362544        91.4995 
 424   0.0000       3.373529        91.7984 
 425   0.0000       3.412723        92.8649 
 426   0.0000       3.436254        93.5052 
 427   0.0000       3.445760        93.7639 
 428   0.0000       3.474827        94.5549 
 429   0.0000       3.488517        94.9274 
 430   0.0000       3.494886        95.1007 
 431   0.0000       3.516579        95.6910 
 432   0.0000       3.520965        95.8103 
 433   0.0000       3.536401        96.2304 
 434   0.0000       3.572036        97.2000 
 435   0.0000       3.577344        97.3445 
 436   0.0000       3.595634        97.8422 
 437   0.0000       3.606511        98.1382 
 438   0.0000       3.630512        98.7913 
 439   0.0000       3.638152        98.9991 
 440   0.0000       3.644516        99.1723 
 441   0.0000       3.653584        99.4191 
 442   0.0000       3.674217        99.9805 
 443   0.0000       3.686777       100.3223 
 444   0.0000       3.697247       100.6072 
 445   0.0000       3.705984       100.8449 
 446   0.0000       3.718730       101.1918 
 447   0.0000       3.728674       101.4624 
 448   0.0000       3.749938       102.0410 
 449   0.0000       3.757477       102.2461 
 450   0.0000       3.762910       102.3940 
 451   0.0000       3.772872       102.6651 
 452   0.0000       3.776199       102.7556 
 453   0.0000       3.794114       103.2431 
 454   0.0000       3.834154       104.3326 
 455   0.0000       3.852860       104.8417 
 456   0.0000       3.868751       105.2741 
 457   0.0000       3.891555       105.8946 
 458   0.0000       3.893125       105.9373 
 459   0.0000       3.899242       106.1038 
 460   0.0000       3.921573       106.7114 
 461   0.0000       3.922308       106.7314 
 462   0.0000       3.941566       107.2555 
 463   0.0000       3.952739       107.5595 
 464   0.0000       3.965195       107.8984 
 465   0.0000       3.975479       108.1783 
 466   0.0000       3.984754       108.4307 
 467   0.0000       3.999343       108.8277 
 468   0.0000       4.014231       109.2328 
 469   0.0000       4.026910       109.5778 
 470   0.0000       4.037701       109.8714 
 471   0.0000       4.046645       110.1148 
 472   0.0000       4.065777       110.6354 
 473   0.0000       4.084797       111.1530 
 474   0.0000       4.089726       111.2871 
 475   0.0000       4.117189       112.0344 
 476   0.0000       4.134382       112.5022 
 477   0.0000       4.141537       112.6969 
 478   0.0000       4.161897       113.2510 
 479   0.0000       4.194787       114.1459 
 480   0.0000       4.203861       114.3929 
 481   0.0000       4.210278       114.5675 
 482   0.0000       4.247606       115.5832 
 483   0.0000       4.256393       115.8223 
 484   0.0000       4.266271       116.0911 
 485   0.0000       4.294285       116.8534 
 486   0.0000       4.307404       117.2104 
 487   0.0000       4.316688       117.4630 
 488   0.0000       4.327603       117.7601 
 489   0.0000       4.334475       117.9471 
 490   0.0000       4.342062       118.1535 
 491   0.0000       4.373865       119.0189 
 492   0.0000       4.413643       120.1013 
 493   0.0000       4.431237       120.5801 
 494   0.0000       4.445740       120.9747 
 495   0.0000       4.464601       121.4880 
 496   0.0000       4.503727       122.5526 
 497   0.0000       4.516034       122.8875 
 498   0.0000       4.530921       123.2926 
 499   0.0000       4.537960       123.4842 
 500   0.0000       4.550815       123.8340 
 501   0.0000       4.576559       124.5345 
 502   0.0000       4.582839       124.7054 
 503   0.0000       4.591884       124.9515 
 504   0.0000       4.622932       125.7964 
 505   0.0000       4.634728       126.1174 
 506   0.0000       4.665118       126.9443 
 507   0.0000       4.668722       127.0424 
 508   0.0000       4.694265       127.7374 
 509   0.0000       4.708333       128.1203 
 510   0.0000       4.712442       128.2321 
 511   0.0000       4.757332       129.4536 
 512   0.0000       4.769007       129.7713 
 513   0.0000       4.779750       130.0636 
 514   0.0000       4.796398       130.5166 
 515   0.0000       4.804071       130.7254 
 516   0.0000       4.818741       131.1246 
 517   0.0000       4.822695       131.2322 
 518   0.0000       4.832281       131.4931 
 519   0.0000       4.873240       132.6076 
 520   0.0000       4.876132       132.6863 
 521   0.0000       4.894586       133.1885 
 522   0.0000       4.922420       133.9459 
 523   0.0000       4.927591       134.0866 
 524   0.0000       4.955107       134.8353 
 525   0.0000       4.975209       135.3823 
 526   0.0000       4.987363       135.7130 
 527   0.0000       5.014633       136.4551 
 528   0.0000       5.033071       136.9568 
 529   0.0000       5.054374       137.5365 
 530   0.0000       5.064509       137.8123 
 531   0.0000       5.094076       138.6169 
 532   0.0000       5.104636       138.9042 
 533   0.0000       5.115057       139.1878 
 534   0.0000       5.131690       139.6404 
 535   0.0000       5.138923       139.8372 
 536   0.0000       5.153976       140.2468 
 537   0.0000       5.170717       140.7024 
 538   0.0000       5.193406       141.3198 
 539   0.0000       5.207108       141.6926 
 540   0.0000       5.229278       142.2959 
 541   0.0000       5.295451       144.0965 
 542   0.0000       5.320532       144.7790 
 543   0.0000       5.356639       145.7615 
 544   0.0000       5.388298       146.6230 
 545   0.0000       5.416471       147.3897 
 546   0.0000       5.447340       148.2297 
 547   0.0000       5.486327       149.2905 
 548   0.0000       5.558803       151.2627 
 549   0.0000       5.610840       152.6787 
 550   0.0000       5.655032       153.8812 
 551   0.0000       5.734639       156.0475 
 552   0.0000       5.822525       158.4390 
 553   0.0000       5.851289       159.2217 
 554   0.0000       5.917865       161.0333 
 555   0.0000       5.953026       161.9901 
 556   0.0000       6.000495       163.2818 
 557   0.0000       6.003158       163.3542 
[...]
      dxz     :     0.004360
      dyz     :     0.003548
      dx2y2   :     0.001078
      dxy     :     0.000665
      f0      :     0.000291  f :     0.001476
      f+1     :     0.000692
      f-1     :    -0.000055
      f+2     :     0.000275
      f-2     :     0.000097
      f+3     :     0.000101
      f-3     :     0.000076
  8 H s       :     0.593029  s :     0.593029
      pz      :    -0.001798  p :     0.012646
      px      :     0.003975
      py      :     0.010469
      dz2     :    -0.000273  d :     0.006637
      dxz     :    -0.000138
      dyz     :     0.001841
      dx2y2   :     0.001619
      dxy     :     0.003588
      f0      :     0.000113  f :     0.001463
      f+1     :     0.000187
      f-1     :     0.000037
      f+2     :    -0.000031
      f-2     :     0.000076
      f+3     :     0.000133
      f-3     :     0.000948
  9 H s       :     0.643623  s :     0.643623
      pz      :     0.020599  p :     0.060537
      px      :     0.022596
      py      :     0.017342
      dz2     :     0.000525  d :     0.009483
      dxz     :    -0.000513
      dyz     :     0.004395
      dx2y2   :     0.001866
      dxy     :     0.003210
      f0      :     0.000052  f :     0.000939
      f+1     :     0.000165
      f-1     :     0.000039
      f+2     :     0.000561
      f-2     :    -0.000024
      f+3     :     0.000181
      f-3     :    -0.000036
 10 H s       :     0.477736  s :     0.477736
      pz      :     0.010389  p :     0.042727
      px      :     0.010858
      py      :     0.021481
      dz2     :     0.001585  d :     0.010680
      dxz     :     0.001406
      dyz     :     0.002329
      dx2y2   :     0.003508
      dxy     :     0.001852
      f0      :    -0.000071  f :     0.000964
      f+1     :     0.000402
      f-1     :     0.000161
      f+2     :    -0.000079
      f-2     :     0.000164
      f+3     :     0.000093
      f-3     :     0.000293


                     *******************************
                     * LOEWDIN POPULATION ANALYSIS *
                     *******************************

----------------------
LOEWDIN ATOMIC CHARGES
----------------------
   0 Cl:    1.193533
   1 S :    0.940326
   2 N :    0.374761
   3 C :   -0.813345
   4 C :    0.107247
   5 C :   -1.046653
   6 C :    0.661798
   7 H :   -0.328964
   8 H :   -0.350607
   9 H :   -0.358633
  10 H :   -0.379464

-------------------------------
LOEWDIN REDUCED ORBITAL CHARGES
-------------------------------
  0 Cls       :     5.202884  s :     5.202884
      pz      :     3.492101  p :    10.168672
      px      :     3.473889
      py      :     3.202683
      dz2     :     0.032814  d :     0.272733
      dxz     :     0.011004
      dyz     :     0.075488
      dx2y2   :     0.072423
      dxy     :     0.081005
      f0      :     0.012903  f :     0.123233
      f+1     :     0.004033
      f-1     :     0.018449
      f+2     :     0.018832
      f-2     :     0.009533
      f+3     :     0.030311
      f-3     :     0.029172
      g0      :     0.002778  g :     0.038945
      g+1     :     0.000597
      g-1     :     0.005167
      g+2     :     0.003808
      g-2     :     0.002374
      g+3     :     0.003101
      g-3     :     0.003861
      g+4     :     0.009328
      g-4     :     0.007932
  1 S s       :     5.151581  s :     5.151581
      pz      :     3.212648  p :     9.440496
      px      :     3.077388
      py      :     3.150461
      dz2     :     0.036816  d :     0.250761
      dxz     :     0.041493
      dyz     :     0.015323
      dx2y2   :     0.062941
      dxy     :     0.094189
      f0      :     0.016799  f :     0.157003
      f+1     :     0.020279
      f-1     :     0.008182
      f+2     :     0.008476
      f-2     :     0.023601
      f+3     :     0.039574
      f-3     :     0.040092
      g0      :     0.003818  g :     0.059832
      g+1     :     0.007453
      g-1     :     0.002649
      g+2     :     0.003306
      g-2     :     0.005851
      g+3     :     0.001350
      g-3     :     0.008923
      g+4     :     0.013921
      g-4     :     0.012561
  2 N s       :     2.652362  s :     2.652362
      pz      :     0.904997  p :     2.953270
      px      :     1.067283
      py      :     0.980990
      dz2     :     0.088337  d :     0.631190
      dxz     :     0.154013
      dyz     :     0.035778
      dx2y2   :     0.145421
      dxy     :     0.207641
      f0      :     0.022828  f :     0.312661
      f+1     :     0.067563
      f-1     :     0.011292
      f+2     :     0.027886
      f-2     :     0.036572
      f+3     :     0.062440
      f-3     :     0.084080
      g0      :     0.007108  g :     0.075757
      g+1     :     0.006542
      g-1     :     0.002417
      g+2     :     0.009953
      g-2     :     0.006098
      g+3     :     0.004405
      g-3     :     0.008348
      g+4     :     0.013649
      g-4     :     0.017237
  3 C s       :     2.450839  s :     2.450839
      pz      :     0.677573  p :     2.170910
      px      :     0.782834
      py      :     0.710504
      dz2     :     0.173951  d :     1.165604
      dxz     :     0.145942
      dyz     :     0.233815
      dx2y2   :     0.323160
      dxy     :     0.288737
      f0      :     0.079980  f :     0.823151
      f+1     :     0.067433
      f-1     :     0.083984
      f+2     :     0.143912
      f-2     :     0.086549
      f+3     :     0.207583
      f-3     :     0.153710
      g0      :     0.014230  g :     0.202841
      g+1     :     0.011173
      g-1     :     0.021168
      g+2     :     0.015384
      g-2     :     0.018593
      g+3     :     0.028143
      g-3     :     0.026274
      g+4     :     0.032246
      g-4     :     0.035630
  4 C s       :     2.375176  s :     2.375176
      pz      :     0.666803  p :     1.946029
      px      :     0.590515
      py      :     0.688711
      dz2     :     0.200629  d :     0.869823
      dxz     :     0.176497
      dyz     :     0.067711
      dx2y2   :     0.234735
      dxy     :     0.190250
      f0      :     0.046396  f :     0.544786
      f+1     :     0.096974
      f-1     :     0.037790
      f+2     :     0.092728
      f-2     :     0.063500
      f+3     :     0.091965
      f-3     :     0.115433
      g0      :     0.017992  g :     0.156939
      g+1     :     0.010497
      g-1     :     0.006259
      g+2     :     0.021385
      g-2     :     0.012295
      g+3     :     0.018089
      g-3     :     0.024133
      g+4     :     0.014567
      g-4     :     0.031721
  5 C s       :     2.624340  s :     2.624340
      pz      :     0.621582  p :     2.421132
      px      :     1.053093
      py      :     0.746457
      dz2     :     0.109452  d :     1.332585
      dxz     :     0.338432
      dyz     :     0.132966
      dx2y2   :     0.416380
      dxy     :     0.335355
      f0      :     0.052723  f :     0.469992
      f+1     :     0.053198
      f-1     :     0.023716
      f+2     :     0.029245
      f-2     :     0.073982
      f+3     :     0.141109
      f-3     :     0.096019
      g0      :     0.010682  g :     0.198603
      g+1     :     0.025851
      g-1     :     0.010200
      g+2     :     0.010067
      g-2     :     0.017606
      g+3     :     0.004883
      g-3     :     0.030153
      g+4     :     0.048072
      g-4     :     0.041089
  6 C s       :     2.456851  s :     2.456851
      pz      :     0.597601  p :     2.069362
      px      :     0.708896
      py      :     0.762866
      dz2     :     0.066006  d :     0.490003
      dxz     :     0.088862
      dyz     :     0.075488
      dx2y2   :     0.123107
      dxy     :     0.136539
      f0      :     0.024383  f :     0.248061
      f+1     :     0.037273
      f-1     :     0.018301
      f+2     :     0.038534
      f-2     :     0.045147
      f+3     :     0.048322
      f-3     :     0.036102
      g0      :     0.004980  g :     0.073925
      g+1     :     0.007708
      g-1     :     0.003909
      g+2     :     0.007752
      g-2     :     0.005713
      g+3     :     0.016185
      g-3     :     0.010268
      g+4     :     0.011323
      g-4     :     0.006086
  7 H s       :     0.596425  s :     0.596425
      pz      :     0.141814  p :     0.295666
      px      :     0.069546
      py      :     0.084307
      dz2     :     0.064028  d :     0.291068
      dxz     :     0.091933
      dyz     :     0.091325
      dx2y2   :     0.027625
      dxy     :     0.016156
      f0      :     0.028789  f :     0.145804
      f+1     :     0.047048
      f-1     :     0.035963
      f+2     :     0.019948
      f-2     :     0.011197
      f+3     :     0.001531
      f-3     :     0.001328
  8 H s       :     0.591167  s :     0.591167
      pz      :     0.079474  p :     0.300845
      px      :     0.085564
      py      :     0.135807
      dz2     :     0.037972  d :     0.306555
      dxz     :     0.027301
      dyz     :     0.087480
      dx2y2   :     0.077659
      dxy     :     0.076142
      f0      :     0.014421  f :     0.152040
      f+1     :     0.007256
      f-1     :     0.022904
      f+2     :     0.022591
      f-2     :     0.015828
      f+3     :     0.024385
      f-3     :     0.044656
  9 H s       :     0.641719  s :     0.641719
      pz      :     0.082522  p :     0.320472
      px      :     0.079983
      py      :     0.157967
      dz2     :     0.030122  d :     0.271266
      dxz     :     0.016532
      dyz     :     0.073026
      dx2y2   :     0.064141
      dxy     :     0.087445
      f0      :     0.012408  f :     0.125177
      f+1     :     0.004883
      f-1     :     0.017301
      f+2     :     0.019246
      f-2     :     0.008894
      f+3     :     0.038151
      f-3     :     0.024293
 10 H s       :     0.660292  s :     0.660292
      pz      :     0.091582  p :     0.321142
      px      :     0.107706
      py      :     0.121854
      dz2     :     0.050527  d :     0.272582
      dxz     :     0.052948
      dyz     :     0.032198
      dx2y2   :     0.088552
      dxy     :     0.048357
      f0      :     0.007272  f :     0.125447
      f+1     :     0.019147
      f-1     :     0.013564
      f+2     :     0.019891
      f-2     :     0.017437
      f+3     :     0.024964
      f-3     :     0.023173


                      *****************************
                      * MAYER POPULATION ANALYSIS *
                      *****************************

  NA   - Mulliken gross atomic population
  ZA   - Total nuclear charge
  QA   - Mulliken gross atomic charge
  VA   - Mayer's total valence
  BVA  - Mayer's bonded valence
  FA   - Mayer's free valence

  ATOM       NA         ZA         QA         VA         BVA        FA
  0 Cl    17.2282    17.0000    -0.2282     0.7581     0.7581    -0.0000
  1 S     15.9835    16.0000     0.0165     1.5820     1.5820     0.0000
  2 N      7.4205     7.0000    -0.4205     2.8543     2.8543     0.0000
  3 C      6.0462     6.0000    -0.0462     3.3143     3.3143    -0.0000
  4 C      6.0637     6.0000    -0.0637     3.1888     3.1888    -0.0000
  5 C      5.9675     6.0000     0.0325     3.7161     3.7161    -0.0000
  6 C      6.7376     6.0000    -0.7376     3.4735     3.4735    -0.0000
  7 H      0.6923     1.0000     0.3077     0.9520     0.9520    -0.0000
  8 H      0.6138     1.0000     0.3862     0.8334     0.8334     0.0000
  9 H      0.7146     1.0000     0.2854     1.0021     1.0021    -0.0000
 10 H      0.5321     1.0000     0.4679     0.7494     0.7494     0.0000

  Mayer bond orders larger than 0.100000
B(  0-Cl,  3-C ) :   0.8551 B(  1-S ,  5-C ) :   1.5340 B(  2-N ,  4-C ) :   0.7302 
B(  2-N ,  5-C ) :   2.1303 B(  3-C ,  4-C ) :   0.8082 B(  3-C ,  6-C ) :   1.7229 
B(  4-C ,  7-H ) :   0.8815 B(  4-C ,  8-H ) :   0.8622 B(  6-C ,  9-H ) :   0.9433 
B(  6-C , 10-H ) :   0.8277 

-------
TIMINGS
-------

Total SCF time: 0 days 0 hours 18 min 46 sec 

Total time                  ....    1126.090 sec
Sum of individual times     ....    1120.369 sec  ( 99.5%)

Fock matrix formation       ....    1114.444 sec  ( 99.0%)
Diagonalization             ....       1.717 sec  (  0.2%)
Density matrix formation    ....       0.088 sec  (  0.0%)
Population analysis         ....       0.617 sec  (  0.1%)
Initial guess               ....       0.542 sec  (  0.0%)
Orbital Transformation      ....       0.000 sec  (  0.0%)
Orbital Orthonormalization  ....       0.000 sec  (  0.0%)
DIIS solution               ....       1.295 sec  (  0.1%)
SOSCF solution              ....       1.385 sec  (  0.1%)

Maximum memory used throughout the entire SCF-calculation: 276.5 MB


           ************************************************************
           *        Program running with 16 parallel MPI-processes    *
           *              working on a common directory               *
           ************************************************************

------------------------------------------------------------------------------
                                ORCA  MP2 
------------------------------------------------------------------------------

Freezing NCore=30 chemical core electrons

-------------
RI-MP2 ENERGY
-------------
Dimension of the basis                    ...  752
Memory devoted to MP2                     ...  256 MB   
Data format for buffers                   ... DOUBLE
Compression type for matrix containers    ... UNCOMPRESSED
Overall scaling of the MP2 energy         ...   1.000e+00
Calculating two index integrals           ... done (    0.018 sec)
Cholesky decomposition of V**-1           ... done (    0.235 sec)

-----------------
RI-TRANSFORMATION (AUX index driven)
-----------------

Dimension of the orbital-basis         ... 752
Dimension of the aux-basis             ... 1548
Transformation of internal/external MOs...   15-  33 to   34- 751
Number Format for Storage              ... Double (8 Byte)
Integral mode                          ... Direct

First Phase: integral generation and transformation of MO indices
  Aux angular momentum 0               ... done (    0.086 sec)
  Aux angular momentum 1               ... done (    0.145 sec)
  Aux angular momentum 2               ... done (    0.261 sec)
  Aux angular momentum 3               ... done (    0.320 sec)
  Aux angular momentum 4               ... done (    0.345 sec)
  Aux angular momentum 5               ... done (    0.176 sec)
Closing buffer VIA ( 0.16 GB; CompressionRatio= 1.00)
  Phase 1 completed in    44.462 sec
Second Phase: sorting and transformation of aux index

IA-Transformation
Memory available                       ... 186 MB 
Max. # MO pairs treated in a batch     ... 2    
# of internal orbitals                 ... 19
# batches for internal orbitals        ... 1
Closing buffer IAV ( 0.16 GB; CompressionRatio= 1.00)
(ia|v) transformation done in     0.416 sec

  Phase 2 completed in     0.504 sec
RI-Integral transformation completed in    44.985 sec
Opening buffers                              ... done

Starting loop over batches of integrals:

Operator 0  - window                       ... ( 15- 33)x( 34-751)
Operator 0  - Memory available             ...   256 MB
Operator 0  - Memory needed per MO         ...   8.5 MB
Operator 0  - Number of orbitals per batch ... 2
Operator 0  - Number of batches            ... 1

OPERATOR  0   PASS   0:  MOs    15 ...   16 +   17 ...   18 +   19 ...   20 +   21 ...   22
                            +   23 ...   24 +   25 ...   26 +   27 ...   28 +   29 ...   30
                            +   31 ...   32 +   33 ...   33
  Reading integrals       ... ok
Time spent in pair loops =     0.203 sec
Deleting buffer (Ka|jb)[aa] ...done

-----------------------------------------------
 RI-MP2 CORRELATION ENERGY:     -1.288359965 Eh
-----------------------------------------------


-------
TIMINGS
-------

Total time                :   47.240 sec
Integral trafo            :   45.000 sec ( 95.3%)
I/O of integrals          :    0.008 sec (  0.0%)
K(i,j) Operators          :    0.174 sec (  0.4%)
T(i,j) pair energies      :    0.008 sec (  0.0%)
V-calculation             :    0.018 sec (  0.0%)
V**(-1/2)                 :    0.235 sec (  0.5%)
Gamma(ia|P)               :    0.000 sec (  0.0%)
Gamma-Trafo               :    0.000 sec (  0.0%)
D(virtual)                :    0.000 sec (  0.0%)
D(internal)               :    0.000 sec (  0.0%)
W(virtual)                :    0.000 sec (  0.0%)
W(internal)               :    0.000 sec (  0.0%)
L(virtual)                :    0.000 sec (  0.0%)
L(internal)               :    0.000 sec (  0.0%)
G(D)                      :    0.000 sec (  0.0%)
G(Z)                      :    0.000 sec (  0.0%)
Z-Vector Solution         :    0.000 sec (  0.0%)
3-Index Derivative        :    0.000 sec (  0.0%)
2-Index Derivative        :    0.000 sec (  0.0%)
Separable Gradient        :    0.000 sec (  0.0%)


---------------------------------------
MP2 TOTAL ENERGY:    -1066.658619003 Eh
---------------------------------------

Maximum memory used throughout the entire MP2-calculation: 174.1 MB

-------------------------   --------------------
FINAL SINGLE POINT ENERGY     -1066.658619003376
-------------------------   --------------------


                            ***************************************
                            *     ORCA property calculations      *
                            ***************************************


  WARNING: The energy has been calculated at the MP2 level but the densities
           used in the property calculations are still SCF densities
           MP2 response densities have not been calculated 
           use %mp2 Density relaxed end
           or  %mp2 Density unrelaxed end

                                    ---------------------
                                    Active property flags
                                    ---------------------
   (+) Dipole Moment


------------------------------------------------------------------------------
                       ORCA ELECTRIC PROPERTIES CALCULATION
------------------------------------------------------------------------------

Dipole Moment Calculation                       ... on
Quadrupole Moment Calculation                   ... off
Polarizability Calculation                      ... off
GBWName                                         ... 2-chloroallylisothiocyanate.gbw
Electron density                                ... 2-chloroallylisothiocyanate.scfp
The origin for moment calculation is the CENTER OF MASS  = ( 0.087301,  0.098610  0.002071)

-------------
DIPOLE MOMENT
-------------
                                X             Y             Z
Electronic contribution:      4.52015       5.84362       0.36343
Nuclear contribution   :     -5.93644      -6.70551      -0.14083
                        -----------------------------------------
Total Dipole Moment    :     -1.41628      -0.86190       0.22260
                        -----------------------------------------
Magnitude (a.u.)       :      1.67280
Magnitude (Debye)      :      4.25193



--------------------
Rotational spectrum 
--------------------
 
Rotational constants in cm-1:     0.114344     0.030344     0.025465 
Rotational constants in MHz :  3427.943744   909.678812   763.417871 

 Dipole components along the rotational axes: 
x,y,z [a.u.] :     1.394679    -0.896785     0.221180 
x,y,z [Debye]:     3.544993    -2.279447     0.562195 

 

Timings for individual modules:

Sum of individual times         ...     1180.372 sec (=  19.673 min)
GTO integral calculation        ...        4.473 sec (=   0.075 min)   0.4 %
SCF iterations                  ...     1127.198 sec (=  18.787 min)  95.5 %
MP2 module                      ...       48.701 sec (=   0.812 min)   4.1 %
                             ****ORCA TERMINATED NORMALLY****
TOTAL RUN TIME: 0 days 0 hours 19 minutes 44 seconds 549 msec
