
                                 *****************
                                 * O   R   C   A *
                                 *****************

                                            #,                                       
                                            ###                                      
                                            ####                                     
                                            #####                                    
                                            ######                                   
                                           ########,                                 
                                     ,,################,,,,,                         
                               ,,#################################,,                 
                          ,,##########################################,,             
                       ,#########################################, ''#####,          
                    ,#############################################,,   '####,        
                  ,##################################################,,,,####,       
                ,###########''''           ''''###############################       
              ,#####''   ,,,,##########,,,,          '''####'''          '####       
            ,##' ,,,,###########################,,,                        '##       
           ' ,,###''''                  '''############,,,                           
         ,,##''                                '''############,,,,        ,,,,,,###''
      ,#''                                            '''#######################'''  
     '                                                          ''''####''''         
             ,#######,   #######,   ,#######,      ##                                
            ,#'     '#,  ##    ##  ,#'     '#,    #''#        ######   ,####,        
            ##       ##  ##   ,#'  ##            #'  '#       #        #'  '#        
            ##       ##  #######   ##           ,######,      #####,   #    #        
            '#,     ,#'  ##    ##  '#,     ,#' ,#      #,         ##   #,  ,#        
             '#######'   ##     ##  '#######'  #'      '#     #####' # '####'        



                  #######################################################
                  #                        -***-                        #
                  #          Department of theory and spectroscopy      #
                  #    Directorship and core code : Frank Neese         #
                  #        Max Planck Institute fuer Kohlenforschung    #
                  #                Kaiser Wilhelm Platz 1               #
                  #                 D-45470 Muelheim/Ruhr               #
                  #                      Germany                        #
                  #                                                     #
                  #                  All rights reserved                #
                  #                        -***-                        #
                  #######################################################


                         Program Version 5.0.4 -  RELEASE  -


 With contributions from (in alphabetic order):
   Daniel Aravena         : Magnetic Suceptibility
   Michael Atanasov       : Ab Initio Ligand Field Theory (pilot matlab implementation)
   Alexander A. Auer      : GIAO ZORA, VPT2 properties, NMR spectrum
   Ute Becker             : Parallelization
   Giovanni Bistoni       : ED, misc. LED, open-shell LED, HFLD
   Martin Brehm           : Molecular dynamics
   Dmytro Bykov           : SCF Hessian
   Vijay G. Chilkuri      : MRCI spin determinant printing, contributions to CSF-ICE
   Dipayan Datta          : RHF DLPNO-CCSD density
   Achintya Kumar Dutta   : EOM-CC, STEOM-CC
   Dmitry Ganyushin       : Spin-Orbit,Spin-Spin,Magnetic field MRCI
   Miquel Garcia          : C-PCM and meta-GGA Hessian, CC/C-PCM, Gaussian charge scheme
   Yang Guo               : DLPNO-NEVPT2, F12-NEVPT2, CIM, IAO-localization
   Andreas Hansen         : Spin unrestricted coupled pair/coupled cluster methods
   Benjamin Helmich-Paris : MC-RPA, TRAH-SCF, COSX integrals
   Lee Huntington         : MR-EOM, pCC
   Robert Izsak           : Overlap fitted RIJCOSX, COSX-SCS-MP3, EOM
   Marcus Kettner         : VPT2
   Christian Kollmar      : KDIIS, OOCD, Brueckner-CCSD(T), CCSD density, CASPT2, CASPT2-K
   Simone Kossmann        : Meta GGA functionals, TD-DFT gradient, OOMP2, MP2 Hessian
   Martin Krupicka        : Initial AUTO-CI
   Lucas Lang             : DCDCAS
   Marvin Lechner         : AUTO-CI (C++ implementation), FIC-MRCC
   Dagmar Lenk            : GEPOL surface, SMD
   Dimitrios Liakos       : Extrapolation schemes; Compound Job, initial MDCI parallelization
   Dimitrios Manganas     : Further ROCIS development; embedding schemes
   Dimitrios Pantazis     : SARC Basis sets
   Anastasios Papadopoulos: AUTO-CI, single reference methods and gradients
   Taras Petrenko         : DFT Hessian,TD-DFT gradient, ASA, ECA, R-Raman, ABS, FL, XAS/XES, NRVS
   Peter Pinski           : DLPNO-MP2, DLPNO-MP2 Gradient
   Christoph Reimann      : Effective Core Potentials
   Marius Retegan         : Local ZFS, SOC
   Christoph Riplinger    : Optimizer, TS searches, QM/MM, DLPNO-CCSD(T), (RO)-DLPNO pert. Triples
   Tobias Risthaus        : Range-separated hybrids, TD-DFT gradient, RPA, STAB
   Michael Roemelt        : Original ROCIS implementation
   Masaaki Saitow         : Open-shell DLPNO-CCSD energy and density
   Barbara Sandhoefer     : DKH picture change effects
   Avijit Sen             : IP-ROCIS
   Kantharuban Sivalingam : CASSCF convergence, NEVPT2, FIC-MRCI
   Bernardo de Souza      : ESD, SOC TD-DFT
   Georgi Stoychev        : AutoAux, RI-MP2 NMR, DLPNO-MP2 response
   Willem Van den Heuvel  : Paramagnetic NMR
   Boris Wezisla          : Elementary symmetry handling
   Frank Wennmohs         : Technical directorship


 We gratefully acknowledge several colleagues who have allowed us to
 interface, adapt or use parts of their codes:
   Stefan Grimme, W. Hujo, H. Kruse, P. Pracht,  : VdW corrections, initial TS optimization,
                  C. Bannwarth, S. Ehlert          DFT functionals, gCP, sTDA/sTD-DF
   Ed Valeev, F. Pavosevic, A. Kumar             : LibInt (2-el integral package), F12 methods
   Garnet Chan, S. Sharma, J. Yang, R. Olivares  : DMRG
   Ulf Ekstrom                                   : XCFun DFT Library
   Mihaly Kallay                                 : mrcc  (arbitrary order and MRCC methods)
   Jiri Pittner, Ondrej Demel                    : Mk-CCSD
   Frank Weinhold                                : gennbo (NPA and NBO analysis)
   Christopher J. Cramer and Donald G. Truhlar   : smd solvation model
   Lars Goerigk                                  : TD-DFT with DH, B97 family of functionals
   V. Asgeirsson, H. Jonsson                     : NEB implementation
   FAccTs GmbH                                   : IRC, NEB, NEB-TS, DLPNO-Multilevel, CI-OPT
                                                   MM, QMMM, 2- and 3-layer-ONIOM, Crystal-QMMM,
                                                   LR-CPCM, SF, NACMEs, symmetry and pop. for TD-DFT,
                                                   nearIR, NL-DFT gradient (VV10), updates on ESD,
                                                   ML-optimized integration grids
   S Lehtola, MJT Oliveira, MAL Marques          : LibXC Library
   Liviu Ungur et al                             : ANISO software


 Your calculation uses the libint2 library for the computation of 2-el integrals
 For citations please refer to: http://libint.valeyev.net

 Your ORCA version has been built with support for libXC version: 5.1.0
 For citations please refer to: https://tddft.org/programs/libxc/

 This ORCA versions uses:
   CBLAS   interface :  Fast vector & matrix operations
   LAPACKE interface :  Fast linear algebra routines
   SCALAPACK package :  Parallel linear algebra routines
   Shared memory     :  Shared parallel matrices
   BLAS/LAPACK       :  OpenBLAS 0.3.15  USE64BITINT DYNAMIC_ARCH NO_AFFINITY Zen SINGLE_THREADED
        Core in use  :  Zen
   Copyright (c) 2011-2014, The OpenBLAS Project


================================================================================

----- Orbital basis set information -----
Your calculation utilizes the basis: aug-cc-pVQZ 
    H, B-Ne : Obtained from the ccRepo (grant-hill.group.shef.ac.uk/ccrepo) Feb. 2017
              R. A. Kendall, T. H. Dunning, Jr., R. J. Harrison, J. Chem. Phys. 96, 6796 (1992)
         He : Obtained from the ccRepo (grant-hill.group.shef.ac.uk/ccrepo) Feb. 2017
              D. E. Woon, T. H. Dunning, Jr., J. Chem. Phys. 100, 2975 (1994)
  Li-Be, Na : Obtained from the ccRepo (grant-hill.group.shef.ac.uk/ccrepo) Feb. 2017
              B. P. Prascher, D. E. Woon, K. A. Peterson, T. H. Dunning, Jr., A. K. Wilson, Theor. Chem. Acc. 128, 69 (2011)
         Mg : Obtained from the Peterson Research Group Website (tyr0.chem.wsu.edu/~kipeters) Feb. 2017
              B. P. Prascher, D. E. Woon, K. A. Peterson, T. H. Dunning, Jr., A. K. Wilson, Theor. Chem. Acc. 128, 69 (2011)
      Al-Ar : Obtained from the ccRepo (grant-hill.group.shef.ac.uk/ccrepo) Feb. 2017
              D. E. Woon, T. H. Dunning, Jr., J. Chem. Phys. 98, 1358 (1993)
      Sc-Zn : Obtained from the ccRepo (grant-hill.group.shef.ac.uk/ccrepo) Feb. 2017
              N. B. Balabanov, K. A. Peterson, J. Chem. Phys. 123, 064107 (2005)
              N. B. Balabanov, K. A. Peterson, J. Chem. Phys. 125, 074110 (2006)
      Ga-Kr : Obtained from the ccRepo (grant-hill.group.shef.ac.uk/ccrepo) Feb. 2017
              A. K. Wilson, D. E. Woon, K. A. Peterson, T. H. Dunning, Jr., J. Chem. Phys. 110, 7667 (1999)

----- AuxC basis set information -----
Your calculation utilizes the auxiliary basis: aug-cc-pVQZ/C 
  H-He, B-F, Al-Ar, Ga-Kr : Obtained from the EMSL Basis Set Exchange (bse.pnl.gov) Feb. 2017
                            F. Weigend, A. Kohn, C. Hattig, J. Chem. Phys. 116, 3175 (2002)
                   Be, Mg : Obtained from the TURBOMOLE 7.0 basis set library
                            C. Haettig, Phys. Chem. Chem. Phys. 7, 59 (2005)
                       Ne : Obtained from the EMSL Basis Set Exchange (bse.pnl.gov) Feb. 2017
                            C. Haettig, Phys. Chem. Chem. Phys. 7, 59 (2005)
                            F. Weigend, A. Kohn, C. Hattig, J. Chem. Phys. 116, 3175 (2002)
                    Sc-Zn : Obtained from the EMSL Basis Set Exchange (bse.pnl.gov) Feb. 2017
                            D. H. Bross, J. G. Hill, H. J. Werner, K. A. Peterson, J. Chem. Phys. 139, 094302 (2013)

================================================================================
                                        WARNINGS
                       Please study these warnings very carefully!
================================================================================


WARNING: No MP2 level density has been requested!
         To caclulate MP2 level properties use
         %mp2 Density relaxed end
         or
         %mp2 Density unrelaxed end

WARNING: Post HF methods need fully converged wavefunctions
  ===> : Setting SCFConvForced true
         You can overwrite this default with %scf ConvForced false 


INFO   : the flag for use of the SHARK integral package has been found!

================================================================================
                                       INPUT FILE
================================================================================
NAME = 2,3-dihydro-1,2-thiazole-1-oxide.inp
|  1> !ri-mp2 aug-cc-pvqz aug-cc-pvqz/c tightscf
|  2> %pal nprocs 16 end
|  3> 
|  4> * xyz 0 1
|  5> C    -1.470654    0.825217    0.180286
|  6> C    -1.553390   -0.662462    0.294602
|  7> C    -0.306511    1.283031   -0.252180
|  8> N    -0.356943   -1.153514   -0.388425
|  9> O     1.719592    0.003041    0.864117
| 10> S     0.944753   -0.019129   -0.414780
| 11> H    -2.309000    1.451695    0.454288
| 12> H    -1.613318   -0.957897    1.349242
| 13> H    -2.442883   -1.050971   -0.208260
| 14> H     0.004141    2.307754   -0.379815
| 15> H    -0.029788   -2.068961   -0.109186
| 16> *
| 17> 
| 18>                          ****END OF INPUT****
================================================================================

                       ****************************
                       * Single Point Calculation *
                       ****************************

---------------------------------
CARTESIAN COORDINATES (ANGSTROEM)
---------------------------------
  C     -1.470654    0.825217    0.180286
  C     -1.553390   -0.662462    0.294602
  C     -0.306511    1.283031   -0.252180
  N     -0.356943   -1.153514   -0.388425
  O      1.719592    0.003041    0.864117
  S      0.944753   -0.019129   -0.414780
  H     -2.309000    1.451695    0.454288
  H     -1.613318   -0.957897    1.349242
  H     -2.442883   -1.050971   -0.208260
  H      0.004141    2.307754   -0.379815
  H     -0.029788   -2.068961   -0.109186

----------------------------
CARTESIAN COORDINATES (A.U.)
----------------------------
  NO LB      ZA    FRAG     MASS         X           Y           Z
   0 C     6.0000    0    12.011   -2.779133    1.559434    0.340691
   1 C     6.0000    0    12.011   -2.935482   -1.251872    0.556717
   2 C     6.0000    0    12.011   -0.579222    2.424577   -0.476551
   3 N     7.0000    0    14.007   -0.674525   -2.179826   -0.734017
   4 O     8.0000    0    15.999    3.249558    0.005747    1.632944
   5 S    16.0000    0    32.060    1.785324   -0.036149   -0.783821
   6 H     1.0000    0     1.008   -4.363378    2.743306    0.858480
   7 H     1.0000    0     1.008   -3.048729   -1.810163    2.549698
   8 H     1.0000    0     1.008   -4.616380   -1.986047   -0.393554
   9 H     1.0000    0     1.008    0.007825    4.361023   -0.717746
  10 H     1.0000    0     1.008   -0.056291   -3.909770   -0.206332

--------------------------------
INTERNAL COORDINATES (ANGSTROEM)
--------------------------------
 C      0   0   0     0.000000000000     0.00000000     0.00000000
 C      1   0   0     1.494356784905     0.00000000     0.00000000
 C      1   2   0     1.323574487591   114.71079156     0.00000000
 N      2   1   3     1.462581065528   104.66855522   348.71078594
 O      3   1   2     2.643782661059   111.63096979   317.83851918
 S      5   3   1     1.495474680973    41.32470461    98.94237694
 H      1   2   3     1.081839080549   120.94526511   181.01808723
 H      2   1   3     1.096876808948   110.16446617   111.40893554
 H      2   1   3     1.093163862911   111.32581964   230.67476330
 H      3   1   2     1.078356427652   128.37023221   182.53160660
 H      4   2   1     1.011458364420   116.07448687   155.85725181

---------------------------
INTERNAL COORDINATES (A.U.)
---------------------------
 C      0   0   0     0.000000000000     0.00000000     0.00000000
 C      1   0   0     2.823925069838     0.00000000     0.00000000
 C      1   2   0     2.501193299392   114.71079156     0.00000000
 N      2   1   3     2.763877662507   104.66855522   348.71078594
 O      3   1   2     4.996025187012   111.63096979   317.83851918
 S      5   3   1     2.826037587251    41.32470461    98.94237694
 H      1   2   3     2.044379583212   120.94526511   181.01808723
 H      2   1   3     2.072796771562   110.16446617   111.40893554
 H      2   1   3     2.065780320401   111.32581964   230.67476330
 H      3   1   2     2.037798323016   128.37023221   182.53160660
 H      4   2   1     1.911379304618   116.07448687   155.85725181

---------------------
BASIS SET INFORMATION
---------------------
There are 5 groups of distinct atoms

 Group   1 Type C   : 22s7p4d3f2g contracted to 6s5p4d3f2g pattern {991111/31111/1111/111/11}
 Group   2 Type N   : 22s7p4d3f2g contracted to 6s5p4d3f2g pattern {991111/31111/1111/111/11}
 Group   3 Type O   : 22s7p4d3f2g contracted to 6s5p4d3f2g pattern {991111/31111/1111/111/11}
 Group   4 Type S   : 43s20p4d3f2g contracted to 7s6p4d3f2g pattern {1313131111/881111/1111/111/11}
 Group   5 Type H   : 7s4p3d2f contracted to 5s4p3d2f pattern {31111/1111/111/11}

Atom   0C    basis set group =>   1
Atom   1C    basis set group =>   1
Atom   2C    basis set group =>   1
Atom   3N    basis set group =>   2
Atom   4O    basis set group =>   3
Atom   5S    basis set group =>   4
Atom   6H    basis set group =>   5
Atom   7H    basis set group =>   5
Atom   8H    basis set group =>   5
Atom   9H    basis set group =>   5
Atom  10H    basis set group =>   5
---------------------------------
AUXILIARY/C BASIS SET INFORMATION
---------------------------------
There are 5 groups of distinct atoms

 Group   1 Type C   : 9s8p7d6f4g2h contracted to 9s8p7d6f4g2h pattern {111111111/11111111/1111111/111111/1111/11}
 Group   2 Type N   : 9s8p7d6f4g2h contracted to 9s8p7d6f4g2h pattern {111111111/11111111/1111111/111111/1111/11}
 Group   3 Type O   : 9s8p7d6f4g2h contracted to 9s8p7d6f4g2h pattern {111111111/11111111/1111111/111111/1111/11}
 Group   4 Type S   : 12s10p9d7f4g2h contracted to 12s10p9d7f4g2h pattern {111111111111/1111111111/111111111/1111111/1111/11}
 Group   5 Type H   : 6s5p4d3f2g contracted to 6s5p4d3f2g pattern {111111/11111/1111/111/11}

Atom   0C    basis set group =>   1
Atom   1C    basis set group =>   1
Atom   2C    basis set group =>   1
Atom   3N    basis set group =>   2
Atom   4O    basis set group =>   3
Atom   5S    basis set group =>   4
Atom   6H    basis set group =>   5
Atom   7H    basis set group =>   5
Atom   8H    basis set group =>   5
Atom   9H    basis set group =>   5
Atom  10H    basis set group =>   5


           ************************************************************
           *        Program running with 16 parallel MPI-processes    *
           *              working on a common directory               *
           ************************************************************
------------------------------------------------------------------------------
                           ORCA GTO INTEGRAL CALCULATION
------------------------------------------------------------------------------
------------------------------------------------------------------------------
                   ___                                                        
                  /   \      - P O W E R E D   B Y -                         
                 /     \                                                     
                 |  |  |   _    _      __       _____    __    __             
                 |  |  |  | |  | |    /  \     |  _  \  |  |  /  |          
                  \  \/   | |  | |   /    \    | | | |  |  | /  /          
                 / \  \   | |__| |  /  /\  \   | |_| |  |  |/  /          
                |  |  |   |  __  | /  /__\  \  |    /   |      \           
                |  |  |   | |  | | |   __   |  |    \   |  |\   \          
                \     /   | |  | | |  |  |  |  | |\  \  |  | \   \       
                 \___/    |_|  |_| |__|  |__|  |_| \__\ |__|  \__/        
                                                                              
                      - O R C A' S   B I G   F R I E N D -                    
                                      &                                       
                       - I N T E G R A L  F E E D E R -                       
                                                                              
 v1 FN, 2020, v2 2021                                                         
------------------------------------------------------------------------------


Reading SHARK input file 2,3-dihydro-1,2-thiazole-1-oxide.SHARKINP.tmp ... ok
----------------------
SHARK INTEGRAL PACKAGE
----------------------

Number of atoms                             ...     11
Number of basis functions                   ...    777
Number of shells                            ...    243
Maximum angular momentum                    ...      4
Integral batch strategy                     ... SHARK/LIBINT Hybrid
RI-J (if used) integral strategy            ... SPLIT-RIJ (Revised 2003 algorithm where possible)
Printlevel                                  ...      1
Contraction scheme used                     ... PARTIAL GENERAL contraction
Coulomb Range Separation                    ... NOT USED
Exchange Range Separation                   ... NOT USED
Finite Nucleus Model                        ... NOT USED
Auxiliary Coulomb fitting basis             ... NOT available
Auxiliary J/K fitting basis                 ... NOT available
Auxiliary Correlation fitting basis         ... AVAILABLE
   # of basis functions in Aux-C            ...   1434
   # of shells in Aux-C                     ...    324
   Maximum angular momentum in Aux-C        ...      5
Auxiliary 'external' fitting basis          ... NOT available
Integral threshold                          ...     2.500000e-11
Primitive cut-off                           ...     2.500000e-12
Primitive pair pre-selection threshold      ...     2.500000e-12

Calculating pre-screening integrals         ... done (  0.1 sec) Dimension = 243
Calculating pre-screening integrals (ORCA)  ... done (  0.2 sec) Dimension = 192
Organizing shell pair data                  ... done (  1.2 sec)
Shell pair information
Total number of shell pairs                 ...     29646
Shell pairs after pre-screening             ...     25514
Total number of primitive shell pairs       ...     34746
Primitive shell pairs kept                  ...     28602
          la=0 lb=0:   4021 shell pairs
          la=1 lb=0:   5070 shell pairs
          la=1 lb=1:   1531 shell pairs
          la=2 lb=0:   3640 shell pairs
          la=2 lb=1:   2092 shell pairs
          la=2 lb=2:    753 shell pairs
          la=3 lb=0:   2683 shell pairs
          la=3 lb=1:   1522 shell pairs
          la=3 lb=2:   1060 shell pairs
          la=3 lb=3:    396 shell pairs
          la=4 lb=0:   1201 shell pairs
          la=4 lb=1:    672 shell pairs
          la=4 lb=2:    461 shell pairs
          la=4 lb=3:    334 shell pairs
          la=4 lb=4:     78 shell pairs

Calculating one electron integrals          ... done (  0.0 sec)
Calculating RI/C V-Matrix + Cholesky decomp.... done (  1.1 sec)
Calculating Nuclear repulsion               ... done (  0.0 sec) ENN=    307.495217292206 Eh

SHARK setup successfully completed in   5.0 seconds

Maximum memory used throughout the entire GTOINT-calculation: 80.1 MB
[1715535691.402953] [nc31011:2876674:0]          mpool.c:42   UCX  WARN  object 0xa832d00 was not returned to mpool ucp_requests
[1715535691.402976] [nc31011:2876674:0]          mpool.c:42   UCX  WARN  object 0xa832ec0 was not returned to mpool ucp_requests
[1715535691.402982] [nc31011:2876674:0]          mpool.c:42   UCX  WARN  object 0xa833080 was not returned to mpool ucp_requests
[1715535691.402985] [nc31011:2876674:0]          mpool.c:42   UCX  WARN  object 0xa833240 was not returned to mpool ucp_requests
[1715535691.402990] [nc31011:2876674:0]          mpool.c:42   UCX  WARN  object 0xa833400 was not returned to mpool ucp_requests
[1715535691.402993] [nc31011:2876674:0]          mpool.c:42   UCX  WARN  object 0xa8335c0 was not returned to mpool ucp_requests
[1715535691.402996] [nc31011:2876674:0]          mpool.c:42   UCX  WARN  object 0xa833780 was not returned to mpool ucp_requests
[1715535691.403000] [nc31011:2876674:0]          mpool.c:42   UCX  WARN  object 0xa833940 was not returned to mpool ucp_requests
[1715535691.403002] [nc31011:2876674:0]          mpool.c:42   UCX  WARN  object 0xa833b00 was not returned to mpool ucp_requests
[1715535691.403007] [nc31011:2876674:0]          mpool.c:42   UCX  WARN  object 0xa833cc0 was not returned to mpool ucp_requests
[1715535691.403026] [nc31011:2876674:0]          mpool.c:42   UCX  WARN  object 0xa833e80 was not returned to mpool ucp_requests
[1715535691.403266] [nc31011:2876671:0]          mpool.c:42   UCX  WARN  object 0xb270340 was not returned to mpool ucp_requests
[1715535691.403282] [nc31011:2876671:0]          mpool.c:42   UCX  WARN  object 0xb270500 was not returned to mpool ucp_requests
[1715535691.403288] [nc31011:2876671:0]          mpool.c:42   UCX  WARN  object 0xb2706c0 was not returned to mpool ucp_requests
[1715535691.403291] [nc31011:2876671:0]          mpool.c:42   UCX  WARN  object 0xb270880 was not returned to mpool ucp_requests
[1715535691.403294] [nc31011:2876671:0]          mpool.c:42   UCX  WARN  object 0xb270a40 was not returned to mpool ucp_requests
[1715535691.403301] [nc31011:2876671:0]          mpool.c:42   UCX  WARN  object 0xb270c00 was not returned to mpool ucp_requests
[1715535691.403304] [nc31011:2876671:0]          mpool.c:42   UCX  WARN  object 0xb270dc0 was not returned to mpool ucp_requests
[1715535691.403306] [nc31011:2876671:0]          mpool.c:42   UCX  WARN  object 0xb270f80 was not returned to mpool ucp_requests
[1715535691.403309] [nc31011:2876671:0]          mpool.c:42   UCX  WARN  object 0xb271140 was not returned to mpool ucp_requests
[1715535691.403312] [nc31011:2876671:0]          mpool.c:42   UCX  WARN  object 0xb271300 was not returned to mpool ucp_requests
[1715535691.403314] [nc31011:2876671:0]          mpool.c:42   UCX  WARN  object 0xb2714c0 was not returned to mpool ucp_requests
[1715535691.404383] [nc31011:2876670:0]          mpool.c:42   UCX  WARN  object 0xb7d2000 was not returned to mpool ucp_requests
[1715535691.404395] [nc31011:2876670:0]          mpool.c:42   UCX  WARN  object 0xb7d21c0 was not returned to mpool ucp_requests
[1715535691.404399] [nc31011:2876670:0]          mpool.c:42   UCX  WARN  object 0xb7d2380 was not returned to mpool ucp_requests
[1715535691.404402] [nc31011:2876670:0]          mpool.c:42   UCX  WARN  object 0xb7d2540 was not returned to mpool ucp_requests
[1715535691.404405] [nc31011:2876670:0]          mpool.c:42   UCX  WARN  object 0xb7d2700 was not returned to mpool ucp_requests
[1715535691.404407] [nc31011:2876670:0]          mpool.c:42   UCX  WARN  object 0xb7d28c0 was not returned to mpool ucp_requests
[1715535691.404410] [nc31011:2876670:0]          mpool.c:42   UCX  WARN  object 0xb7d2a80 was not returned to mpool ucp_requests
[1715535691.404413] [nc31011:2876670:0]          mpool.c:42   UCX  WARN  object 0xb7d2c40 was not returned to mpool ucp_requests
[1715535691.404415] [nc31011:2876670:0]          mpool.c:42   UCX  WARN  object 0xb7d2e00 was not returned to mpool ucp_requests
[1715535691.404418] [nc31011:2876670:0]          mpool.c:42   UCX  WARN  object 0xb7d2fc0 was not returned to mpool ucp_requests
[1715535691.404421] [nc31011:2876670:0]          mpool.c:42   UCX  WARN  object 0xb7d3180 was not returned to mpool ucp_requests
[1715535691.415213] [nc31011:2876667:0]          mpool.c:42   UCX  WARN  object 0xc44e100 was not returned to mpool ucp_requests
[1715535691.415231] [nc31011:2876667:0]          mpool.c:42   UCX  WARN  object 0xc44e2c0 was not returned to mpool ucp_requests
[1715535691.415236] [nc31011:2876667:0]          mpool.c:42   UCX  WARN  object 0xc44e480 was not returned to mpool ucp_requests
[1715535691.415241] [nc31011:2876667:0]          mpool.c:42   UCX  WARN  object 0xc44e640 was not returned to mpool ucp_requests
[1715535691.415244] [nc31011:2876667:0]          mpool.c:42   UCX  WARN  object 0xc44e800 was not returned to mpool ucp_requests
[1715535691.415247] [nc31011:2876667:0]          mpool.c:42   UCX  WARN  object 0xc44e9c0 was not returned to mpool ucp_requests
[1715535691.415251] [nc31011:2876667:0]          mpool.c:42   UCX  WARN  object 0xc44eb80 was not returned to mpool ucp_requests
[1715535691.415255] [nc31011:2876667:0]          mpool.c:42   UCX  WARN  object 0xc44ed40 was not returned to mpool ucp_requests
[1715535691.415257] [nc31011:2876667:0]          mpool.c:42   UCX  WARN  object 0xc44ef00 was not returned to mpool ucp_requests
[1715535691.415261] [nc31011:2876667:0]          mpool.c:42   UCX  WARN  object 0xc44f0c0 was not returned to mpool ucp_requests
[1715535691.415265] [nc31011:2876667:0]          mpool.c:42   UCX  WARN  object 0xc44f280 was not returned to mpool ucp_requests
[1715535691.418033] [nc31011:2876672:0]          mpool.c:42   UCX  WARN  object 0xc32a240 was not returned to mpool ucp_requests
[1715535691.418052] [nc31011:2876672:0]          mpool.c:42   UCX  WARN  object 0xc32a400 was not returned to mpool ucp_requests
[1715535691.418058] [nc31011:2876672:0]          mpool.c:42   UCX  WARN  object 0xc32a5c0 was not returned to mpool ucp_requests
[1715535691.418062] [nc31011:2876672:0]          mpool.c:42   UCX  WARN  object 0xc32a780 was not returned to mpool ucp_requests
[1715535691.418066] [nc31011:2876672:0]          mpool.c:42   UCX  WARN  object 0xc32a940 was not returned to mpool ucp_requests
[1715535691.418069] [nc31011:2876672:0]          mpool.c:42   UCX  WARN  object 0xc32ab00 was not returned to mpool ucp_requests
[1715535691.418074] [nc31011:2876672:0]          mpool.c:42   UCX  WARN  object 0xc32acc0 was not returned to mpool ucp_requests
[1715535691.418078] [nc31011:2876672:0]          mpool.c:42   UCX  WARN  object 0xc32ae80 was not returned to mpool ucp_requests
[1715535691.418083] [nc31011:2876672:0]          mpool.c:42   UCX  WARN  object 0xc32b040 was not returned to mpool ucp_requests
[1715535691.418087] [nc31011:2876672:0]          mpool.c:42   UCX  WARN  object 0xc32b200 was not returned to mpool ucp_requests
[1715535691.418091] [nc31011:2876672:0]          mpool.c:42   UCX  WARN  object 0xc32b3c0 was not returned to mpool ucp_requests
[1715535691.418110] [nc31011:2876664:0]          mpool.c:42   UCX  WARN  object 0xc1b9000 was not returned to mpool ucp_requests
[1715535691.418127] [nc31011:2876664:0]          mpool.c:42   UCX  WARN  object 0xc1b91c0 was not returned to mpool ucp_requests
[1715535691.418132] [nc31011:2876664:0]          mpool.c:42   UCX  WARN  object 0xc1b9380 was not returned to mpool ucp_requests
[1715535691.418136] [nc31011:2876664:0]          mpool.c:42   UCX  WARN  object 0xc1b9540 was not returned to mpool ucp_requests
[1715535691.418140] [nc31011:2876664:0]          mpool.c:42   UCX  WARN  object 0xc1b9700 was not returned to mpool ucp_requests
[1715535691.418144] [nc31011:2876664:0]          mpool.c:42   UCX  WARN  object 0xc1b98c0 was not returned to mpool ucp_requests
[1715535691.418148] [nc31011:2876664:0]          mpool.c:42   UCX  WARN  object 0xc1b9a80 was not returned to mpool ucp_requests
[1715535691.418153] [nc31011:2876664:0]          mpool.c:42   UCX  WARN  object 0xc1b9c40 was not returned to mpool ucp_requests
[1715535691.418156] [nc31011:2876664:0]          mpool.c:42   UCX  WARN  object 0xc1b9e00 was not returned to mpool ucp_requests
[1715535691.418160] [nc31011:2876664:0]          mpool.c:42   UCX  WARN  object 0xc1b9fc0 was not returned to mpool ucp_requests
[1715535691.418164] [nc31011:2876664:0]          mpool.c:42   UCX  WARN  object 0xc1ba180 was not returned to mpool ucp_requests
[1715535691.419075] [nc31011:2876666:0]          mpool.c:42   UCX  WARN  object 0xc142140 was not returned to mpool ucp_requests
[1715535691.419095] [nc31011:2876666:0]          mpool.c:42   UCX  WARN  object 0xc142300 was not returned to mpool ucp_requests
[1715535691.419100] [nc31011:2876666:0]          mpool.c:42   UCX  WARN  object 0xc1424c0 was not returned to mpool ucp_requests
[1715535691.419104] [nc31011:2876666:0]          mpool.c:42   UCX  WARN  object 0xc142680 was not returned to mpool ucp_requests
[1715535691.419109] [nc31011:2876666:0]          mpool.c:42   UCX  WARN  object 0xc142840 was not returned to mpool ucp_requests
[1715535691.419113] [nc31011:2876666:0]          mpool.c:42   UCX  WARN  object 0xc142a00 was not returned to mpool ucp_requests
[1715535691.419115] [nc31011:2876666:0]          mpool.c:42   UCX  WARN  object 0xc142bc0 was not returned to mpool ucp_requests
[1715535691.419118] [nc31011:2876666:0]          mpool.c:42   UCX  WARN  object 0xc142d80 was not returned to mpool ucp_requests
[1715535691.419123] [nc31011:2876666:0]          mpool.c:42   UCX  WARN  object 0xc142f40 was not returned to mpool ucp_requests
[1715535691.419126] [nc31011:2876666:0]          mpool.c:42   UCX  WARN  object 0xc143100 was not returned to mpool ucp_requests
[1715535691.419130] [nc31011:2876666:0]          mpool.c:42   UCX  WARN  object 0xc1432c0 was not returned to mpool ucp_requests
[1715535691.419562] [nc31011:2876683:0]          mpool.c:42   UCX  WARN  object 0xb0c0280 was not returned to mpool ucp_requests
[1715535691.419582] [nc31011:2876683:0]          mpool.c:42   UCX  WARN  object 0xb0c0440 was not returned to mpool ucp_requests
[1715535691.419590] [nc31011:2876683:0]          mpool.c:42   UCX  WARN  object 0xb0c0600 was not returned to mpool ucp_requests
[1715535691.419594] [nc31011:2876683:0]          mpool.c:42   UCX  WARN  object 0xb0c07c0 was not returned to mpool ucp_requests
[1715535691.419598] [nc31011:2876683:0]          mpool.c:42   UCX  WARN  object 0xb0c0980 was not returned to mpool ucp_requests
[1715535691.419601] [nc31011:2876683:0]          mpool.c:42   UCX  WARN  object 0xb0c0b40 was not returned to mpool ucp_requests
[1715535691.419605] [nc31011:2876683:0]          mpool.c:42   UCX  WARN  object 0xb0c0d00 was not returned to mpool ucp_requests
[1715535691.419608] [nc31011:2876683:0]          mpool.c:42   UCX  WARN  object 0xb0c0ec0 was not returned to mpool ucp_requests
[1715535691.419612] [nc31011:2876683:0]          mpool.c:42   UCX  WARN  object 0xb0c1080 was not returned to mpool ucp_requests
[1715535691.419615] [nc31011:2876683:0]          mpool.c:42   UCX  WARN  object 0xb0c1240 was not returned to mpool ucp_requests
[1715535691.419619] [nc31011:2876683:0]          mpool.c:42   UCX  WARN  object 0xb0c1400 was not returned to mpool ucp_requests
[1715535691.424186] [nc31011:2876669:0]          mpool.c:42   UCX  WARN  object 0xb3ed080 was not returned to mpool ucp_requests
[1715535691.424208] [nc31011:2876669:0]          mpool.c:42   UCX  WARN  object 0xb3ed240 was not returned to mpool ucp_requests
[1715535691.424211] [nc31011:2876669:0]          mpool.c:42   UCX  WARN  object 0xb3ed400 was not returned to mpool ucp_requests
[1715535691.424214] [nc31011:2876669:0]          mpool.c:42   UCX  WARN  object 0xb3ed5c0 was not returned to mpool ucp_requests
[1715535691.424217] [nc31011:2876669:0]          mpool.c:42   UCX  WARN  object 0xb3ed780 was not returned to mpool ucp_requests
[1715535691.424219] [nc31011:2876669:0]          mpool.c:42   UCX  WARN  object 0xb3ed940 was not returned to mpool ucp_requests
[1715535691.424221] [nc31011:2876669:0]          mpool.c:42   UCX  WARN  object 0xb3edb00 was not returned to mpool ucp_requests
[1715535691.424224] [nc31011:2876669:0]          mpool.c:42   UCX  WARN  object 0xb3edcc0 was not returned to mpool ucp_requests
[1715535691.424226] [nc31011:2876669:0]          mpool.c:42   UCX  WARN  object 0xb3ede80 was not returned to mpool ucp_requests
[1715535691.424228] [nc31011:2876669:0]          mpool.c:42   UCX  WARN  object 0xb3ee040 was not returned to mpool ucp_requests
[1715535691.424231] [nc31011:2876669:0]          mpool.c:42   UCX  WARN  object 0xb3ee200 was not returned to mpool ucp_requests
[1715535691.425937] [nc31011:2876662:0]          mpool.c:42   UCX  WARN  object 0xb916980 was not returned to mpool ucp_requests
[1715535691.425958] [nc31011:2876662:0]          mpool.c:42   UCX  WARN  object 0xb916b40 was not returned to mpool ucp_requests
[1715535691.425962] [nc31011:2876662:0]          mpool.c:42   UCX  WARN  object 0xb916d00 was not returned to mpool ucp_requests
[1715535691.425964] [nc31011:2876662:0]          mpool.c:42   UCX  WARN  object 0xb916ec0 was not returned to mpool ucp_requests
[1715535691.425967] [nc31011:2876662:0]          mpool.c:42   UCX  WARN  object 0xb917080 was not returned to mpool ucp_requests
[1715535691.425969] [nc31011:2876662:0]          mpool.c:42   UCX  WARN  object 0xb917240 was not returned to mpool ucp_requests
[1715535691.425971] [nc31011:2876662:0]          mpool.c:42   UCX  WARN  object 0xb917400 was not returned to mpool ucp_requests
[1715535691.425974] [nc31011:2876662:0]          mpool.c:42   UCX  WARN  object 0xb9175c0 was not returned to mpool ucp_requests
[1715535691.425976] [nc31011:2876662:0]          mpool.c:42   UCX  WARN  object 0xb917780 was not returned to mpool ucp_requests
[1715535691.425978] [nc31011:2876662:0]          mpool.c:42   UCX  WARN  object 0xb917940 was not returned to mpool ucp_requests
[1715535691.425981] [nc31011:2876662:0]          mpool.c:42   UCX  WARN  object 0xb917b00 was not returned to mpool ucp_requests
[1715535691.426243] [nc31011:2876663:0]          mpool.c:42   UCX  WARN  object 0xb445800 was not returned to mpool ucp_requests
[1715535691.426263] [nc31011:2876663:0]          mpool.c:42   UCX  WARN  object 0xb4459c0 was not returned to mpool ucp_requests
[1715535691.426267] [nc31011:2876663:0]          mpool.c:42   UCX  WARN  object 0xb445b80 was not returned to mpool ucp_requests
[1715535691.426269] [nc31011:2876663:0]          mpool.c:42   UCX  WARN  object 0xb445d40 was not returned to mpool ucp_requests
[1715535691.426272] [nc31011:2876663:0]          mpool.c:42   UCX  WARN  object 0xb445f00 was not returned to mpool ucp_requests
[1715535691.426275] [nc31011:2876663:0]          mpool.c:42   UCX  WARN  object 0xb4460c0 was not returned to mpool ucp_requests
[1715535691.426277] [nc31011:2876663:0]          mpool.c:42   UCX  WARN  object 0xb446280 was not returned to mpool ucp_requests
[1715535691.426280] [nc31011:2876663:0]          mpool.c:42   UCX  WARN  object 0xb446440 was not returned to mpool ucp_requests
[1715535691.426282] [nc31011:2876663:0]          mpool.c:42   UCX  WARN  object 0xb446600 was not returned to mpool ucp_requests
[1715535691.426285] [nc31011:2876663:0]          mpool.c:42   UCX  WARN  object 0xb4467c0 was not returned to mpool ucp_requests
[1715535691.426287] [nc31011:2876663:0]          mpool.c:42   UCX  WARN  object 0xb446980 was not returned to mpool ucp_requests
[1715535691.426290] [nc31011:2876663:0]          mpool.c:42   UCX  WARN  object 0xb446b40 was not returned to mpool ucp_requests
[1715535691.426604] [nc31011:2876665:0]          mpool.c:42   UCX  WARN  object 0xbfe9000 was not returned to mpool ucp_requests
[1715535691.426621] [nc31011:2876665:0]          mpool.c:42   UCX  WARN  object 0xbfe91c0 was not returned to mpool ucp_requests
[1715535691.426626] [nc31011:2876665:0]          mpool.c:42   UCX  WARN  object 0xbfe9380 was not returned to mpool ucp_requests
[1715535691.426629] [nc31011:2876665:0]          mpool.c:42   UCX  WARN  object 0xbfe9540 was not returned to mpool ucp_requests
[1715535691.426632] [nc31011:2876665:0]          mpool.c:42   UCX  WARN  object 0xbfe9700 was not returned to mpool ucp_requests
[1715535691.426635] [nc31011:2876665:0]          mpool.c:42   UCX  WARN  object 0xbfe98c0 was not returned to mpool ucp_requests
[1715535691.426638] [nc31011:2876665:0]          mpool.c:42   UCX  WARN  object 0xbfe9a80 was not returned to mpool ucp_requests
[1715535691.426641] [nc31011:2876665:0]          mpool.c:42   UCX  WARN  object 0xbfe9c40 was not returned to mpool ucp_requests
[1715535691.426644] [nc31011:2876665:0]          mpool.c:42   UCX  WARN  object 0xbfe9e00 was not returned to mpool ucp_requests
[1715535691.426647] [nc31011:2876665:0]          mpool.c:42   UCX  WARN  object 0xbfe9fc0 was not returned to mpool ucp_requests
[1715535691.426649] [nc31011:2876665:0]          mpool.c:42   UCX  WARN  object 0xbfea180 was not returned to mpool ucp_requests
[1715535691.426814] [nc31011:2876679:0]          mpool.c:42   UCX  WARN  object 0xb2bc4c0 was not returned to mpool ucp_requests
[1715535691.426827] [nc31011:2876679:0]          mpool.c:42   UCX  WARN  object 0xb2bc680 was not returned to mpool ucp_requests
[1715535691.426833] [nc31011:2876679:0]          mpool.c:42   UCX  WARN  object 0xb2bc840 was not returned to mpool ucp_requests
[1715535691.426837] [nc31011:2876679:0]          mpool.c:42   UCX  WARN  object 0xb2bca00 was not returned to mpool ucp_requests
[1715535691.426841] [nc31011:2876679:0]          mpool.c:42   UCX  WARN  object 0xb2bcbc0 was not returned to mpool ucp_requests
[1715535691.426844] [nc31011:2876679:0]          mpool.c:42   UCX  WARN  object 0xb2bcd80 was not returned to mpool ucp_requests
[1715535691.426848] [nc31011:2876679:0]          mpool.c:42   UCX  WARN  object 0xb2bcf40 was not returned to mpool ucp_requests
[1715535691.426852] [nc31011:2876679:0]          mpool.c:42   UCX  WARN  object 0xb2bd100 was not returned to mpool ucp_requests
[1715535691.426856] [nc31011:2876679:0]          mpool.c:42   UCX  WARN  object 0xb2bd2c0 was not returned to mpool ucp_requests
[1715535691.426859] [nc31011:2876679:0]          mpool.c:42   UCX  WARN  object 0xb2bd480 was not returned to mpool ucp_requests
[1715535691.426862] [nc31011:2876679:0]          mpool.c:42   UCX  WARN  object 0xb2bd640 was not returned to mpool ucp_requests
[1715535691.427462] [nc31011:2876668:0]          mpool.c:42   UCX  WARN  object 0xb191700 was not returned to mpool ucp_requests
[1715535691.427491] [nc31011:2876668:0]          mpool.c:42   UCX  WARN  object 0xb1918c0 was not returned to mpool ucp_requests
[1715535691.427498] [nc31011:2876668:0]          mpool.c:42   UCX  WARN  object 0xb191a80 was not returned to mpool ucp_requests
[1715535691.427503] [nc31011:2876668:0]          mpool.c:42   UCX  WARN  object 0xb191c40 was not returned to mpool ucp_requests
[1715535691.427506] [nc31011:2876668:0]          mpool.c:42   UCX  WARN  object 0xb191e00 was not returned to mpool ucp_requests
[1715535691.427510] [nc31011:2876668:0]          mpool.c:42   UCX  WARN  object 0xb191fc0 was not returned to mpool ucp_requests
[1715535691.427513] [nc31011:2876668:0]          mpool.c:42   UCX  WARN  object 0xb192180 was not returned to mpool ucp_requests
[1715535691.427517] [nc31011:2876668:0]          mpool.c:42   UCX  WARN  object 0xb192340 was not returned to mpool ucp_requests
[1715535691.427520] [nc31011:2876668:0]          mpool.c:42   UCX  WARN  object 0xb192500 was not returned to mpool ucp_requests
[1715535691.427524] [nc31011:2876668:0]          mpool.c:42   UCX  WARN  object 0xb1926c0 was not returned to mpool ucp_requests
[1715535691.427527] [nc31011:2876668:0]          mpool.c:42   UCX  WARN  object 0xb192880 was not returned to mpool ucp_requests
[1715535691.427483] [nc31011:2876675:0]          mpool.c:42   UCX  WARN  object 0xab70480 was not returned to mpool ucp_requests
[1715535691.427495] [nc31011:2876675:0]          mpool.c:42   UCX  WARN  object 0xab70640 was not returned to mpool ucp_requests
[1715535691.427498] [nc31011:2876675:0]          mpool.c:42   UCX  WARN  object 0xab70800 was not returned to mpool ucp_requests
[1715535691.427501] [nc31011:2876675:0]          mpool.c:42   UCX  WARN  object 0xab709c0 was not returned to mpool ucp_requests
[1715535691.427503] [nc31011:2876675:0]          mpool.c:42   UCX  WARN  object 0xab70b80 was not returned to mpool ucp_requests
[1715535691.427506] [nc31011:2876675:0]          mpool.c:42   UCX  WARN  object 0xab70d40 was not returned to mpool ucp_requests
[1715535691.427508] [nc31011:2876675:0]          mpool.c:42   UCX  WARN  object 0xab70f00 was not returned to mpool ucp_requests
[1715535691.427511] [nc31011:2876675:0]          mpool.c:42   UCX  WARN  object 0xab710c0 was not returned to mpool ucp_requests
[1715535691.427513] [nc31011:2876675:0]          mpool.c:42   UCX  WARN  object 0xab71280 was not returned to mpool ucp_requests
[1715535691.427516] [nc31011:2876675:0]          mpool.c:42   UCX  WARN  object 0xab71440 was not returned to mpool ucp_requests
[1715535691.427518] [nc31011:2876675:0]          mpool.c:42   UCX  WARN  object 0xab71600 was not returned to mpool ucp_requests


           ************************************************************
           *        Program running with 16 parallel MPI-processes    *
           *              working on a common directory               *
           ************************************************************
-------------------------------------------------------------------------------
                                 ORCA SCF
-------------------------------------------------------------------------------

------------
SCF SETTINGS
------------
Hamiltonian:
 Ab initio Hamiltonian  Method          .... Hartree-Fock(GTOs)


General Settings:
 Integral files         IntName         .... 2,3-dihydro-1,2-thiazole-1-oxide
 Hartree-Fock type      HFTyp           .... RHF
 Total Charge           Charge          ....    0
 Multiplicity           Mult            ....    1
 Number of Electrons    NEL             ....   54
 Basis Dimension        Dim             ....  714
 Nuclear Repulsion      ENuc            ....    307.4952172922 Eh

Convergence Acceleration:
 DIIS                   CNVDIIS         .... on
   Start iteration      DIISMaxIt       ....    12
   Startup error        DIISStart       ....  0.200000
   # of expansion vecs  DIISMaxEq       ....     5
   Bias factor          DIISBfac        ....   1.050
   Max. coefficient     DIISMaxC        ....  10.000
 Trust-Rad. Augm. Hess. CNVTRAH         .... auto
   Auto Start mean grad. ratio tolernc. ....  1.125000
   Auto Start start iteration           ....    20
   Auto Start num. interpolation iter.  ....    10
   Max. Number of Micro iterations      ....    16
   Max. Number of Macro iterations      .... Maxiter - #DIIS iter
   Number of Davidson start vectors     ....     2
   Converg. threshold I  (grad. norm)   ....   1.000e-05
   Converg. threshold II (energy diff.) ....   1.000e-08
   Grad. Scal. Fac. for Micro threshold ....   0.100
   Minimum threshold for Micro iter.    ....   0.010
   NR start threshold (gradient norm)   ....   0.001
   Initial trust radius                 ....   0.400
   Minimum AH scaling param. (alpha)    ....   1.000
   Maximum AH scaling param. (alpha)    .... 1000.000
   Orbital update algorithm             .... Taylor
   White noise on init. David. guess    .... on
   Maximum white noise                  ....   0.010
   Quad. conv. algorithm                .... NR
 SOSCF                  CNVSOSCF        .... on
   Start iteration      SOSCFMaxIt      ....   150
   Startup grad/error   SOSCFStart      ....  0.003300
 Level Shifting         CNVShift        .... on
   Level shift para.    LevelShift      ....    0.2500
   Turn off err/grad.   ShiftErr        ....    0.0010
 Zerner damping         CNVZerner       .... off
 Static damping         CNVDamp         .... on
   Fraction old density DampFac         ....    0.7000
   Max. Damping (<1)    DampMax         ....    0.9800
   Min. Damping (>=0)   DampMin         ....    0.0000
   Turn off err/grad.   DampErr         ....    0.1000
 Fernandez-Rico         CNVRico         .... off

SCF Procedure:
 Maximum # iterations   MaxIter         ....   125
 SCF integral mode      SCFMode         .... Direct
   Integral package                     .... SHARK and LIBINT hybrid scheme
 Reset frequency        DirectResetFreq ....    20
 Integral Threshold     Thresh          ....  2.500e-11 Eh
 Primitive CutOff       TCut            ....  2.500e-12 Eh

Convergence Tolerance:
 Convergence Check Mode ConvCheckMode   .... Total+1el-Energy
 Convergence forced     ConvForced      .... 1
 Energy Change          TolE            ....  1.000e-08 Eh
 1-El. energy change                    ....  1.000e-05 Eh
 Orbital Gradient       TolG            ....  1.000e-05
 Orbital Rotation angle TolX            ....  1.000e-05
 DIIS Error             TolErr          ....  5.000e-07


Diagonalization of the overlap matrix:
Smallest eigenvalue                        ... 1.786e-06
Time for diagonalization                   ...    0.105 sec
Threshold for overlap eigenvalues          ... 1.000e-08
Number of eigenvalues below threshold      ... 0
Time for construction of square roots      ...    0.093 sec
Total time needed                          ...    0.200 sec

Time for model grid setup =    0.161 sec

------------------------------
INITIAL GUESS: MODEL POTENTIAL
------------------------------
Loading Hartree-Fock densities                     ... done
Calculating cut-offs                               ... done
Initializing the effective Hamiltonian             ... done
Setting up the integral package (SHARK)            ... done
Starting the Coulomb interaction                   ... done (   0.5 sec)
Reading the grid                                   ... done
Mapping shells                                     ... done
Starting the XC term evaluation                    ... done (   0.1 sec)
Transforming the Hamiltonian                       ... done (   0.2 sec)
Diagonalizing the Hamiltonian                      ... done (   0.1 sec)
Back transforming the eigenvectors                 ... done (   0.0 sec)
Now organizing SCF variables                       ... done
                      ------------------
                      INITIAL GUESS DONE (   1.1 sec)
                      ------------------
--------------
SCF ITERATIONS
--------------
ITER       Energy         Delta-E        Max-DP      RMS-DP      [F,P]     Damp
               ***  Starting incremental Fock matrix formation  ***
  0   -643.0678774051   0.000000000000 0.10545013  0.00062993  0.3981850 0.7000
  1   -643.1928555015  -0.124978096358 0.08021258  0.00046782  0.2274066 0.7000
                               ***Turning on DIIS***
  2   -643.2630351124  -0.070179610970 0.05964070  0.00032793  0.1208810 0.7000
  3   -643.7970656070  -0.534030494536 0.15578972  0.00079939  0.0683258 0.0000
  4   -643.3826129113   0.414452695722 0.01013791  0.00006767  0.0087888 0.0000
  5   -643.4077545310  -0.025141619739 0.00255440  0.00003493  0.0033561 0.0000
                      *** Initiating the SOSCF procedure ***
                           *** Shutting down DIIS ***
                      *** Re-Reading the Fockian *** 
                      *** Removing any level shift *** 
ITER      Energy       Delta-E        Grad      Rot      Max-DP    RMS-DP
  6   -643.39938373   0.0083707963  0.000917  0.000917  0.001541  0.000017
               *** Restarting incremental Fock matrix formation ***
  7   -643.40878343  -0.0093996995  0.000457  0.000848  0.000913  0.000008
  8   -643.40879917  -0.0000157316  0.000197  0.000840  0.000826  0.000008
  9   -643.40880485  -0.0000056801  0.000055  0.000116  0.000154  0.000002
 10   -643.40880532  -0.0000004774  0.000022  0.000046  0.000087  0.000001
 11   -643.40880539  -0.0000000647  0.000006  0.000023  0.000027  0.000000
 12   -643.40880540  -0.0000000142  0.000003  0.000007  0.000016  0.000000
                 **** Energy Check signals convergence ****
              ***Rediagonalizing the Fockian in SOSCF/NRSCF***

               *****************************************************
               *                     SUCCESS                       *
               *           SCF CONVERGED AFTER  13 CYCLES          *
               *****************************************************


----------------
TOTAL SCF ENERGY
----------------

Total Energy       :         -643.40880540 Eh          -17508.04369 eV

Components:
Nuclear Repulsion  :          307.49521729 Eh            8367.37025 eV
Electronic Energy  :         -950.90402269 Eh          -25875.41394 eV
One Electron Energy:        -1494.61185301 Eh          -40670.45617 eV
Two Electron Energy:          543.70783032 Eh           14795.04223 eV

Virial components:
Potential Energy   :        -1286.30073486 Eh          -35002.02246 eV
Kinetic Energy     :          642.89192946 Eh           17493.97878 eV
Virial Ratio       :            2.00080399


---------------
SCF CONVERGENCE
---------------

  Last Energy change         ...    3.5494e-09  Tolerance :   1.0000e-08
  Last MAX-Density change    ...    1.7451e-05  Tolerance :   1.0000e-07
  Last RMS-Density change    ...    1.4915e-07  Tolerance :   5.0000e-09
  Last Orbital Gradient      ...    1.1779e-06  Tolerance :   1.0000e-05
  Last Orbital Rotation      ...    3.6258e-06  Tolerance :   1.0000e-05

             **** THE GBW FILE WAS UPDATED (2,3-dihydro-1,2-thiazole-1-oxide.gbw) ****
             **** DENSITY 2,3-dihydro-1,2-thiazole-1-oxide.scfp WAS UPDATED ****
             **** ENERGY FILE WAS UPDATED (2,3-dihydro-1,2-thiazole-1-oxide.en.tmp) ****
             **** THE GBW FILE WAS UPDATED (2,3-dihydro-1,2-thiazole-1-oxide.gbw) ****
             **** DENSITY 2,3-dihydro-1,2-thiazole-1-oxide.scfp WAS UPDATED ****
----------------
ORBITAL ENERGIES
----------------

  NO   OCC          E(Eh)            E(eV) 
   0   2.0000     -92.093978     -2506.0045 
   1   2.0000     -20.511465      -558.1453 
   2   2.0000     -15.588377      -424.1813 
   3   2.0000     -11.288388      -307.1727 
   4   2.0000     -11.272416      -306.7380 
   5   2.0000     -11.266728      -306.5832 
   6   2.0000      -9.076030      -246.9713 
   7   2.0000      -6.758220      -183.9005 
   8   2.0000      -6.757601      -183.8837 
   9   2.0000      -6.756159      -183.8444 
  10   2.0000      -1.350963       -36.7616 
  11   2.0000      -1.236807       -33.6552 
  12   2.0000      -1.080287       -29.3961 
  13   2.0000      -0.991679       -26.9850 
  14   2.0000      -0.845538       -23.0082 
  15   2.0000      -0.782589       -21.2953 
  16   2.0000      -0.724920       -19.7261 
  17   2.0000      -0.656774       -17.8717 
  18   2.0000      -0.613712       -16.7000 
  19   2.0000      -0.600545       -16.3417 
  20   2.0000      -0.588225       -16.0064 
  21   2.0000      -0.557441       -15.1688 
  22   2.0000      -0.549271       -14.9464 
  23   2.0000      -0.460093       -12.5198 
  24   2.0000      -0.410041       -11.1578 
  25   2.0000      -0.398353       -10.8397 
  26   2.0000      -0.381497       -10.3811 
  27   0.0000       0.020101         0.5470 
  28   0.0000       0.029388         0.7997 
  29   0.0000       0.034513         0.9392 
  30   0.0000       0.038395         1.0448 
  31   0.0000       0.048212         1.3119 
  32   0.0000       0.065029         1.7695 
  33   0.0000       0.075732         2.0608 
  34   0.0000       0.079759         2.1703 
  35   0.0000       0.083898         2.2830 
  36   0.0000       0.093452         2.5430 
  37   0.0000       0.098195         2.6720 
  38   0.0000       0.100450         2.7334 
  39   0.0000       0.103803         2.8246 
  40   0.0000       0.108351         2.9484 
  41   0.0000       0.115861         3.1527 
  42   0.0000       0.123264         3.3542 
  43   0.0000       0.126966         3.4549 
  44   0.0000       0.129502         3.5239 
  45   0.0000       0.130491         3.5508 
  46   0.0000       0.139520         3.7965 
  47   0.0000       0.145707         3.9649 
  48   0.0000       0.163609         4.4520 
  49   0.0000       0.169399         4.6096 
  50   0.0000       0.175447         4.7742 
  51   0.0000       0.180552         4.9131 
  52   0.0000       0.185648         5.0517 
  53   0.0000       0.201327         5.4784 
  54   0.0000       0.208306         5.6683 
  55   0.0000       0.222328         6.0499 
  56   0.0000       0.225157         6.1268 
  57   0.0000       0.232976         6.3396 
  58   0.0000       0.234975         6.3940 
  59   0.0000       0.245812         6.6889 
  60   0.0000       0.247934         6.7466 
  61   0.0000       0.251781         6.8513 
  62   0.0000       0.254219         6.9176 
  63   0.0000       0.259165         7.0523 
  64   0.0000       0.263258         7.1636 
  65   0.0000       0.277720         7.5572 
  66   0.0000       0.286128         7.7859 
  67   0.0000       0.291391         7.9292 
  68   0.0000       0.294557         8.0153 
  69   0.0000       0.297787         8.1032 
  70   0.0000       0.301931         8.2160 
  71   0.0000       0.309474         8.4212 
  72   0.0000       0.312899         8.5144 
  73   0.0000       0.321432         8.7466 
  74   0.0000       0.323690         8.8080 
  75   0.0000       0.327486         8.9113 
  76   0.0000       0.336664         9.1611 
  77   0.0000       0.340627         9.2689 
  78   0.0000       0.347026         9.4431 
  79   0.0000       0.354815         9.6550 
  80   0.0000       0.364342         9.9142 
  81   0.0000       0.369289        10.0489 
  82   0.0000       0.375088        10.2067 
  83   0.0000       0.378438        10.2978 
  84   0.0000       0.386512        10.5175 
  85   0.0000       0.389021        10.5858 
  86   0.0000       0.395008        10.7487 
  87   0.0000       0.398765        10.8510 
  88   0.0000       0.400075        10.8866 
  89   0.0000       0.406919        11.0728 
  90   0.0000       0.415933        11.3181 
  91   0.0000       0.422326        11.4921 
  92   0.0000       0.425882        11.5888 
  93   0.0000       0.435946        11.8627 
  94   0.0000       0.444750        12.1023 
  95   0.0000       0.455443        12.3932 
  96   0.0000       0.463597        12.6151 
  97   0.0000       0.474999        12.9254 
  98   0.0000       0.479588        13.0502 
  99   0.0000       0.484520        13.1845 
 100   0.0000       0.498190        13.5564 
 101   0.0000       0.500600        13.6220 
 102   0.0000       0.506251        13.7758 
 103   0.0000       0.507591        13.8123 
 104   0.0000       0.525890        14.3102 
 105   0.0000       0.532674        14.4948 
 106   0.0000       0.543716        14.7953 
 107   0.0000       0.554463        15.0877 
 108   0.0000       0.560193        15.2436 
 109   0.0000       0.560886        15.2625 
 110   0.0000       0.578960        15.7543 
 111   0.0000       0.581277        15.8174 
 112   0.0000       0.595616        16.2075 
 113   0.0000       0.603259        16.4155 
 114   0.0000       0.614970        16.7342 
 115   0.0000       0.630784        17.1645 
 116   0.0000       0.637524        17.3479 
 117   0.0000       0.642973        17.4962 
 118   0.0000       0.649087        17.6625 
 119   0.0000       0.654760        17.8169 
 120   0.0000       0.661848        18.0098 
 121   0.0000       0.668884        18.2013 
 122   0.0000       0.680770        18.5247 
 123   0.0000       0.683839        18.6082 
 124   0.0000       0.696858        18.9625 
 125   0.0000       0.700969        19.0743 
 126   0.0000       0.709864        19.3164 
 127   0.0000       0.714466        19.4416 
 128   0.0000       0.719365        19.5749 
 129   0.0000       0.732077        19.9208 
 130   0.0000       0.735655        20.0182 
 131   0.0000       0.744145        20.2492 
 132   0.0000       0.747970        20.3533 
 133   0.0000       0.758512        20.6402 
 134   0.0000       0.767699        20.8902 
 135   0.0000       0.771378        20.9903 
 136   0.0000       0.779030        21.1985 
 137   0.0000       0.786273        21.3956 
 138   0.0000       0.788042        21.4437 
 139   0.0000       0.793865        21.6022 
 140   0.0000       0.802363        21.8334 
 141   0.0000       0.805768        21.9261 
 142   0.0000       0.812361        22.1055 
 143   0.0000       0.814565        22.1654 
 144   0.0000       0.821628        22.3576 
 145   0.0000       0.831772        22.6337 
 146   0.0000       0.836210        22.7544 
 147   0.0000       0.845092        22.9961 
 148   0.0000       0.856788        23.3144 
 149   0.0000       0.860554        23.4169 
 150   0.0000       0.878685        23.9102 
 151   0.0000       0.881850        23.9963 
 152   0.0000       0.891973        24.2718 
 153   0.0000       0.894174        24.3317 
 154   0.0000       0.900102        24.4930 
 155   0.0000       0.904277        24.6066 
 156   0.0000       0.915705        24.9176 
 157   0.0000       0.923574        25.1317 
 158   0.0000       0.929512        25.2933 
 159   0.0000       0.937887        25.5212 
 160   0.0000       0.950562        25.8661 
 161   0.0000       0.951780        25.8993 
 162   0.0000       0.960778        26.1441 
 163   0.0000       0.969589        26.3839 
 164   0.0000       0.973906        26.5013 
 165   0.0000       0.978728        26.6325 
 166   0.0000       0.991048        26.9678 
 167   0.0000       1.008592        27.4452 
 168   0.0000       1.012958        27.5640 
 169   0.0000       1.016192        27.6520 
 170   0.0000       1.032527        28.0965 
 171   0.0000       1.034753        28.1571 
 172   0.0000       1.050456        28.5844 
 173   0.0000       1.052023        28.6270 
 174   0.0000       1.072033        29.1715 
 175   0.0000       1.073969        29.2242 
 176   0.0000       1.085297        29.5324 
 177   0.0000       1.089503        29.6469 
 178   0.0000       1.120402        30.4877 
 179   0.0000       1.125069        30.6147 
 180   0.0000       1.134701        30.8768 
 181   0.0000       1.152391        31.3581 
 182   0.0000       1.160209        31.5709 
 183   0.0000       1.171623        31.8815 
 184   0.0000       1.178686        32.0737 
 185   0.0000       1.186465        32.2854 
 186   0.0000       1.198413        32.6105 
 187   0.0000       1.205425        32.8013 
 188   0.0000       1.216223        33.0951 
 189   0.0000       1.225703        33.3531 
 190   0.0000       1.230513        33.4840 
 191   0.0000       1.234378        33.5891 
 192   0.0000       1.246152        33.9095 
 193   0.0000       1.256994        34.2045 
 194   0.0000       1.265251        34.4292 
 195   0.0000       1.272631        34.6300 
 196   0.0000       1.281090        34.8602 
 197   0.0000       1.297599        35.3095 
 198   0.0000       1.314328        35.7647 
 199   0.0000       1.330591        36.2072 
 200   0.0000       1.341792        36.5120 
 201   0.0000       1.352915        36.8147 
 202   0.0000       1.361661        37.0527 
 203   0.0000       1.370334        37.2887 
 204   0.0000       1.381163        37.5833 
 205   0.0000       1.392742        37.8984 
 206   0.0000       1.413263        38.4569 
 207   0.0000       1.420565        38.6555 
 208   0.0000       1.436303        39.0838 
 209   0.0000       1.458528        39.6886 
 210   0.0000       1.465155        39.8689 
 211   0.0000       1.484974        40.4082 
 212   0.0000       1.491125        40.5756 
 213   0.0000       1.502362        40.8813 
 214   0.0000       1.511538        41.1310 
 215   0.0000       1.520749        41.3817 
 216   0.0000       1.529719        41.6258 
 217   0.0000       1.539155        41.8825 
 218   0.0000       1.544211        42.0201 
 219   0.0000       1.544947        42.0401 
 220   0.0000       1.548145        42.1272 
 221   0.0000       1.564825        42.5811 
 222   0.0000       1.590381        43.2765 
 223   0.0000       1.594912        43.3998 
 224   0.0000       1.595806        43.4241 
 225   0.0000       1.609363        43.7930 
 226   0.0000       1.627301        44.2811 
 227   0.0000       1.636307        44.5262 
 228   0.0000       1.649006        44.8717 
 229   0.0000       1.657515        45.1033 
 230   0.0000       1.661546        45.2130 
 231   0.0000       1.667039        45.3624 
 232   0.0000       1.675923        45.6042 
 233   0.0000       1.694700        46.1151 
 234   0.0000       1.698501        46.2186 
 235   0.0000       1.712711        46.6052 
 236   0.0000       1.725367        46.9496 
 237   0.0000       1.736408        47.2501 
 238   0.0000       1.749835        47.6154 
 239   0.0000       1.757552        47.8254 
 240   0.0000       1.781457        48.4759 
 241   0.0000       1.785272        48.5797 
 242   0.0000       1.788447        48.6661 
 243   0.0000       1.791310        48.7440 
 244   0.0000       1.810365        49.2625 
 245   0.0000       1.825106        49.6636 
 246   0.0000       1.832089        49.8537 
 247   0.0000       1.843891        50.1748 
 248   0.0000       1.853867        50.4463 
 249   0.0000       1.859841        50.6088 
 250   0.0000       1.876249        51.0553 
 251   0.0000       1.886174        51.3254 
 252   0.0000       1.891153        51.4609 
 253   0.0000       1.901130        51.7324 
 254   0.0000       1.915491        52.1232 
 255   0.0000       1.928348        52.4730 
 256   0.0000       1.929468        52.5035 
 257   0.0000       1.943608        52.8883 
 258   0.0000       1.945087        52.9285 
 259   0.0000       1.965079        53.4725 
 260   0.0000       1.974932        53.7406 
 261   0.0000       1.985486        54.0278 
 262   0.0000       2.003384        54.5149 
 263   0.0000       2.008290        54.6483 
 264   0.0000       2.018098        54.9152 
 265   0.0000       2.022993        55.0484 
 266   0.0000       2.038484        55.4700 
 267   0.0000       2.055222        55.9254 
 268   0.0000       2.058636        56.0183 
 269   0.0000       2.065061        56.1932 
 270   0.0000       2.071179        56.3596 
 271   0.0000       2.072585        56.3979 
 272   0.0000       2.093921        56.9785 
 273   0.0000       2.103048        57.2268 
 274   0.0000       2.107717        57.3539 
 275   0.0000       2.115758        57.5727 
 276   0.0000       2.122344        57.7519 
 277   0.0000       2.133846        58.0649 
 278   0.0000       2.144970        58.3676 
 279   0.0000       2.148395        58.4608 
 280   0.0000       2.162166        58.8355 
 281   0.0000       2.168439        59.0062 
 282   0.0000       2.172985        59.1299 
 283   0.0000       2.190893        59.6172 
 284   0.0000       2.196005        59.7563 
 285   0.0000       2.201306        59.9006 
 286   0.0000       2.208978        60.1094 
 287   0.0000       2.218240        60.3614 
 288   0.0000       2.223993        60.5179 
 289   0.0000       2.245108        61.0925 
 290   0.0000       2.261764        61.5457 
 291   0.0000       2.268747        61.7358 
 292   0.0000       2.269569        61.7581 
 293   0.0000       2.286319        62.2139 
 294   0.0000       2.294651        62.4406 
 295   0.0000       2.305195        62.7275 
 296   0.0000       2.308376        62.8141 
 297   0.0000       2.317928        63.0740 
 298   0.0000       2.330399        63.4134 
 299   0.0000       2.340648        63.6923 
 300   0.0000       2.343794        63.7779 
 301   0.0000       2.350344        63.9561 
 302   0.0000       2.367368        64.4194 
 303   0.0000       2.384255        64.8789 
 304   0.0000       2.385160        64.9035 
 305   0.0000       2.398705        65.2721 
 306   0.0000       2.412298        65.6420 
 307   0.0000       2.418957        65.8232 
 308   0.0000       2.433125        66.2087 
 309   0.0000       2.440299        66.4039 
 310   0.0000       2.455441        66.8159 
 311   0.0000       2.473148        67.2978 
 312   0.0000       2.475010        67.3485 
 313   0.0000       2.485965        67.6465 
 314   0.0000       2.494017        67.8657 
 315   0.0000       2.513113        68.3853 
 316   0.0000       2.519765        68.5663 
 317   0.0000       2.526615        68.7527 
 318   0.0000       2.531323        68.8808 
 319   0.0000       2.547509        69.3212 
 320   0.0000       2.565469        69.8100 
 321   0.0000       2.577961        70.1499 
 322   0.0000       2.585333        70.3505 
 323   0.0000       2.606839        70.9357 
 324   0.0000       2.619480        71.2797 
 325   0.0000       2.635135        71.7057 
 326   0.0000       2.639321        71.8196 
 327   0.0000       2.648038        72.0568 
 328   0.0000       2.665644        72.5359 
 329   0.0000       2.684705        73.0545 
 330   0.0000       2.705094        73.6093 
 331   0.0000       2.718719        73.9801 
 332   0.0000       2.732287        74.3493 
 333   0.0000       2.735963        74.4493 
 334   0.0000       2.755862        74.9908 
 335   0.0000       2.766188        75.2718 
 336   0.0000       2.789217        75.8985 
 337   0.0000       2.798446        76.1496 
 338   0.0000       2.807101        76.3851 
 339   0.0000       2.826685        76.9180 
 340   0.0000       2.839121        77.2564 
 341   0.0000       2.841703        77.3267 
 342   0.0000       2.866052        77.9892 
 343   0.0000       2.875318        78.2414 
 344   0.0000       2.892909        78.7201 
 345   0.0000       2.912681        79.2581 
 346   0.0000       2.926302        79.6287 
 347   0.0000       2.935020        79.8660 
 348   0.0000       2.950812        80.2957 
 349   0.0000       2.970664        80.8359 
 350   0.0000       2.976330        80.9901 
 351   0.0000       2.988314        81.3162 
 352   0.0000       3.011012        81.9338 
 353   0.0000       3.038255        82.6751 
 354   0.0000       3.042677        82.7955 
 355   0.0000       3.054778        83.1247 
 356   0.0000       3.076301        83.7104 
 357   0.0000       3.087321        84.0103 
 358   0.0000       3.111509        84.6685 
 359   0.0000       3.144558        85.5678 
 360   0.0000       3.150666        85.7340 
 361   0.0000       3.160569        86.0034 
 362   0.0000       3.182545        86.6015 
 363   0.0000       3.198402        87.0330 
 364   0.0000       3.214478        87.4704 
 365   0.0000       3.221752        87.6683 
 366   0.0000       3.236823        88.0784 
 367   0.0000       3.248229        88.3888 
 368   0.0000       3.254711        88.5652 
 369   0.0000       3.278851        89.2221 
 370   0.0000       3.290449        89.5377 
 371   0.0000       3.311533        90.1114 
 372   0.0000       3.330431        90.6256 
 373   0.0000       3.341791        90.9348 
 374   0.0000       3.368928        91.6732 
 375   0.0000       3.380233        91.9808 
 376   0.0000       3.400073        92.5207 
 377   0.0000       3.410463        92.8034 
 378   0.0000       3.432982        93.4162 
 379   0.0000       3.446961        93.7966 
 380   0.0000       3.459145        94.1281 
 381   0.0000       3.499233        95.2190 
 382   0.0000       3.514083        95.6231 
 383   0.0000       3.535071        96.1942 
 384   0.0000       3.564054        96.9829 
 385   0.0000       3.575534        97.2952 
 386   0.0000       3.595520        97.8391 
 387   0.0000       3.608476        98.1916 
 388   0.0000       3.624937        98.6395 
 389   0.0000       3.647586        99.2559 
 390   0.0000       3.651905        99.3734 
 391   0.0000       3.678406       100.0945 
 392   0.0000       3.698096       100.6303 
 393   0.0000       3.719362       101.2090 
 394   0.0000       3.738903       101.7407 
 395   0.0000       3.756359       102.2157 
 396   0.0000       3.759177       102.2924 
 397   0.0000       3.789315       103.1125 
 398   0.0000       3.809907       103.6728 
 399   0.0000       3.819643       103.9378 
 400   0.0000       3.827846       104.1610 
 401   0.0000       3.844517       104.6146 
 402   0.0000       3.852092       104.8207 
 403   0.0000       3.860887       105.0601 
 404   0.0000       3.878377       105.5360 
 405   0.0000       3.887445       105.7827 
 406   0.0000       3.908217       106.3480 
 407   0.0000       3.928490       106.8996 
 408   0.0000       3.935661       107.0948 
 409   0.0000       3.944031       107.3225 
 410   0.0000       3.966681       107.9389 
 411   0.0000       3.975058       108.1668 
 412   0.0000       3.988257       108.5260 
 413   0.0000       3.997408       108.7750 
 414   0.0000       4.014041       109.2276 
 415   0.0000       4.034937       109.7962 
 416   0.0000       4.042762       110.0092 
 417   0.0000       4.063013       110.5602 
 418   0.0000       4.080602       111.0388 
 419   0.0000       4.082434       111.0887 
 420   0.0000       4.101048       111.5952 
 421   0.0000       4.112339       111.9024 
 422   0.0000       4.127040       112.3025 
 423   0.0000       4.146890       112.8426 
 424   0.0000       4.152872       113.0054 
 425   0.0000       4.166223       113.3687 
 426   0.0000       4.183179       113.8301 
 427   0.0000       4.190958       114.0418 
 428   0.0000       4.205004       114.4240 
 429   0.0000       4.238385       115.3323 
 430   0.0000       4.253534       115.7445 
 431   0.0000       4.261250       115.9545 
 432   0.0000       4.281840       116.5148 
 433   0.0000       4.284479       116.5866 
 434   0.0000       4.306553       117.1873 
 435   0.0000       4.309998       117.2810 
 436   0.0000       4.325965       117.7155 
 437   0.0000       4.342664       118.1699 
 438   0.0000       4.344729       118.2261 
 439   0.0000       4.366421       118.8164 
 440   0.0000       4.387327       119.3852 
 441   0.0000       4.400423       119.7416 
 442   0.0000       4.405472       119.8790 
 443   0.0000       4.421058       120.3031 
 444   0.0000       4.446009       120.9821 
 445   0.0000       4.449139       121.0672 
 446   0.0000       4.457945       121.3069 
 447   0.0000       4.490478       122.1921 
 448   0.0000       4.494466       122.3006 
 449   0.0000       4.521129       123.0262 
 450   0.0000       4.526846       123.1817 
 451   0.0000       4.542536       123.6087 
 452   0.0000       4.559769       124.0776 
 453   0.0000       4.588676       124.8642 
 454   0.0000       4.604655       125.2990 
 455   0.0000       4.622001       125.7710 
 456   0.0000       4.637328       126.1881 
 457   0.0000       4.647612       126.4679 
 458   0.0000       4.665661       126.9591 
 459   0.0000       4.689443       127.6062 
 460   0.0000       4.710326       128.1745 
 461   0.0000       4.712826       128.2425 
 462   0.0000       4.764147       129.6390 
 463   0.0000       4.774271       129.9145 
 464   0.0000       4.805866       130.7743 
 465   0.0000       4.818637       131.1218 
 466   0.0000       4.833953       131.5386 
 467   0.0000       4.846474       131.8793 
 468   0.0000       4.856890       132.1627 
 469   0.0000       4.886430       132.9665 
 470   0.0000       4.914907       133.7414 
 471   0.0000       4.944854       134.5563 
 472   0.0000       4.966983       135.1585 
 473   0.0000       4.992517       135.8533 
 474   0.0000       5.008577       136.2903 
 475   0.0000       5.017444       136.5316 
 476   0.0000       5.027876       136.8155 
 477   0.0000       5.033219       136.9609 
 478   0.0000       5.067394       137.8908 
 479   0.0000       5.090751       138.5264 
 480   0.0000       5.129917       139.5921 
 481   0.0000       5.144621       139.9923 
 482   0.0000       5.187019       141.1460 
 483   0.0000       5.204705       141.6272 
 484   0.0000       5.225515       142.1935 
 485   0.0000       5.251343       142.8963 
 486   0.0000       5.286042       143.8405 
 487   0.0000       5.299008       144.1933 
 488   0.0000       5.318283       144.7178 
 489   0.0000       5.386577       146.5762 
 490   0.0000       5.426676       147.6674 
 491   0.0000       5.446832       148.2158 
 492   0.0000       5.481702       149.1647 
 493   0.0000       5.493858       149.4955 
 494   0.0000       5.507498       149.8666 
 495   0.0000       5.526426       150.3817 
 496   0.0000       5.586481       152.0159 
 497   0.0000       5.598887       152.3535 
 498   0.0000       5.719381       155.6323 
 499   0.0000       5.734062       156.0318 
 500   0.0000       5.842453       158.9812 
 501   0.0000       5.962702       162.2534 
 502   0.0000       5.981460       162.7638 
 503   0.0000       6.025229       163.9548 
 504   0.0000       6.048567       164.5899 
 505   0.0000       6.077356       165.3733 
 506   0.0000       6.107611       166.1966 
 507   0.0000       6.149377       167.3330 
 508   0.0000       6.189876       168.4351 
 509   0.0000       6.217201       169.1786 
 510   0.0000       6.237353       169.7270 
 511   0.0000       6.291777       171.2079 
 512   0.0000       6.366120       173.2309 
 513   0.0000       6.405470       174.3017 
 514   0.0000       6.429351       174.9515 
 515   0.0000       6.511176       177.1781 
 516   0.0000       6.522417       177.4840 
 517   0.0000       6.542238       178.0233 
 518   0.0000       6.556430       178.4095 
 519   0.0000       6.579982       179.0504 
 520   0.0000       6.604936       179.7294 
 521   0.0000       6.618284       180.0927 
 522   0.0000       6.659732       181.2205 
 523   0.0000       6.662832       181.3049 
 524   0.0000       6.695285       182.1880 
 525   0.0000       6.716994       182.7787 
 526   0.0000       6.756972       183.8666 
 527   0.0000       6.779010       184.4662 
 528   0.0000       6.814278       185.4259 
 529   0.0000       6.821190       185.6140 
 530   0.0000       6.841898       186.1775 
 531   0.0000       6.850618       186.4148 
 532   0.0000       6.878992       187.1869 
 533   0.0000       6.899817       187.7536 
 534   0.0000       6.916965       188.2202 
 535   0.0000       6.932036       188.6303 
 536   0.0000       6.956805       189.3043 
 537   0.0000       6.981828       189.9852 
 538   0.0000       6.986777       190.1199 
 539   0.0000       7.018199       190.9749 
 540   0.0000       7.033142       191.3815 
 541   0.0000       7.033415       191.3889 
 542   0.0000       7.049971       191.8395 
 543   0.0000       7.086117       192.8231 
 544   0.0000       7.092385       192.9936 
 545   0.0000       7.126512       193.9222 
 546   0.0000       7.167995       195.0511 
 547   0.0000       7.183250       195.4662 
 548   0.0000       7.204140       196.0346 
 549   0.0000       7.232740       196.8129 
 550   0.0000       7.253393       197.3749 
 551   0.0000       7.261079       197.5840 
 552   0.0000       7.285555       198.2500 
 553   0.0000       7.324841       199.3190 
 554   0.0000       7.342127       199.7894 
 555   0.0000       7.365473       200.4247 
 556   0.0000       7.399078       201.3392 
 557   0.0000       7.428488       202.1394 
 558   0.0000       7.475054       203.4066 
 559   0.0000       7.508430       204.3148 
 560   0.0000       7.539447       205.1588 
 561   0.0000       7.553852       205.5508 
 562   0.0000       7.587167       206.4573 
 563   0.0000       7.660068       208.4411 
 564   0.0000       7.684191       209.0975 
 565   0.0000       7.697480       209.4591 
 566   0.0000       7.733070       210.4275 
 567   0.0000       7.755662       211.0423 
 568   0.0000       7.761079       211.1897 
 569   0.0000       7.779649       211.6950 
 570   0.0000       7.817381       212.7217 
 571   0.0000       7.851806       213.6585 
 572   0.0000       7.859823       213.8766 
 573   0.0000       7.899747       214.9630 
 574   0.0000       7.928899       215.7563 
 575   0.0000       7.961452       216.6421 
 576   0.0000       7.971445       216.9141 
 577   0.0000       8.039353       218.7619 
 578   0.0000       8.051646       219.0964 
 579   0.0000       8.104095       220.5236 
 580   0.0000       8.155656       221.9267 
 581   0.0000       8.162885       222.1234 
 582   0.0000       8.176586       222.4962 
 583   0.0000       8.199078       223.1083 
 584   0.0000       8.226115       223.8440 
 585   0.0000       8.273446       225.1319 
 586   0.0000       8.318593       226.3604 
 587   0.0000       8.347784       227.1548 
 588   0.0000       8.388288       228.2569 
 589   0.0000       8.435006       229.5282 
 590   0.0000       8.463383       230.3004 
 591   0.0000       8.528544       232.0735 
 592   0.0000       8.533153       232.1989 
 593   0.0000       8.570170       233.2062 
 594   0.0000       8.586189       233.6421 
 595   0.0000       8.617398       234.4913 
 596   0.0000       8.655843       235.5375 
 597   0.0000       8.662040       235.7061 
 598   0.0000       8.682801       236.2710 
 599   0.0000       8.707465       236.9422 
[...]
      f+3     :     0.000580
      f-3     :     0.000019
  7 H s       :     0.648784  s :     0.648784
      pz      :     0.022051  p :     0.061773
      px      :     0.016787
      py      :     0.022936
      dz2     :     0.001815  d :     0.013784
      dxz     :     0.006616
      dyz     :     0.002388
      dx2y2   :     0.002211
      dxy     :     0.000755
      f0      :     0.000135  f :     0.001602
      f+1     :     0.000686
      f-1     :     0.000107
      f+2     :     0.000366
      f-2     :     0.000109
      f+3     :     0.000106
      f-3     :     0.000093
  8 H s       :     0.624502  s :     0.624502
      pz      :     0.019678  p :     0.036805
      px      :     0.001645
      py      :     0.015482
      dz2     :     0.003872  d :     0.009766
      dxz     :     0.001210
      dyz     :     0.000727
      dx2y2   :     0.002933
      dxy     :     0.001024
      f0      :     0.000048  f :     0.001188
      f+1     :     0.000339
      f-1     :     0.000069
      f+2     :    -0.000160
      f-2     :     0.000043
      f+3     :     0.000796
      f-3     :     0.000053
  9 H s       :     0.506904  s :     0.506904
      pz      :     0.017037  p :     0.035423
      px      :     0.016092
      py      :     0.002294
      dz2     :     0.000803  d :     0.010453
      dxz     :     0.001119
      dyz     :     0.001610
      dx2y2   :     0.001696
      dxy     :     0.005225
      f0      :     0.000363  f :     0.001377
      f+1     :     0.000204
      f-1     :     0.000085
      f+2     :    -0.000058
      f-2     :     0.000175
      f+3     :     0.000431
      f-3     :     0.000178
 10 H s       :     0.669110  s :     0.669110
      pz      :     0.031005  p :     0.089205
      px      :     0.028275
      py      :     0.029925
      dz2     :     0.000921  d :     0.008015
      dxz     :     0.001869
      dyz     :     0.001435
      dx2y2   :     0.001902
      dxy     :     0.001889
      f0      :    -0.000301  f :    -0.003245
      f+1     :     0.000044
      f-1     :    -0.000750
      f+2     :    -0.000469
      f-2     :     0.000076
      f+3     :    -0.000677
      f-3     :    -0.001168


                     *******************************
                     * LOEWDIN POPULATION ANALYSIS *
                     *******************************

----------------------
LOEWDIN ATOMIC CHARGES
----------------------
   0 C :    0.277215
   1 C :    0.243047
   2 C :    0.155235
   3 N :    0.598978
   4 O :    0.050405
   5 S :    0.533351
   6 H :   -0.303351
   7 H :   -0.278369
   8 H :   -0.296759
   9 H :   -0.386463
  10 H :   -0.593289

-------------------------------
LOEWDIN REDUCED ORBITAL CHARGES
-------------------------------
  0 C s       :     2.418105  s :     2.418105
      pz      :     0.516599  p :     2.018932
      px      :     0.782536
      py      :     0.719798
      dz2     :     0.077786  d :     0.713942
      dxz     :     0.087342
      dyz     :     0.124063
      dx2y2   :     0.182497
      dxy     :     0.242254
      f0      :     0.039578  f :     0.445369
      f+1     :     0.036769
      f-1     :     0.034574
      f+2     :     0.080516
      f-2     :     0.038185
      f+3     :     0.136772
      f-3     :     0.078976
      g0      :     0.008249  g :     0.126437
      g+1     :     0.006950
      g-1     :     0.011109
      g+2     :     0.009718
      g-2     :     0.007616
      g+3     :     0.012000
      g-3     :     0.017566
      g+4     :     0.026397
      g-4     :     0.026832
  1 C s       :     2.366546  s :     2.366546
      pz      :     0.662841  p :     1.915358
      px      :     0.619407
      py      :     0.633109
      dz2     :     0.174493  d :     0.806000
      dxz     :     0.140446
      dyz     :     0.124547
      dx2y2   :     0.187126
      dxy     :     0.179389
      f0      :     0.049030  f :     0.514186
      f+1     :     0.071271
      f-1     :     0.049735
      f+2     :     0.072234
      f-2     :     0.059717
      f+3     :     0.129716
      f-3     :     0.082483
      g0      :     0.013998  g :     0.154862
      g+1     :     0.010662
      g-1     :     0.011913
      g+2     :     0.017091
      g-2     :     0.017282
      g+3     :     0.017989
      g-3     :     0.015054
      g+4     :     0.023697
      g-4     :     0.027177
  2 C s       :     2.462918  s :     2.462918
      pz      :     0.590547  p :     2.140988
      px      :     0.778980
      py      :     0.771461
      dz2     :     0.065759  d :     0.680896
      dxz     :     0.117470
      dyz     :     0.063799
      dx2y2   :     0.207105
      dxy     :     0.226763
      f0      :     0.042177  f :     0.442842
      f+1     :     0.038488
      f-1     :     0.029779
      f+2     :     0.043647
      f-2     :     0.073997
      f+3     :     0.107880
      f-3     :     0.106875
      g0      :     0.006152  g :     0.117120
      g+1     :     0.010584
      g-1     :     0.006744
      g+2     :     0.005867
      g-2     :     0.009236
      g+3     :     0.014115
      g-3     :     0.014511
      g+4     :     0.030365
      g-4     :     0.019546
  3 N s       :     2.596986  s :     2.596986
      pz      :     1.005185  p :     2.753337
      px      :     0.861337
      py      :     0.886815
      dz2     :     0.093038  d :     0.636705
      dxz     :     0.113887
      dyz     :     0.061913
      dx2y2   :     0.192386
      dxy     :     0.175481
      f0      :     0.030403  f :     0.353720
      f+1     :     0.057150
      f-1     :     0.021645
      f+2     :     0.036513
      f-2     :     0.052292
      f+3     :     0.084508
      f-3     :     0.071209
      g0      :     0.004330  g :     0.060274
      g+1     :     0.006745
      g-1     :     0.003260
      g+2     :     0.006181
      g-2     :     0.005462
      g+3     :     0.006528
      g-3     :     0.006676
      g+4     :     0.010599
      g-4     :     0.010494
  4 O s       :     3.263136  s :     3.263136
      pz      :     1.450299  p :     4.234455
      px      :     1.412145
      py      :     1.372011
      dz2     :     0.128488  d :     0.292751
      dxz     :     0.073613
      dyz     :     0.039293
      dx2y2   :     0.019037
      dxy     :     0.032319
      f0      :     0.047571  f :     0.131876
      f+1     :     0.027132
      f-1     :     0.011172
      f+2     :     0.015799
      f-2     :     0.021677
      f+3     :     0.001820
      f-3     :     0.006706
      g0      :     0.004481  g :     0.027376
      g+1     :     0.009272
      g-1     :     0.000833
      g+2     :     0.006185
      g-2     :     0.002946
      g+3     :     0.001511
      g-3     :     0.001809
      g+4     :     0.000101
      g-4     :     0.000238
  5 S s       :     4.647486  s :     4.647486
      pz      :     2.894992  p :     8.232301
      px      :     2.740664
      py      :     2.596646
      dz2     :     0.331085  d :     1.358877
      dxz     :     0.341969
      dyz     :     0.177984
      dx2y2   :     0.170235
      dxy     :     0.337604
      f0      :     0.163295  f :     0.871179
      f+1     :     0.135325
      f-1     :     0.100140
      f+2     :     0.073117
      f-2     :     0.157358
      f+3     :     0.131350
      f-3     :     0.110595
      g0      :     0.048221  g :     0.356806
      g+1     :     0.060332
      g-1     :     0.033814
      g+2     :     0.039247
      g-2     :     0.046557
      g+3     :     0.020749
      g-3     :     0.031681
      g+4     :     0.020870
      g-4     :     0.055334
  6 H s       :     0.655310  s :     0.655310
      pz      :     0.076665  p :     0.283111
      px      :     0.115171
      py      :     0.091275
      dz2     :     0.034181  d :     0.245753
      dxz     :     0.055508
      dyz     :     0.020089
      dx2y2   :     0.087310
      dxy     :     0.048666
      f0      :     0.009363  f :     0.119177
      f+1     :     0.016195
      f-1     :     0.008022
      f+2     :     0.014005
      f-2     :     0.012264
      f+3     :     0.041014
      f-3     :     0.018315
  7 H s       :     0.601742  s :     0.601742
      pz      :     0.137014  p :     0.280617
      px      :     0.066261
      py      :     0.077342
      dz2     :     0.066326  d :     0.263934
      dxz     :     0.091129
      dyz     :     0.069337
      dx2y2   :     0.026506
      dxy     :     0.010637
      f0      :     0.029297  f :     0.132076
      f+1     :     0.047545
      f-1     :     0.024547
      f+2     :     0.021819
      f-2     :     0.005043
      f+3     :     0.001437
      f-3     :     0.002387
  8 H s       :     0.606164  s :     0.606164
      pz      :     0.091996  p :     0.282314
      px      :     0.109907
      py      :     0.080411
      dz2     :     0.068631  d :     0.271296
      dxz     :     0.059891
      dyz     :     0.019983
      dx2y2   :     0.070489
      dxy     :     0.052302
      f0      :     0.009904  f :     0.136985
      f+1     :     0.042195
      f-1     :     0.005450
      f+2     :     0.017033
      f-2     :     0.013042
      f+3     :     0.037008
      f-3     :     0.012352
  9 H s       :     0.681766  s :     0.681766
      pz      :     0.085816  p :     0.316056
      px      :     0.080624
      py      :     0.149616
      dz2     :     0.029483  d :     0.265114
      dxz     :     0.018896
      dyz     :     0.066005
      dx2y2   :     0.063519
      dxy     :     0.087211
      f0      :     0.013145  f :     0.123526
      f+1     :     0.005644
      f-1     :     0.015516
      f+2     :     0.011119
      f-2     :     0.013165
      f+3     :     0.034086
      f-3     :     0.030852
 10 H s       :     0.603062  s :     0.603062
      pz      :     0.145440  p :     0.439909
      px      :     0.112993
      py      :     0.181476
      dz2     :     0.048824  d :     0.369087
      dxz     :     0.029536
      dyz     :     0.102889
      dx2y2   :     0.078221
      dxy     :     0.109617
      f0      :     0.015283  f :     0.181231
      f+1     :     0.007536
      f-1     :     0.034959
      f+2     :     0.022555
      f-2     :     0.022735
      f+3     :     0.038597
      f-3     :     0.039566


                      *****************************
                      * MAYER POPULATION ANALYSIS *
                      *****************************

  NA   - Mulliken gross atomic population
  ZA   - Total nuclear charge
  QA   - Mulliken gross atomic charge
  VA   - Mayer's total valence
  BVA  - Mayer's bonded valence
  FA   - Mayer's free valence

  ATOM       NA         ZA         QA         VA         BVA        FA
  0 C      6.3571     6.0000    -0.3571     3.4095     3.4095    -0.0000
  1 C      6.3038     6.0000    -0.3038     3.6451     3.6451    -0.0000
  2 C      6.6806     6.0000    -0.6806     3.3739     3.3739    -0.0000
  3 N      7.5829     7.0000    -0.5829     2.6523     2.6523     0.0000
  4 O      9.1231     8.0000    -1.1231     1.2389     1.2389    -0.0000
  5 S     14.7320    16.0000     1.2680     3.2137     3.2137    -0.0000
  6 H      0.5052     1.0000     0.4948     0.7395     0.7395    -0.0000
  7 H      0.7259     1.0000     0.2741     1.0102     1.0102    -0.0000
  8 H      0.6723     1.0000     0.3277     0.9157     0.9157    -0.0000
  9 H      0.5542     1.0000     0.4458     0.8049     0.8049    -0.0000
 10 H      0.7631     1.0000     0.2369     1.0082     1.0082    -0.0000

  Mayer bond orders larger than 0.100000
B(  0-C ,  1-C ) :   0.9498 B(  0-C ,  2-C ) :   1.7405 B(  0-C ,  6-H ) :   0.7344 
B(  1-C ,  3-N ) :   0.9172 B(  1-C ,  7-H ) :   0.8981 B(  1-C ,  8-H ) :   0.8954 
B(  2-C ,  5-S ) :   0.9789 B(  2-C ,  9-H ) :   0.8321 B(  3-N ,  5-S ) :   0.8789 
B(  3-N , 10-H ) :   0.9334 B(  4-O ,  5-S ) :   1.3128 

-------
TIMINGS
-------

Total SCF time: 0 days 0 hours 15 min 3 sec 

Total time                  ....     903.432 sec
Sum of individual times     ....     897.735 sec  ( 99.4%)

Fock matrix formation       ....     890.557 sec  ( 98.6%)
Diagonalization             ....       2.679 sec  (  0.3%)
Density matrix formation    ....       0.058 sec  (  0.0%)
Population analysis         ....       0.601 sec  (  0.1%)
Initial guess               ....       0.944 sec  (  0.1%)
Orbital Transformation      ....       0.000 sec  (  0.0%)
Orbital Orthonormalization  ....       0.000 sec  (  0.0%)
DIIS solution               ....       1.515 sec  (  0.2%)
SOSCF solution              ....       1.221 sec  (  0.1%)

Maximum memory used throughout the entire SCF-calculation: 272.1 MB


           ************************************************************
           *        Program running with 16 parallel MPI-processes    *
           *              working on a common directory               *
           ************************************************************

------------------------------------------------------------------------------
                                ORCA  MP2 
------------------------------------------------------------------------------

Freezing NCore=20 chemical core electrons

-------------
RI-MP2 ENERGY
-------------
Dimension of the basis                    ...  714
Memory devoted to MP2                     ...  256 MB   
Data format for buffers                   ... DOUBLE
Compression type for matrix containers    ... UNCOMPRESSED
Overall scaling of the MP2 energy         ...   1.000e+00
Calculating two index integrals           ... done (    0.020 sec)
Cholesky decomposition of V**-1           ... done (    0.338 sec)

-----------------
RI-TRANSFORMATION (AUX index driven)
-----------------

Dimension of the orbital-basis         ... 714
Dimension of the aux-basis             ... 1434
Transformation of internal/external MOs...   10-  26 to   27- 713
Number Format for Storage              ... Double (8 Byte)
Integral mode                          ... Direct

First Phase: integral generation and transformation of MO indices
  Aux angular momentum 0               ... done (    0.086 sec)
  Aux angular momentum 1               ... done (    0.145 sec)
  Aux angular momentum 2               ... done (    0.183 sec)
  Aux angular momentum 3               ... done (    0.273 sec)
  Aux angular momentum 4               ... done (    0.283 sec)
  Aux angular momentum 5               ... done (    0.147 sec)
Closing buffer VIA ( 0.12 GB; CompressionRatio= 1.00)
  Phase 1 completed in     1.364 sec
Second Phase: sorting and transformation of aux index

IA-Transformation
Memory available                       ... 190 MB 
Max. # MO pairs treated in a batch     ... 2    
# of internal orbitals                 ... 17
# batches for internal orbitals        ... 1
Closing buffer IAV ( 0.12 GB; CompressionRatio= 1.00)
(ia|v) transformation done in     0.298 sec

  Phase 2 completed in     1.207 sec
RI-Integral transformation completed in     2.660 sec
Opening buffers                              ... done

Starting loop over batches of integrals:

Operator 0  - window                       ... ( 10- 26)x( 27-713)
Operator 0  - Memory available             ...   256 MB
Operator 0  - Memory needed per MO         ...   7.5 MB
Operator 0  - Number of orbitals per batch ... 2
Operator 0  - Number of batches            ... 1

OPERATOR  0   PASS   0:  MOs    10 ...   11 +   12 ...   13 +   14 ...   15 +   16 ...   17
                            +   18 ...   19 +   20 ...   21 +   22 ...   23 +   24 ...   25
                            +   26 ...   26
  Reading integrals       ... ok
Time spent in pair loops =     0.131 sec
Deleting buffer (Ka|jb)[aa] ...done

-----------------------------------------------
 RI-MP2 CORRELATION ENERGY:     -1.203221216 Eh
-----------------------------------------------


-------
TIMINGS
-------

Total time                :    4.759 sec
Integral trafo            :    2.673 sec ( 56.2%)
I/O of integrals          :    0.007 sec (  0.1%)
K(i,j) Operators          :    0.107 sec (  2.2%)
T(i,j) pair energies      :    0.009 sec (  0.2%)
V-calculation             :    0.020 sec (  0.4%)
V**(-1/2)                 :    0.338 sec (  7.1%)
Gamma(ia|P)               :    0.000 sec (  0.0%)
Gamma-Trafo               :    0.000 sec (  0.0%)
D(virtual)                :    0.000 sec (  0.0%)
D(internal)               :    0.000 sec (  0.0%)
W(virtual)                :    0.000 sec (  0.0%)
W(internal)               :    0.000 sec (  0.0%)
L(virtual)                :    0.000 sec (  0.0%)
L(internal)               :    0.000 sec (  0.0%)
G(D)                      :    0.000 sec (  0.0%)
G(Z)                      :    0.000 sec (  0.0%)
Z-Vector Solution         :    0.000 sec (  0.0%)
3-Index Derivative        :    0.000 sec (  0.0%)
2-Index Derivative        :    0.000 sec (  0.0%)
Separable Gradient        :    0.000 sec (  0.0%)


---------------------------------------
MP2 TOTAL ENERGY:     -644.612026614 Eh
---------------------------------------

Maximum memory used throughout the entire MP2-calculation: 163.9 MB

-------------------------   --------------------
FINAL SINGLE POINT ENERGY      -644.612026614305
-------------------------   --------------------


                            ***************************************
                            *     ORCA property calculations      *
                            ***************************************


  WARNING: The energy has been calculated at the MP2 level but the densities
           used in the property calculations are still SCF densities
           MP2 response densities have not been calculated 
           use %mp2 Density relaxed end
           or  %mp2 Density unrelaxed end

                                    ---------------------
                                    Active property flags
                                    ---------------------
   (+) Dipole Moment


------------------------------------------------------------------------------
                       ORCA ELECTRIC PROPERTIES CALCULATION
------------------------------------------------------------------------------

Dipole Moment Calculation                       ... on
Quadrupole Moment Calculation                   ... off
Polarizability Calculation                      ... off
GBWName                                         ... 2,3-dihydro-1,2-thiazole-1-oxide.gbw
Electron density                                ... 2,3-dihydro-1,2-thiazole-1-oxide.scfp
The origin for moment calculation is the CENTER OF MASS  = ( 0.116447,  0.005909 -0.020584)

-------------
DIPOLE MOMENT
-------------
                                X             Y             Z
Electronic contribution:      4.64986       0.30196      -1.48821
Nuclear contribution   :     -6.28815      -0.31909       1.11153
                        -----------------------------------------
Total Dipole Moment    :     -1.63830      -0.01713      -0.37669
                        -----------------------------------------
Magnitude (a.u.)       :      1.68113
Magnitude (Debye)      :      4.27309



--------------------
Rotational spectrum 
--------------------
 
Rotational constants in cm-1:     0.188034     0.098350     0.079060 
Rotational constants in MHz :  5637.123709  2948.453800  2370.166294 

 Dipole components along the rotational axes: 
x,y,z [a.u.] :    -1.645939     0.042527    -0.339521 
x,y,z [Debye]:    -4.183646     0.108096    -0.862994 

 

Timings for individual modules:

Sum of individual times         ...      917.175 sec (=  15.286 min)
GTO integral calculation        ...        6.112 sec (=   0.102 min)   0.7 %
SCF iterations                  ...      904.679 sec (=  15.078 min)  98.6 %
MP2 module                      ...        6.385 sec (=   0.106 min)   0.7 %
                             ****ORCA TERMINATED NORMALLY****
TOTAL RUN TIME: 0 days 0 hours 15 minutes 25 seconds 544 msec
