
                                 *****************
                                 * O   R   C   A *
                                 *****************

                                            #,                                       
                                            ###                                      
                                            ####                                     
                                            #####                                    
                                            ######                                   
                                           ########,                                 
                                     ,,################,,,,,                         
                               ,,#################################,,                 
                          ,,##########################################,,             
                       ,#########################################, ''#####,          
                    ,#############################################,,   '####,        
                  ,##################################################,,,,####,       
                ,###########''''           ''''###############################       
              ,#####''   ,,,,##########,,,,          '''####'''          '####       
            ,##' ,,,,###########################,,,                        '##       
           ' ,,###''''                  '''############,,,                           
         ,,##''                                '''############,,,,        ,,,,,,###''
      ,#''                                            '''#######################'''  
     '                                                          ''''####''''         
             ,#######,   #######,   ,#######,      ##                                
            ,#'     '#,  ##    ##  ,#'     '#,    #''#        ######   ,####,        
            ##       ##  ##   ,#'  ##            #'  '#       #        #'  '#        
            ##       ##  #######   ##           ,######,      #####,   #    #        
            '#,     ,#'  ##    ##  '#,     ,#' ,#      #,         ##   #,  ,#        
             '#######'   ##     ##  '#######'  #'      '#     #####' # '####'        



                  #######################################################
                  #                        -***-                        #
                  #          Department of theory and spectroscopy      #
                  #    Directorship and core code : Frank Neese         #
                  #        Max Planck Institute fuer Kohlenforschung    #
                  #                Kaiser Wilhelm Platz 1               #
                  #                 D-45470 Muelheim/Ruhr               #
                  #                      Germany                        #
                  #                                                     #
                  #                  All rights reserved                #
                  #                        -***-                        #
                  #######################################################


                         Program Version 5.0.4 -  RELEASE  -


 With contributions from (in alphabetic order):
   Daniel Aravena         : Magnetic Suceptibility
   Michael Atanasov       : Ab Initio Ligand Field Theory (pilot matlab implementation)
   Alexander A. Auer      : GIAO ZORA, VPT2 properties, NMR spectrum
   Ute Becker             : Parallelization
   Giovanni Bistoni       : ED, misc. LED, open-shell LED, HFLD
   Martin Brehm           : Molecular dynamics
   Dmytro Bykov           : SCF Hessian
   Vijay G. Chilkuri      : MRCI spin determinant printing, contributions to CSF-ICE
   Dipayan Datta          : RHF DLPNO-CCSD density
   Achintya Kumar Dutta   : EOM-CC, STEOM-CC
   Dmitry Ganyushin       : Spin-Orbit,Spin-Spin,Magnetic field MRCI
   Miquel Garcia          : C-PCM and meta-GGA Hessian, CC/C-PCM, Gaussian charge scheme
   Yang Guo               : DLPNO-NEVPT2, F12-NEVPT2, CIM, IAO-localization
   Andreas Hansen         : Spin unrestricted coupled pair/coupled cluster methods
   Benjamin Helmich-Paris : MC-RPA, TRAH-SCF, COSX integrals
   Lee Huntington         : MR-EOM, pCC
   Robert Izsak           : Overlap fitted RIJCOSX, COSX-SCS-MP3, EOM
   Marcus Kettner         : VPT2
   Christian Kollmar      : KDIIS, OOCD, Brueckner-CCSD(T), CCSD density, CASPT2, CASPT2-K
   Simone Kossmann        : Meta GGA functionals, TD-DFT gradient, OOMP2, MP2 Hessian
   Martin Krupicka        : Initial AUTO-CI
   Lucas Lang             : DCDCAS
   Marvin Lechner         : AUTO-CI (C++ implementation), FIC-MRCC
   Dagmar Lenk            : GEPOL surface, SMD
   Dimitrios Liakos       : Extrapolation schemes; Compound Job, initial MDCI parallelization
   Dimitrios Manganas     : Further ROCIS development; embedding schemes
   Dimitrios Pantazis     : SARC Basis sets
   Anastasios Papadopoulos: AUTO-CI, single reference methods and gradients
   Taras Petrenko         : DFT Hessian,TD-DFT gradient, ASA, ECA, R-Raman, ABS, FL, XAS/XES, NRVS
   Peter Pinski           : DLPNO-MP2, DLPNO-MP2 Gradient
   Christoph Reimann      : Effective Core Potentials
   Marius Retegan         : Local ZFS, SOC
   Christoph Riplinger    : Optimizer, TS searches, QM/MM, DLPNO-CCSD(T), (RO)-DLPNO pert. Triples
   Tobias Risthaus        : Range-separated hybrids, TD-DFT gradient, RPA, STAB
   Michael Roemelt        : Original ROCIS implementation
   Masaaki Saitow         : Open-shell DLPNO-CCSD energy and density
   Barbara Sandhoefer     : DKH picture change effects
   Avijit Sen             : IP-ROCIS
   Kantharuban Sivalingam : CASSCF convergence, NEVPT2, FIC-MRCI
   Bernardo de Souza      : ESD, SOC TD-DFT
   Georgi Stoychev        : AutoAux, RI-MP2 NMR, DLPNO-MP2 response
   Willem Van den Heuvel  : Paramagnetic NMR
   Boris Wezisla          : Elementary symmetry handling
   Frank Wennmohs         : Technical directorship


 We gratefully acknowledge several colleagues who have allowed us to
 interface, adapt or use parts of their codes:
   Stefan Grimme, W. Hujo, H. Kruse, P. Pracht,  : VdW corrections, initial TS optimization,
                  C. Bannwarth, S. Ehlert          DFT functionals, gCP, sTDA/sTD-DF
   Ed Valeev, F. Pavosevic, A. Kumar             : LibInt (2-el integral package), F12 methods
   Garnet Chan, S. Sharma, J. Yang, R. Olivares  : DMRG
   Ulf Ekstrom                                   : XCFun DFT Library
   Mihaly Kallay                                 : mrcc  (arbitrary order and MRCC methods)
   Jiri Pittner, Ondrej Demel                    : Mk-CCSD
   Frank Weinhold                                : gennbo (NPA and NBO analysis)
   Christopher J. Cramer and Donald G. Truhlar   : smd solvation model
   Lars Goerigk                                  : TD-DFT with DH, B97 family of functionals
   V. Asgeirsson, H. Jonsson                     : NEB implementation
   FAccTs GmbH                                   : IRC, NEB, NEB-TS, DLPNO-Multilevel, CI-OPT
                                                   MM, QMMM, 2- and 3-layer-ONIOM, Crystal-QMMM,
                                                   LR-CPCM, SF, NACMEs, symmetry and pop. for TD-DFT,
                                                   nearIR, NL-DFT gradient (VV10), updates on ESD,
                                                   ML-optimized integration grids
   S Lehtola, MJT Oliveira, MAL Marques          : LibXC Library
   Liviu Ungur et al                             : ANISO software


 Your calculation uses the libint2 library for the computation of 2-el integrals
 For citations please refer to: http://libint.valeyev.net

 Your ORCA version has been built with support for libXC version: 5.1.0
 For citations please refer to: https://tddft.org/programs/libxc/

 This ORCA versions uses:
   CBLAS   interface :  Fast vector & matrix operations
   LAPACKE interface :  Fast linear algebra routines
   SCALAPACK package :  Parallel linear algebra routines
   Shared memory     :  Shared parallel matrices
   BLAS/LAPACK       :  OpenBLAS 0.3.15  USE64BITINT DYNAMIC_ARCH NO_AFFINITY Zen SINGLE_THREADED
        Core in use  :  Zen
   Copyright (c) 2011-2014, The OpenBLAS Project


================================================================================

----- Orbital basis set information -----
Your calculation utilizes the basis: aug-cc-pVQZ 
    H, B-Ne : Obtained from the ccRepo (grant-hill.group.shef.ac.uk/ccrepo) Feb. 2017
              R. A. Kendall, T. H. Dunning, Jr., R. J. Harrison, J. Chem. Phys. 96, 6796 (1992)
         He : Obtained from the ccRepo (grant-hill.group.shef.ac.uk/ccrepo) Feb. 2017
              D. E. Woon, T. H. Dunning, Jr., J. Chem. Phys. 100, 2975 (1994)
  Li-Be, Na : Obtained from the ccRepo (grant-hill.group.shef.ac.uk/ccrepo) Feb. 2017
              B. P. Prascher, D. E. Woon, K. A. Peterson, T. H. Dunning, Jr., A. K. Wilson, Theor. Chem. Acc. 128, 69 (2011)
         Mg : Obtained from the Peterson Research Group Website (tyr0.chem.wsu.edu/~kipeters) Feb. 2017
              B. P. Prascher, D. E. Woon, K. A. Peterson, T. H. Dunning, Jr., A. K. Wilson, Theor. Chem. Acc. 128, 69 (2011)
      Al-Ar : Obtained from the ccRepo (grant-hill.group.shef.ac.uk/ccrepo) Feb. 2017
              D. E. Woon, T. H. Dunning, Jr., J. Chem. Phys. 98, 1358 (1993)
      Sc-Zn : Obtained from the ccRepo (grant-hill.group.shef.ac.uk/ccrepo) Feb. 2017
              N. B. Balabanov, K. A. Peterson, J. Chem. Phys. 123, 064107 (2005)
              N. B. Balabanov, K. A. Peterson, J. Chem. Phys. 125, 074110 (2006)
      Ga-Kr : Obtained from the ccRepo (grant-hill.group.shef.ac.uk/ccrepo) Feb. 2017
              A. K. Wilson, D. E. Woon, K. A. Peterson, T. H. Dunning, Jr., J. Chem. Phys. 110, 7667 (1999)

----- AuxC basis set information -----
Your calculation utilizes the auxiliary basis: aug-cc-pVQZ/C 
  H-He, B-F, Al-Ar, Ga-Kr : Obtained from the EMSL Basis Set Exchange (bse.pnl.gov) Feb. 2017
                            F. Weigend, A. Kohn, C. Hattig, J. Chem. Phys. 116, 3175 (2002)
                   Be, Mg : Obtained from the TURBOMOLE 7.0 basis set library
                            C. Haettig, Phys. Chem. Chem. Phys. 7, 59 (2005)
                       Ne : Obtained from the EMSL Basis Set Exchange (bse.pnl.gov) Feb. 2017
                            C. Haettig, Phys. Chem. Chem. Phys. 7, 59 (2005)
                            F. Weigend, A. Kohn, C. Hattig, J. Chem. Phys. 116, 3175 (2002)
                    Sc-Zn : Obtained from the EMSL Basis Set Exchange (bse.pnl.gov) Feb. 2017
                            D. H. Bross, J. G. Hill, H. J. Werner, K. A. Peterson, J. Chem. Phys. 139, 094302 (2013)

================================================================================
                                        WARNINGS
                       Please study these warnings very carefully!
================================================================================


WARNING: No MP2 level density has been requested!
         To caclulate MP2 level properties use
         %mp2 Density relaxed end
         or
         %mp2 Density unrelaxed end

WARNING: Post HF methods need fully converged wavefunctions
  ===> : Setting SCFConvForced true
         You can overwrite this default with %scf ConvForced false 


INFO   : the flag for use of the SHARK integral package has been found!

================================================================================
                                       INPUT FILE
================================================================================
NAME = 4-methyl-1,3-thiazole.inp
|  1> !ri-mp2 aug-cc-pvqz aug-cc-pvqz/c tightscf
|  2> %pal nprocs 16 end
|  3> 
|  4> * xyz 0 1
|  5> H      1.956440   -1.637058    0.000000
|  6> C      0.000000    0.950174    0.000000
|  7> C      1.120691   -0.954132    0.000000
|  8> H      0.432261    2.850247    0.878324
|  9> H     -1.103247    2.790379    0.000000
| 10> H      0.432261    2.850247   -0.878324
| 11> C     -0.071430    2.443743    0.000000
| 12> S     -0.511579   -1.544954    0.000000
| 13> N      1.234040    0.335533    0.000000
| 14> H     -2.109532    0.327724    0.000000
| 15> C     -1.059462    0.091715    0.000000
| 16> *
| 17> 
| 18>                          ****END OF INPUT****
================================================================================

                       ****************************
                       * Single Point Calculation *
                       ****************************

---------------------------------
CARTESIAN COORDINATES (ANGSTROEM)
---------------------------------
  H      1.956440   -1.637058    0.000000
  C      0.000000    0.950174    0.000000
  C      1.120691   -0.954132    0.000000
  H      0.432261    2.850247    0.878324
  H     -1.103247    2.790379    0.000000
  H      0.432261    2.850247   -0.878324
  C     -0.071430    2.443743    0.000000
  S     -0.511579   -1.544954    0.000000
  N      1.234040    0.335533    0.000000
  H     -2.109532    0.327724    0.000000
  C     -1.059462    0.091715    0.000000

----------------------------
CARTESIAN COORDINATES (A.U.)
----------------------------
  NO LB      ZA    FRAG     MASS         X           Y           Z
   0 H     1.0000    0     1.008    3.697136   -3.093591    0.000000
   1 C     6.0000    0    12.011    0.000000    1.795569    0.000000
   2 C     6.0000    0    12.011    2.117799   -1.803048    0.000000
   3 H     1.0000    0     1.008    0.816855    5.386186    1.659792
   4 H     1.0000    0     1.008   -2.084835    5.273052    0.000000
   5 H     1.0000    0     1.008    0.816855    5.386186   -1.659792
   6 C     6.0000    0    12.011   -0.134983    4.618005    0.000000
   7 S    16.0000    0    32.060   -0.966744   -2.919540    0.000000
   8 N     7.0000    0    14.007    2.331998    0.634065    0.000000
   9 H     1.0000    0     1.008   -3.986438    0.619309    0.000000
  10 C     6.0000    0    12.011   -2.002093    0.173316    0.000000

--------------------------------
INTERNAL COORDINATES (ANGSTROEM)
--------------------------------
 H      0   0   0     0.000000000000     0.00000000     0.00000000
 C      1   0   0     3.243674905940     0.00000000     0.00000000
 C      1   2   0     1.079288799385    13.65006102     0.00000000
 H      2   1   3     2.137423689030   125.94953955   149.49533849
 H      4   2   1     1.769977978525    65.83106312   175.85480477
 H      4   2   1     1.756648000000    65.73695167   109.07929948
 C      5   4   2     1.088486489574    35.74823059   322.64316440
 S      3   1   2     1.735907828366   120.84788065   180.00000000
 N      3   1   8     1.294636554414   124.23088285   180.00000000
 H      2   1   3     2.199447490058   110.65671285     0.00000000
 C     10   2   1     1.076265419393    29.10655732     0.00000000

---------------------------
INTERNAL COORDINATES (A.U.)
---------------------------
 H      0   0   0     0.000000000000     0.00000000     0.00000000
 C      1   0   0     6.129657239699     0.00000000     0.00000000
 C      1   2   0     2.039560250246    13.65006102     0.00000000
 H      2   1   3     4.039145404422   125.94953955   149.49533849
 H      4   2   1     3.344773642484    65.83106312   175.85480477
 H      4   2   1     3.319583633700    65.73695167   109.07929948
 C      5   4   2     2.056941365768    35.74823059   322.64316440
 S      3   1   2     3.280390389343   120.84788065   180.00000000
 N      3   1   8     2.446508530807   124.23088285   180.00000000
 H      2   1   3     4.156353402151   110.65671285     0.00000000
 C     10   2   1     2.033846890063    29.10655732     0.00000000

---------------------
BASIS SET INFORMATION
---------------------
There are 4 groups of distinct atoms

 Group   1 Type H   : 7s4p3d2f contracted to 5s4p3d2f pattern {31111/1111/111/11}
 Group   2 Type C   : 22s7p4d3f2g contracted to 6s5p4d3f2g pattern {991111/31111/1111/111/11}
 Group   3 Type S   : 43s20p4d3f2g contracted to 7s6p4d3f2g pattern {1313131111/881111/1111/111/11}
 Group   4 Type N   : 22s7p4d3f2g contracted to 6s5p4d3f2g pattern {991111/31111/1111/111/11}

Atom   0H    basis set group =>   1
Atom   1C    basis set group =>   2
Atom   2C    basis set group =>   2
Atom   3H    basis set group =>   1
Atom   4H    basis set group =>   1
Atom   5H    basis set group =>   1
Atom   6C    basis set group =>   2
Atom   7S    basis set group =>   3
Atom   8N    basis set group =>   4
Atom   9H    basis set group =>   1
Atom  10C    basis set group =>   2
---------------------------------
AUXILIARY/C BASIS SET INFORMATION
---------------------------------
There are 4 groups of distinct atoms

 Group   1 Type H   : 6s5p4d3f2g contracted to 6s5p4d3f2g pattern {111111/11111/1111/111/11}
 Group   2 Type C   : 9s8p7d6f4g2h contracted to 9s8p7d6f4g2h pattern {111111111/11111111/1111111/111111/1111/11}
 Group   3 Type S   : 12s10p9d7f4g2h contracted to 12s10p9d7f4g2h pattern {111111111111/1111111111/111111111/1111111/1111/11}
 Group   4 Type N   : 9s8p7d6f4g2h contracted to 9s8p7d6f4g2h pattern {111111111/11111111/1111111/111111/1111/11}

Atom   0H    basis set group =>   1
Atom   1C    basis set group =>   2
Atom   2C    basis set group =>   2
Atom   3H    basis set group =>   1
Atom   4H    basis set group =>   1
Atom   5H    basis set group =>   1
Atom   6C    basis set group =>   2
Atom   7S    basis set group =>   3
Atom   8N    basis set group =>   4
Atom   9H    basis set group =>   1
Atom  10C    basis set group =>   2


           ************************************************************
           *        Program running with 16 parallel MPI-processes    *
           *              working on a common directory               *
           ************************************************************
------------------------------------------------------------------------------
                           ORCA GTO INTEGRAL CALCULATION
------------------------------------------------------------------------------
------------------------------------------------------------------------------
                   ___                                                        
                  /   \      - P O W E R E D   B Y -                         
                 /     \                                                     
                 |  |  |   _    _      __       _____    __    __             
                 |  |  |  | |  | |    /  \     |  _  \  |  |  /  |          
                  \  \/   | |  | |   /    \    | | | |  |  | /  /          
                 / \  \   | |__| |  /  /\  \   | |_| |  |  |/  /          
                |  |  |   |  __  | /  /__\  \  |    /   |      \           
                |  |  |   | |  | | |   __   |  |    \   |  |\   \          
                \     /   | |  | | |  |  |  |  | |\  \  |  | \   \       
                 \___/    |_|  |_| |__|  |__|  |_| \__\ |__|  \__/        
                                                                              
                      - O R C A' S   B I G   F R I E N D -                    
                                      &                                       
                       - I N T E G R A L  F E E D E R -                       
                                                                              
 v1 FN, 2020, v2 2021                                                         
------------------------------------------------------------------------------


Reading SHARK input file 4-methyl-1,3-thiazole.SHARKINP.tmp ... ok
----------------------
SHARK INTEGRAL PACKAGE
----------------------

Number of atoms                             ...     11
Number of basis functions                   ...    777
Number of shells                            ...    243
Maximum angular momentum                    ...      4
Integral batch strategy                     ... SHARK/LIBINT Hybrid
RI-J (if used) integral strategy            ... SPLIT-RIJ (Revised 2003 algorithm where possible)
Printlevel                                  ...      1
Contraction scheme used                     ... PARTIAL GENERAL contraction
Coulomb Range Separation                    ... NOT USED
Exchange Range Separation                   ... NOT USED
Finite Nucleus Model                        ... NOT USED
Auxiliary Coulomb fitting basis             ... NOT available
Auxiliary J/K fitting basis                 ... NOT available
Auxiliary Correlation fitting basis         ... AVAILABLE
   # of basis functions in Aux-C            ...   1434
   # of shells in Aux-C                     ...    324
   Maximum angular momentum in Aux-C        ...      5
Auxiliary 'external' fitting basis          ... NOT available
Integral threshold                          ...     2.500000e-11
Primitive cut-off                           ...     2.500000e-12
Primitive pair pre-selection threshold      ...     2.500000e-12

Calculating pre-screening integrals         ... done (  0.1 sec) Dimension = 243
Calculating pre-screening integrals (ORCA)  ... done (  0.2 sec) Dimension = 192
Organizing shell pair data                  ... done (  0.6 sec)
Shell pair information
Total number of shell pairs                 ...     29646
Shell pairs after pre-screening             ...     25394
Total number of primitive shell pairs       ...     34746
Primitive shell pairs kept                  ...     28435
          la=0 lb=0:   4034 shell pairs
          la=1 lb=0:   5058 shell pairs
          la=1 lb=1:   1513 shell pairs
          la=2 lb=0:   3620 shell pairs
          la=2 lb=1:   2056 shell pairs
          la=2 lb=2:    746 shell pairs
          la=3 lb=0:   2662 shell pairs
          la=3 lb=1:   1506 shell pairs
          la=3 lb=2:   1051 shell pairs
          la=3 lb=3:    395 shell pairs
          la=4 lb=0:   1214 shell pairs
          la=4 lb=1:    665 shell pairs
          la=4 lb=2:    462 shell pairs
          la=4 lb=3:    334 shell pairs
          la=4 lb=4:     78 shell pairs

Calculating one electron integrals          ... done (  0.0 sec)
Calculating RI/C V-Matrix + Cholesky decomp.... done (  0.3 sec)
Calculating Nuclear repulsion               ... done (  0.0 sec) ENN=    273.769877733259 Eh

SHARK setup successfully completed in   2.0 seconds

Maximum memory used throughout the entire GTOINT-calculation: 80.0 MB
[1715591220.281956] [nc30350:202443:0]          mpool.c:42   UCX  WARN  object 0xac516c0 was not returned to mpool ucp_requests
[1715591220.281975] [nc30350:202443:0]          mpool.c:42   UCX  WARN  object 0xac51880 was not returned to mpool ucp_requests
[1715591220.281980] [nc30350:202443:0]          mpool.c:42   UCX  WARN  object 0xac51a40 was not returned to mpool ucp_requests
[1715591220.281984] [nc30350:202443:0]          mpool.c:42   UCX  WARN  object 0xac51c00 was not returned to mpool ucp_requests
[1715591220.281988] [nc30350:202443:0]          mpool.c:42   UCX  WARN  object 0xac51dc0 was not returned to mpool ucp_requests
[1715591220.281991] [nc30350:202443:0]          mpool.c:42   UCX  WARN  object 0xac51f80 was not returned to mpool ucp_requests
[1715591220.281994] [nc30350:202443:0]          mpool.c:42   UCX  WARN  object 0xac52140 was not returned to mpool ucp_requests
[1715591220.281998] [nc30350:202443:0]          mpool.c:42   UCX  WARN  object 0xac52300 was not returned to mpool ucp_requests
[1715591220.282002] [nc30350:202443:0]          mpool.c:42   UCX  WARN  object 0xac524c0 was not returned to mpool ucp_requests
[1715591220.282005] [nc30350:202443:0]          mpool.c:42   UCX  WARN  object 0xac52680 was not returned to mpool ucp_requests
[1715591220.282009] [nc30350:202443:0]          mpool.c:42   UCX  WARN  object 0xac52840 was not returned to mpool ucp_requests
[1715591220.282287] [nc30350:202439:0]          mpool.c:42   UCX  WARN  object 0xa67a4c0 was not returned to mpool ucp_requests
[1715591220.282303] [nc30350:202439:0]          mpool.c:42   UCX  WARN  object 0xa67a680 was not returned to mpool ucp_requests
[1715591220.282308] [nc30350:202439:0]          mpool.c:42   UCX  WARN  object 0xa67a840 was not returned to mpool ucp_requests
[1715591220.282311] [nc30350:202439:0]          mpool.c:42   UCX  WARN  object 0xa67aa00 was not returned to mpool ucp_requests
[1715591220.282314] [nc30350:202439:0]          mpool.c:42   UCX  WARN  object 0xa67abc0 was not returned to mpool ucp_requests
[1715591220.282317] [nc30350:202439:0]          mpool.c:42   UCX  WARN  object 0xa67ad80 was not returned to mpool ucp_requests
[1715591220.282320] [nc30350:202439:0]          mpool.c:42   UCX  WARN  object 0xa67af40 was not returned to mpool ucp_requests
[1715591220.282324] [nc30350:202439:0]          mpool.c:42   UCX  WARN  object 0xa67b100 was not returned to mpool ucp_requests
[1715591220.282326] [nc30350:202439:0]          mpool.c:42   UCX  WARN  object 0xa67b2c0 was not returned to mpool ucp_requests
[1715591220.282328] [nc30350:202439:0]          mpool.c:42   UCX  WARN  object 0xa67b480 was not returned to mpool ucp_requests
[1715591220.282331] [nc30350:202439:0]          mpool.c:42   UCX  WARN  object 0xa67b640 was not returned to mpool ucp_requests
[1715591220.282334] [nc30350:202439:0]          mpool.c:42   UCX  WARN  object 0xa67b9c0 was not returned to mpool ucp_requests
[1715591220.282533] [nc30350:202444:0]          mpool.c:42   UCX  WARN  object 0xa4d66c0 was not returned to mpool ucp_requests
[1715591220.282545] [nc30350:202444:0]          mpool.c:42   UCX  WARN  object 0xa4d6880 was not returned to mpool ucp_requests
[1715591220.282549] [nc30350:202444:0]          mpool.c:42   UCX  WARN  object 0xa4d6a40 was not returned to mpool ucp_requests
[1715591220.282553] [nc30350:202444:0]          mpool.c:42   UCX  WARN  object 0xa4d6c00 was not returned to mpool ucp_requests
[1715591220.282556] [nc30350:202444:0]          mpool.c:42   UCX  WARN  object 0xa4d6dc0 was not returned to mpool ucp_requests
[1715591220.282560] [nc30350:202444:0]          mpool.c:42   UCX  WARN  object 0xa4d6f80 was not returned to mpool ucp_requests
[1715591220.282563] [nc30350:202444:0]          mpool.c:42   UCX  WARN  object 0xa4d7140 was not returned to mpool ucp_requests
[1715591220.282566] [nc30350:202444:0]          mpool.c:42   UCX  WARN  object 0xa4d7300 was not returned to mpool ucp_requests
[1715591220.282570] [nc30350:202444:0]          mpool.c:42   UCX  WARN  object 0xa4d74c0 was not returned to mpool ucp_requests
[1715591220.282573] [nc30350:202444:0]          mpool.c:42   UCX  WARN  object 0xa4d7680 was not returned to mpool ucp_requests
[1715591220.282577] [nc30350:202444:0]          mpool.c:42   UCX  WARN  object 0xa4d7840 was not returned to mpool ucp_requests
[1715591220.282913] [nc30350:202468:0]          mpool.c:42   UCX  WARN  object 0xa595080 was not returned to mpool ucp_requests
[1715591220.282930] [nc30350:202468:0]          mpool.c:42   UCX  WARN  object 0xa595240 was not returned to mpool ucp_requests
[1715591220.282935] [nc30350:202468:0]          mpool.c:42   UCX  WARN  object 0xa595400 was not returned to mpool ucp_requests
[1715591220.282938] [nc30350:202468:0]          mpool.c:42   UCX  WARN  object 0xa5955c0 was not returned to mpool ucp_requests
[1715591220.282942] [nc30350:202468:0]          mpool.c:42   UCX  WARN  object 0xa595780 was not returned to mpool ucp_requests
[1715591220.282945] [nc30350:202468:0]          mpool.c:42   UCX  WARN  object 0xa595940 was not returned to mpool ucp_requests
[1715591220.282949] [nc30350:202468:0]          mpool.c:42   UCX  WARN  object 0xa595b00 was not returned to mpool ucp_requests
[1715591220.282952] [nc30350:202468:0]          mpool.c:42   UCX  WARN  object 0xa595cc0 was not returned to mpool ucp_requests
[1715591220.282954] [nc30350:202468:0]          mpool.c:42   UCX  WARN  object 0xa595e80 was not returned to mpool ucp_requests
[1715591220.282958] [nc30350:202468:0]          mpool.c:42   UCX  WARN  object 0xa596040 was not returned to mpool ucp_requests
[1715591220.282961] [nc30350:202468:0]          mpool.c:42   UCX  WARN  object 0xa596200 was not returned to mpool ucp_requests
[1715591220.283013] [nc30350:202438:0]          mpool.c:42   UCX  WARN  object 0xafda380 was not returned to mpool ucp_requests
[1715591220.283037] [nc30350:202438:0]          mpool.c:42   UCX  WARN  object 0xafda540 was not returned to mpool ucp_requests
[1715591220.283041] [nc30350:202438:0]          mpool.c:42   UCX  WARN  object 0xafda700 was not returned to mpool ucp_requests
[1715591220.283043] [nc30350:202438:0]          mpool.c:42   UCX  WARN  object 0xafda8c0 was not returned to mpool ucp_requests
[1715591220.283045] [nc30350:202438:0]          mpool.c:42   UCX  WARN  object 0xafdaa80 was not returned to mpool ucp_requests
[1715591220.283048] [nc30350:202438:0]          mpool.c:42   UCX  WARN  object 0xafdac40 was not returned to mpool ucp_requests
[1715591220.283050] [nc30350:202438:0]          mpool.c:42   UCX  WARN  object 0xafdae00 was not returned to mpool ucp_requests
[1715591220.283052] [nc30350:202438:0]          mpool.c:42   UCX  WARN  object 0xafdafc0 was not returned to mpool ucp_requests
[1715591220.283055] [nc30350:202438:0]          mpool.c:42   UCX  WARN  object 0xafdb180 was not returned to mpool ucp_requests
[1715591220.283057] [nc30350:202438:0]          mpool.c:42   UCX  WARN  object 0xafdb340 was not returned to mpool ucp_requests
[1715591220.283059] [nc30350:202438:0]          mpool.c:42   UCX  WARN  object 0xafdb500 was not returned to mpool ucp_requests
[1715591220.283061] [nc30350:202438:0]          mpool.c:42   UCX  WARN  object 0xafdb6c0 was not returned to mpool ucp_requests
[1715591220.283509] [nc30350:202440:0]          mpool.c:42   UCX  WARN  object 0xb31e040 was not returned to mpool ucp_requests
[1715591220.283528] [nc30350:202440:0]          mpool.c:42   UCX  WARN  object 0xb31e200 was not returned to mpool ucp_requests
[1715591220.283533] [nc30350:202440:0]          mpool.c:42   UCX  WARN  object 0xb31e3c0 was not returned to mpool ucp_requests
[1715591220.283537] [nc30350:202440:0]          mpool.c:42   UCX  WARN  object 0xb31e580 was not returned to mpool ucp_requests
[1715591220.283540] [nc30350:202440:0]          mpool.c:42   UCX  WARN  object 0xb31e740 was not returned to mpool ucp_requests
[1715591220.283544] [nc30350:202440:0]          mpool.c:42   UCX  WARN  object 0xb31e900 was not returned to mpool ucp_requests
[1715591220.283548] [nc30350:202440:0]          mpool.c:42   UCX  WARN  object 0xb31eac0 was not returned to mpool ucp_requests
[1715591220.283552] [nc30350:202440:0]          mpool.c:42   UCX  WARN  object 0xb31ec80 was not returned to mpool ucp_requests
[1715591220.283555] [nc30350:202440:0]          mpool.c:42   UCX  WARN  object 0xb31ee40 was not returned to mpool ucp_requests
[1715591220.283558] [nc30350:202440:0]          mpool.c:42   UCX  WARN  object 0xb31f000 was not returned to mpool ucp_requests
[1715591220.283562] [nc30350:202440:0]          mpool.c:42   UCX  WARN  object 0xb31f1c0 was not returned to mpool ucp_requests
[1715591220.283651] [nc30350:202445:0]          mpool.c:42   UCX  WARN  object 0xab352c0 was not returned to mpool ucp_requests
[1715591220.283668] [nc30350:202445:0]          mpool.c:42   UCX  WARN  object 0xab35480 was not returned to mpool ucp_requests
[1715591220.283673] [nc30350:202445:0]          mpool.c:42   UCX  WARN  object 0xab35640 was not returned to mpool ucp_requests
[1715591220.283677] [nc30350:202445:0]          mpool.c:42   UCX  WARN  object 0xab35800 was not returned to mpool ucp_requests
[1715591220.283680] [nc30350:202445:0]          mpool.c:42   UCX  WARN  object 0xab359c0 was not returned to mpool ucp_requests
[1715591220.283683] [nc30350:202445:0]          mpool.c:42   UCX  WARN  object 0xab35b80 was not returned to mpool ucp_requests
[1715591220.283686] [nc30350:202445:0]          mpool.c:42   UCX  WARN  object 0xab35d40 was not returned to mpool ucp_requests
[1715591220.283690] [nc30350:202445:0]          mpool.c:42   UCX  WARN  object 0xab35f00 was not returned to mpool ucp_requests
[1715591220.283694] [nc30350:202445:0]          mpool.c:42   UCX  WARN  object 0xab360c0 was not returned to mpool ucp_requests
[1715591220.283697] [nc30350:202445:0]          mpool.c:42   UCX  WARN  object 0xab36280 was not returned to mpool ucp_requests
[1715591220.283700] [nc30350:202445:0]          mpool.c:42   UCX  WARN  object 0xab36440 was not returned to mpool ucp_requests
[1715591220.283246] [nc30350:202437:0]          mpool.c:42   UCX  WARN  object 0xbc49680 was not returned to mpool ucp_requests
[1715591220.283271] [nc30350:202437:0]          mpool.c:42   UCX  WARN  object 0xbc49840 was not returned to mpool ucp_requests
[1715591220.283275] [nc30350:202437:0]          mpool.c:42   UCX  WARN  object 0xbc49a00 was not returned to mpool ucp_requests
[1715591220.283277] [nc30350:202437:0]          mpool.c:42   UCX  WARN  object 0xbc49bc0 was not returned to mpool ucp_requests
[1715591220.283280] [nc30350:202437:0]          mpool.c:42   UCX  WARN  object 0xbc49d80 was not returned to mpool ucp_requests
[1715591220.283282] [nc30350:202437:0]          mpool.c:42   UCX  WARN  object 0xbc49f40 was not returned to mpool ucp_requests
[1715591220.283284] [nc30350:202437:0]          mpool.c:42   UCX  WARN  object 0xbc4a100 was not returned to mpool ucp_requests
[1715591220.283286] [nc30350:202437:0]          mpool.c:42   UCX  WARN  object 0xbc4a2c0 was not returned to mpool ucp_requests
[1715591220.283289] [nc30350:202437:0]          mpool.c:42   UCX  WARN  object 0xbc4a480 was not returned to mpool ucp_requests
[1715591220.283291] [nc30350:202437:0]          mpool.c:42   UCX  WARN  object 0xbc4a640 was not returned to mpool ucp_requests
[1715591220.283293] [nc30350:202437:0]          mpool.c:42   UCX  WARN  object 0xbc4a800 was not returned to mpool ucp_requests
[1715591220.283295] [nc30350:202437:0]          mpool.c:42   UCX  WARN  object 0xbc4a9c0 was not returned to mpool ucp_requests
[1715591220.283298] [nc30350:202437:0]          mpool.c:42   UCX  WARN  object 0xbc4ab80 was not returned to mpool ucp_requests
[1715591220.283811] [nc30350:202442:0]          mpool.c:42   UCX  WARN  object 0xad3f440 was not returned to mpool ucp_requests
[1715591220.283822] [nc30350:202442:0]          mpool.c:42   UCX  WARN  object 0xad3f600 was not returned to mpool ucp_requests
[1715591220.283826] [nc30350:202442:0]          mpool.c:42   UCX  WARN  object 0xad3f7c0 was not returned to mpool ucp_requests
[1715591220.283832] [nc30350:202442:0]          mpool.c:42   UCX  WARN  object 0xad3f980 was not returned to mpool ucp_requests
[1715591220.283835] [nc30350:202442:0]          mpool.c:42   UCX  WARN  object 0xad3fb40 was not returned to mpool ucp_requests
[1715591220.283837] [nc30350:202442:0]          mpool.c:42   UCX  WARN  object 0xad3fd00 was not returned to mpool ucp_requests
[1715591220.283840] [nc30350:202442:0]          mpool.c:42   UCX  WARN  object 0xad3fec0 was not returned to mpool ucp_requests
[1715591220.283845] [nc30350:202442:0]          mpool.c:42   UCX  WARN  object 0xad40080 was not returned to mpool ucp_requests
[1715591220.283847] [nc30350:202442:0]          mpool.c:42   UCX  WARN  object 0xad40240 was not returned to mpool ucp_requests
[1715591220.283850] [nc30350:202442:0]          mpool.c:42   UCX  WARN  object 0xad40400 was not returned to mpool ucp_requests
[1715591220.283852] [nc30350:202442:0]          mpool.c:42   UCX  WARN  object 0xad405c0 was not returned to mpool ucp_requests
[1715591220.283834] [nc30350:202447:0]          mpool.c:42   UCX  WARN  object 0xc3b2ec0 was not returned to mpool ucp_requests
[1715591220.283847] [nc30350:202447:0]          mpool.c:42   UCX  WARN  object 0xc3b3080 was not returned to mpool ucp_requests
[1715591220.283851] [nc30350:202447:0]          mpool.c:42   UCX  WARN  object 0xc3b3240 was not returned to mpool ucp_requests
[1715591220.283855] [nc30350:202447:0]          mpool.c:42   UCX  WARN  object 0xc3b3400 was not returned to mpool ucp_requests
[1715591220.283858] [nc30350:202447:0]          mpool.c:42   UCX  WARN  object 0xc3b35c0 was not returned to mpool ucp_requests
[1715591220.283862] [nc30350:202447:0]          mpool.c:42   UCX  WARN  object 0xc3b3780 was not returned to mpool ucp_requests
[1715591220.283865] [nc30350:202447:0]          mpool.c:42   UCX  WARN  object 0xc3b3940 was not returned to mpool ucp_requests
[1715591220.283868] [nc30350:202447:0]          mpool.c:42   UCX  WARN  object 0xc3b3b00 was not returned to mpool ucp_requests
[1715591220.283871] [nc30350:202447:0]          mpool.c:42   UCX  WARN  object 0xc3b3cc0 was not returned to mpool ucp_requests
[1715591220.283874] [nc30350:202447:0]          mpool.c:42   UCX  WARN  object 0xc3b3e80 was not returned to mpool ucp_requests
[1715591220.283876] [nc30350:202447:0]          mpool.c:42   UCX  WARN  object 0xc3b4040 was not returned to mpool ucp_requests
[1715591220.283946] [nc30350:202458:0]          mpool.c:42   UCX  WARN  object 0xb472ec0 was not returned to mpool ucp_requests
[1715591220.283962] [nc30350:202458:0]          mpool.c:42   UCX  WARN  object 0xb473080 was not returned to mpool ucp_requests
[1715591220.283967] [nc30350:202458:0]          mpool.c:42   UCX  WARN  object 0xb473240 was not returned to mpool ucp_requests
[1715591220.283971] [nc30350:202458:0]          mpool.c:42   UCX  WARN  object 0xb473400 was not returned to mpool ucp_requests
[1715591220.283974] [nc30350:202458:0]          mpool.c:42   UCX  WARN  object 0xb4735c0 was not returned to mpool ucp_requests
[1715591220.283977] [nc30350:202458:0]          mpool.c:42   UCX  WARN  object 0xb473780 was not returned to mpool ucp_requests
[1715591220.283980] [nc30350:202458:0]          mpool.c:42   UCX  WARN  object 0xb473940 was not returned to mpool ucp_requests
[1715591220.283984] [nc30350:202458:0]          mpool.c:42   UCX  WARN  object 0xb473b00 was not returned to mpool ucp_requests
[1715591220.283986] [nc30350:202458:0]          mpool.c:42   UCX  WARN  object 0xb473cc0 was not returned to mpool ucp_requests
[1715591220.283990] [nc30350:202458:0]          mpool.c:42   UCX  WARN  object 0xb473e80 was not returned to mpool ucp_requests
[1715591220.283992] [nc30350:202458:0]          mpool.c:42   UCX  WARN  object 0xb474040 was not returned to mpool ucp_requests
[1715591220.284040] [nc30350:202454:0]          mpool.c:42   UCX  WARN  object 0xbaed180 was not returned to mpool ucp_requests
[1715591220.284052] [nc30350:202454:0]          mpool.c:42   UCX  WARN  object 0xbaed340 was not returned to mpool ucp_requests
[1715591220.284056] [nc30350:202454:0]          mpool.c:42   UCX  WARN  object 0xbaed500 was not returned to mpool ucp_requests
[1715591220.284060] [nc30350:202454:0]          mpool.c:42   UCX  WARN  object 0xbaed6c0 was not returned to mpool ucp_requests
[1715591220.284063] [nc30350:202454:0]          mpool.c:42   UCX  WARN  object 0xbaed880 was not returned to mpool ucp_requests
[1715591220.284067] [nc30350:202454:0]          mpool.c:42   UCX  WARN  object 0xbaeda40 was not returned to mpool ucp_requests
[1715591220.284071] [nc30350:202454:0]          mpool.c:42   UCX  WARN  object 0xbaedc00 was not returned to mpool ucp_requests
[1715591220.284074] [nc30350:202454:0]          mpool.c:42   UCX  WARN  object 0xbaeddc0 was not returned to mpool ucp_requests
[1715591220.284078] [nc30350:202454:0]          mpool.c:42   UCX  WARN  object 0xbaedf80 was not returned to mpool ucp_requests
[1715591220.284083] [nc30350:202454:0]          mpool.c:42   UCX  WARN  object 0xbaee140 was not returned to mpool ucp_requests
[1715591220.284087] [nc30350:202454:0]          mpool.c:42   UCX  WARN  object 0xbaee300 was not returned to mpool ucp_requests
[1715591220.284130] [nc30350:202448:0]          mpool.c:42   UCX  WARN  object 0xc115880 was not returned to mpool ucp_requests
[1715591220.284142] [nc30350:202448:0]          mpool.c:42   UCX  WARN  object 0xc115a40 was not returned to mpool ucp_requests
[1715591220.284147] [nc30350:202448:0]          mpool.c:42   UCX  WARN  object 0xc115c00 was not returned to mpool ucp_requests
[1715591220.284151] [nc30350:202448:0]          mpool.c:42   UCX  WARN  object 0xc115dc0 was not returned to mpool ucp_requests
[1715591220.284155] [nc30350:202448:0]          mpool.c:42   UCX  WARN  object 0xc115f80 was not returned to mpool ucp_requests
[1715591220.284159] [nc30350:202448:0]          mpool.c:42   UCX  WARN  object 0xc116140 was not returned to mpool ucp_requests
[1715591220.284164] [nc30350:202448:0]          mpool.c:42   UCX  WARN  object 0xc116300 was not returned to mpool ucp_requests
[1715591220.284167] [nc30350:202448:0]          mpool.c:42   UCX  WARN  object 0xc1164c0 was not returned to mpool ucp_requests
[1715591220.284171] [nc30350:202448:0]          mpool.c:42   UCX  WARN  object 0xc116680 was not returned to mpool ucp_requests
[1715591220.284176] [nc30350:202448:0]          mpool.c:42   UCX  WARN  object 0xc116840 was not returned to mpool ucp_requests
[1715591220.284180] [nc30350:202448:0]          mpool.c:42   UCX  WARN  object 0xc116a00 was not returned to mpool ucp_requests
[1715591220.284351] [nc30350:202451:0]          mpool.c:42   UCX  WARN  object 0xc412f40 was not returned to mpool ucp_requests
[1715591220.284363] [nc30350:202451:0]          mpool.c:42   UCX  WARN  object 0xc413100 was not returned to mpool ucp_requests
[1715591220.284368] [nc30350:202451:0]          mpool.c:42   UCX  WARN  object 0xc4132c0 was not returned to mpool ucp_requests
[1715591220.284371] [nc30350:202451:0]          mpool.c:42   UCX  WARN  object 0xc413480 was not returned to mpool ucp_requests
[1715591220.284374] [nc30350:202451:0]          mpool.c:42   UCX  WARN  object 0xc413640 was not returned to mpool ucp_requests
[1715591220.284378] [nc30350:202451:0]          mpool.c:42   UCX  WARN  object 0xc413800 was not returned to mpool ucp_requests
[1715591220.284382] [nc30350:202451:0]          mpool.c:42   UCX  WARN  object 0xc4139c0 was not returned to mpool ucp_requests
[1715591220.284385] [nc30350:202451:0]          mpool.c:42   UCX  WARN  object 0xc413b80 was not returned to mpool ucp_requests
[1715591220.284388] [nc30350:202451:0]          mpool.c:42   UCX  WARN  object 0xc413d40 was not returned to mpool ucp_requests
[1715591220.284392] [nc30350:202451:0]          mpool.c:42   UCX  WARN  object 0xc413f00 was not returned to mpool ucp_requests
[1715591220.284395] [nc30350:202451:0]          mpool.c:42   UCX  WARN  object 0xc4140c0 was not returned to mpool ucp_requests
[1715591220.285343] [nc30350:202441:0]          mpool.c:42   UCX  WARN  object 0xbfb41c0 was not returned to mpool ucp_requests
[1715591220.285361] [nc30350:202441:0]          mpool.c:42   UCX  WARN  object 0xbfb4380 was not returned to mpool ucp_requests
[1715591220.285367] [nc30350:202441:0]          mpool.c:42   UCX  WARN  object 0xbfb4540 was not returned to mpool ucp_requests
[1715591220.285370] [nc30350:202441:0]          mpool.c:42   UCX  WARN  object 0xbfb4700 was not returned to mpool ucp_requests
[1715591220.285372] [nc30350:202441:0]          mpool.c:42   UCX  WARN  object 0xbfb48c0 was not returned to mpool ucp_requests
[1715591220.285375] [nc30350:202441:0]          mpool.c:42   UCX  WARN  object 0xbfb4a80 was not returned to mpool ucp_requests
[1715591220.285378] [nc30350:202441:0]          mpool.c:42   UCX  WARN  object 0xbfb4c40 was not returned to mpool ucp_requests
[1715591220.285380] [nc30350:202441:0]          mpool.c:42   UCX  WARN  object 0xbfb4e00 was not returned to mpool ucp_requests
[1715591220.285383] [nc30350:202441:0]          mpool.c:42   UCX  WARN  object 0xbfb4fc0 was not returned to mpool ucp_requests
[1715591220.285386] [nc30350:202441:0]          mpool.c:42   UCX  WARN  object 0xbfb5180 was not returned to mpool ucp_requests
[1715591220.285388] [nc30350:202441:0]          mpool.c:42   UCX  WARN  object 0xbfb5340 was not returned to mpool ucp_requests


           ************************************************************
           *        Program running with 16 parallel MPI-processes    *
           *              working on a common directory               *
           ************************************************************
-------------------------------------------------------------------------------
                                 ORCA SCF
-------------------------------------------------------------------------------

------------
SCF SETTINGS
------------
Hamiltonian:
 Ab initio Hamiltonian  Method          .... Hartree-Fock(GTOs)


General Settings:
 Integral files         IntName         .... 4-methyl-1,3-thiazole
 Hartree-Fock type      HFTyp           .... RHF
 Total Charge           Charge          ....    0
 Multiplicity           Mult            ....    1
 Number of Electrons    NEL             ....   52
 Basis Dimension        Dim             ....  714
 Nuclear Repulsion      ENuc            ....    273.7698777333 Eh

Convergence Acceleration:
 DIIS                   CNVDIIS         .... on
   Start iteration      DIISMaxIt       ....    12
   Startup error        DIISStart       ....  0.200000
   # of expansion vecs  DIISMaxEq       ....     5
   Bias factor          DIISBfac        ....   1.050
   Max. coefficient     DIISMaxC        ....  10.000
 Trust-Rad. Augm. Hess. CNVTRAH         .... auto
   Auto Start mean grad. ratio tolernc. ....  1.125000
   Auto Start start iteration           ....    20
   Auto Start num. interpolation iter.  ....    10
   Max. Number of Micro iterations      ....    16
   Max. Number of Macro iterations      .... Maxiter - #DIIS iter
   Number of Davidson start vectors     ....     2
   Converg. threshold I  (grad. norm)   ....   1.000e-05
   Converg. threshold II (energy diff.) ....   1.000e-08
   Grad. Scal. Fac. for Micro threshold ....   0.100
   Minimum threshold for Micro iter.    ....   0.010
   NR start threshold (gradient norm)   ....   0.001
   Initial trust radius                 ....   0.400
   Minimum AH scaling param. (alpha)    ....   1.000
   Maximum AH scaling param. (alpha)    .... 1000.000
   Orbital update algorithm             .... Taylor
   White noise on init. David. guess    .... on
   Maximum white noise                  ....   0.010
   Quad. conv. algorithm                .... NR
 SOSCF                  CNVSOSCF        .... on
   Start iteration      SOSCFMaxIt      ....   150
   Startup grad/error   SOSCFStart      ....  0.003300
 Level Shifting         CNVShift        .... on
   Level shift para.    LevelShift      ....    0.2500
   Turn off err/grad.   ShiftErr        ....    0.0010
 Zerner damping         CNVZerner       .... off
 Static damping         CNVDamp         .... on
   Fraction old density DampFac         ....    0.7000
   Max. Damping (<1)    DampMax         ....    0.9800
   Min. Damping (>=0)   DampMin         ....    0.0000
   Turn off err/grad.   DampErr         ....    0.1000
 Fernandez-Rico         CNVRico         .... off

SCF Procedure:
 Maximum # iterations   MaxIter         ....   125
 SCF integral mode      SCFMode         .... Direct
   Integral package                     .... SHARK and LIBINT hybrid scheme
 Reset frequency        DirectResetFreq ....    20
 Integral Threshold     Thresh          ....  2.500e-11 Eh
 Primitive CutOff       TCut            ....  2.500e-12 Eh

Convergence Tolerance:
 Convergence Check Mode ConvCheckMode   .... Total+1el-Energy
 Convergence forced     ConvForced      .... 1
 Energy Change          TolE            ....  1.000e-08 Eh
 1-El. energy change                    ....  1.000e-05 Eh
 Orbital Gradient       TolG            ....  1.000e-05
 Orbital Rotation angle TolX            ....  1.000e-05
 DIIS Error             TolErr          ....  5.000e-07


Diagonalization of the overlap matrix:
Smallest eigenvalue                        ... 1.152e-06
Time for diagonalization                   ...    0.070 sec
Threshold for overlap eigenvalues          ... 1.000e-08
Number of eigenvalues below threshold      ... 0
Time for construction of square roots      ...    0.182 sec
Total time needed                          ...    0.255 sec

Time for model grid setup =    0.129 sec

------------------------------
INITIAL GUESS: MODEL POTENTIAL
------------------------------
Loading Hartree-Fock densities                     ... done
Calculating cut-offs                               ... done
Initializing the effective Hamiltonian             ... done
Setting up the integral package (SHARK)            ... done
Starting the Coulomb interaction                   ... done (   0.3 sec)
Reading the grid                                   ... done
Mapping shells                                     ... done
Starting the XC term evaluation                    ... done (   0.1 sec)
Transforming the Hamiltonian                       ... done (   0.1 sec)
Diagonalizing the Hamiltonian                      ... done (   0.1 sec)
Back transforming the eigenvectors                 ... done (   0.0 sec)
Now organizing SCF variables                       ... done
                      ------------------
                      INITIAL GUESS DONE (   0.7 sec)
                      ------------------
--------------
SCF ITERATIONS
--------------
ITER       Energy         Delta-E        Max-DP      RMS-DP      [F,P]     Damp
               ***  Starting incremental Fock matrix formation  ***
  0   -606.1205116365   0.000000000000 0.13686991  0.00068808  0.2858575 0.7000
  1   -606.2428222519  -0.122310615360 0.10434346  0.00052509  0.1779339 0.7000
                               ***Turning on DIIS***
  2   -606.3123876502  -0.069565398263 0.07768571  0.00037365  0.1063950 0.7000
  3   -606.8595341319  -0.547146481699 0.20224443  0.00091981  0.0662229 0.0000
  4   -606.4070289496   0.452505182233 0.01935813  0.00011275  0.0087310 0.0000
  5   -606.4552581858  -0.048229236132 0.01670138  0.00006988  0.0067397 0.0000
  6   -606.4485789118   0.006679273959 0.00717109  0.00003436  0.0037005 0.0000
                      *** Initiating the SOSCF procedure ***
                           *** Shutting down DIIS ***
                      *** Re-Reading the Fockian *** 
                      *** Removing any level shift *** 
ITER      Energy       Delta-E        Grad      Rot      Max-DP    RMS-DP
  7   -606.45348147  -0.0049025602  0.001851  0.001851  0.004264  0.000021
               *** Restarting incremental Fock matrix formation ***
  8   -606.45661671  -0.0031352366  0.000822  0.001935  0.001414  0.000008
  9   -606.45663847  -0.0000217580  0.000359  0.002547  0.002170  0.000015
 10   -606.45664950  -0.0000110338  0.000163  0.000228  0.000279  0.000003
 11   -606.45665063  -0.0000011317  0.000048  0.000114  0.000075  0.000001
 12   -606.45665071  -0.0000000776  0.000006  0.000011  0.000033  0.000000
 13   -606.45665071  -0.0000000052  0.000003  0.000008  0.000018  0.000000
                  ***Gradient check signals convergence***
              ***Rediagonalizing the Fockian in SOSCF/NRSCF***

               *****************************************************
               *                     SUCCESS                       *
               *           SCF CONVERGED AFTER  14 CYCLES          *
               *****************************************************


----------------
TOTAL SCF ENERGY
----------------

Total Energy       :         -606.45665072 Eh          -16502.52444 eV

Components:
Nuclear Repulsion  :          273.76987773 Eh            7449.65711 eV
Electronic Energy  :         -880.22652845 Eh          -23952.18154 eV
One Electron Energy:        -1375.11744530 Eh          -37418.84802 eV
Two Electron Energy:          494.89091685 Eh           13466.66648 eV

Virial components:
Potential Energy   :        -1212.62299776 Eh          -32997.14931 eV
Kinetic Energy     :          606.16634704 Eh           16494.62487 eV
Virial Ratio       :            2.00047892


---------------
SCF CONVERGENCE
---------------

  Last Energy change         ...   -4.1080e-09  Tolerance :   1.0000e-08
  Last MAX-Density change    ...    2.6871e-05  Tolerance :   1.0000e-07
  Last RMS-Density change    ...    2.6251e-07  Tolerance :   5.0000e-09
  Last Orbital Gradient      ...    5.9442e-07  Tolerance :   1.0000e-05
  Last Orbital Rotation      ...    2.3168e-06  Tolerance :   1.0000e-05

             **** THE GBW FILE WAS UPDATED (4-methyl-1,3-thiazole.gbw) ****
             **** DENSITY 4-methyl-1,3-thiazole.scfp WAS UPDATED ****
             **** ENERGY FILE WAS UPDATED (4-methyl-1,3-thiazole.en.tmp) ****
             **** THE GBW FILE WAS UPDATED (4-methyl-1,3-thiazole.gbw) ****
             **** DENSITY 4-methyl-1,3-thiazole.scfp WAS UPDATED ****
----------------
ORBITAL ENERGIES
----------------

  NO   OCC          E(Eh)            E(eV) 
   0   2.0000     -91.991488     -2503.2156 
   1   2.0000     -15.567601      -423.6160 
   2   2.0000     -11.308761      -307.7270 
   3   2.0000     -11.274617      -306.7979 
   4   2.0000     -11.257759      -306.3392 
   5   2.0000     -11.227190      -305.5074 
   6   2.0000      -8.993417      -244.7233 
   7   2.0000      -6.674626      -181.6258 
   8   2.0000      -6.674120      -181.6120 
   9   2.0000      -6.673495      -181.5950 
  10   2.0000      -1.282606       -34.9015 
  11   2.0000      -1.062532       -28.9130 
  12   2.0000      -1.044547       -28.4236 
  13   2.0000      -0.927267       -25.2322 
  14   2.0000      -0.807222       -21.9656 
  15   2.0000      -0.745419       -20.2839 
  16   2.0000      -0.681325       -18.5398 
  17   2.0000      -0.594950       -16.1894 
  18   2.0000      -0.589349       -16.0370 
  19   2.0000      -0.563377       -15.3303 
  20   2.0000      -0.546730       -14.8773 
  21   2.0000      -0.534524       -14.5451 
  22   2.0000      -0.493792       -13.4368 
  23   2.0000      -0.428748       -11.6668 
  24   2.0000      -0.388782       -10.5793 
  25   2.0000      -0.333574        -9.0770 
  26   0.0000       0.026271         0.7149 
  27   0.0000       0.029866         0.8127 
  28   0.0000       0.033084         0.9003 
  29   0.0000       0.044540         1.2120 
  30   0.0000       0.049844         1.3563 
  31   0.0000       0.059734         1.6254 
  32   0.0000       0.076951         2.0939 
  33   0.0000       0.079531         2.1641 
  34   0.0000       0.084819         2.3080 
  35   0.0000       0.088113         2.3977 
  36   0.0000       0.091710         2.4956 
  37   0.0000       0.094254         2.5648 
  38   0.0000       0.103616         2.8195 
  39   0.0000       0.109962         2.9922 
  40   0.0000       0.115075         3.1314 
  41   0.0000       0.118436         3.2228 
  42   0.0000       0.118691         3.2298 
  43   0.0000       0.122043         3.3210 
  44   0.0000       0.125415         3.4127 
  45   0.0000       0.131919         3.5897 
  46   0.0000       0.135032         3.6744 
  47   0.0000       0.144454         3.9308 
  48   0.0000       0.155332         4.2268 
  49   0.0000       0.165512         4.5038 
  50   0.0000       0.172132         4.6839 
  51   0.0000       0.177248         4.8231 
  52   0.0000       0.187212         5.0943 
  53   0.0000       0.189835         5.1657 
  54   0.0000       0.206319         5.6142 
  55   0.0000       0.218841         5.9550 
  56   0.0000       0.219540         5.9740 
  57   0.0000       0.220187         5.9916 
  58   0.0000       0.224259         6.1024 
  59   0.0000       0.242065         6.5869 
  60   0.0000       0.243181         6.6173 
  61   0.0000       0.249118         6.7788 
  62   0.0000       0.260678         7.0934 
  63   0.0000       0.267116         7.2686 
  64   0.0000       0.267509         7.2793 
  65   0.0000       0.274879         7.4799 
  66   0.0000       0.276934         7.5358 
  67   0.0000       0.283284         7.7086 
  68   0.0000       0.287220         7.8157 
  69   0.0000       0.296483         8.0677 
  70   0.0000       0.296675         8.0729 
  71   0.0000       0.298065         8.1108 
  72   0.0000       0.305141         8.3033 
  73   0.0000       0.313783         8.5385 
  74   0.0000       0.321324         8.7437 
  75   0.0000       0.331209         9.0127 
  76   0.0000       0.331696         9.0259 
  77   0.0000       0.336638         9.1604 
  78   0.0000       0.339556         9.2398 
  79   0.0000       0.343435         9.3453 
  80   0.0000       0.343591         9.3496 
  81   0.0000       0.357183         9.7194 
  82   0.0000       0.359706         9.7881 
  83   0.0000       0.362449         9.8627 
  84   0.0000       0.376333        10.2406 
  85   0.0000       0.381027        10.3683 
  86   0.0000       0.387215        10.5366 
  87   0.0000       0.395200        10.7539 
  88   0.0000       0.397520        10.8171 
  89   0.0000       0.404818        11.0157 
  90   0.0000       0.405148        11.0246 
  91   0.0000       0.407850        11.0982 
  92   0.0000       0.422878        11.5071 
  93   0.0000       0.424608        11.5542 
  94   0.0000       0.426176        11.5969 
  95   0.0000       0.433571        11.7981 
  96   0.0000       0.439279        11.9534 
  97   0.0000       0.448874        12.2145 
  98   0.0000       0.451958        12.2984 
  99   0.0000       0.453667        12.3449 
 100   0.0000       0.473934        12.8964 
 101   0.0000       0.474796        12.9198 
 102   0.0000       0.477447        12.9920 
 103   0.0000       0.490126        13.3370 
 104   0.0000       0.490446        13.3457 
 105   0.0000       0.502538        13.6747 
 106   0.0000       0.520664        14.1680 
 107   0.0000       0.540402        14.7051 
 108   0.0000       0.543318        14.7844 
 109   0.0000       0.549821        14.9614 
 110   0.0000       0.561972        15.2920 
 111   0.0000       0.567434        15.4407 
 112   0.0000       0.570101        15.5132 
 113   0.0000       0.579034        15.7563 
 114   0.0000       0.581097        15.8125 
 115   0.0000       0.591811        16.1040 
 116   0.0000       0.607571        16.5329 
 117   0.0000       0.614816        16.7300 
 118   0.0000       0.624529        16.9943 
 119   0.0000       0.629677        17.1344 
 120   0.0000       0.632357        17.2073 
 121   0.0000       0.636540        17.3211 
 122   0.0000       0.638821        17.3832 
 123   0.0000       0.639782        17.4093 
 124   0.0000       0.654129        17.7998 
 125   0.0000       0.661076        17.9888 
 126   0.0000       0.670126        18.2350 
 127   0.0000       0.670496        18.2451 
 128   0.0000       0.678908        18.4740 
 129   0.0000       0.687647        18.7118 
 130   0.0000       0.708092        19.2682 
 131   0.0000       0.708496        19.2792 
 132   0.0000       0.717167        19.5151 
 133   0.0000       0.719410        19.5762 
 134   0.0000       0.728389        19.8205 
 135   0.0000       0.738482        20.0951 
 136   0.0000       0.739698        20.1282 
 137   0.0000       0.739754        20.1297 
 138   0.0000       0.742993        20.2179 
 139   0.0000       0.747340        20.3362 
 140   0.0000       0.754699        20.5364 
 141   0.0000       0.767389        20.8817 
 142   0.0000       0.772182        21.0122 
 143   0.0000       0.787033        21.4162 
 144   0.0000       0.792422        21.5629 
 145   0.0000       0.799276        21.7494 
 146   0.0000       0.804159        21.8823 
 147   0.0000       0.808133        21.9904 
 148   0.0000       0.819465        22.2988 
 149   0.0000       0.828309        22.5394 
 150   0.0000       0.839313        22.8389 
 151   0.0000       0.840419        22.8690 
 152   0.0000       0.853665        23.2294 
 153   0.0000       0.860073        23.4038 
 154   0.0000       0.861946        23.4547 
 155   0.0000       0.865432        23.5496 
 156   0.0000       0.879948        23.9446 
 157   0.0000       0.883161        24.0320 
 158   0.0000       0.884052        24.0563 
 159   0.0000       0.889082        24.1931 
 160   0.0000       0.902438        24.5566 
 161   0.0000       0.908502        24.7216 
 162   0.0000       0.911744        24.8098 
 163   0.0000       0.918856        25.0033 
 164   0.0000       0.930100        25.3093 
 165   0.0000       0.950014        25.8512 
 166   0.0000       0.957367        26.0513 
 167   0.0000       0.969040        26.3689 
 168   0.0000       0.971832        26.4449 
 169   0.0000       0.979306        26.6483 
 170   0.0000       0.987960        26.8838 
 171   0.0000       0.997378        27.1400 
 172   0.0000       1.005687        27.3661 
 173   0.0000       1.014056        27.5939 
 174   0.0000       1.025396        27.9024 
 175   0.0000       1.030703        28.0468 
 176   0.0000       1.035617        28.1806 
 177   0.0000       1.061792        28.8928 
 178   0.0000       1.065295        28.9882 
 179   0.0000       1.082385        29.4532 
 180   0.0000       1.090143        29.6643 
 181   0.0000       1.095334        29.8056 
 182   0.0000       1.112600        30.2754 
 183   0.0000       1.120783        30.4980 
 184   0.0000       1.132655        30.8211 
 185   0.0000       1.144349        31.1393 
 186   0.0000       1.144511        31.1437 
 187   0.0000       1.149292        31.2738 
 188   0.0000       1.163130        31.6504 
 189   0.0000       1.174481        31.9592 
 190   0.0000       1.176060        32.0022 
 191   0.0000       1.190122        32.3849 
 192   0.0000       1.197956        32.5980 
 193   0.0000       1.211714        32.9724 
 194   0.0000       1.213355        33.0171 
 195   0.0000       1.221140        33.2289 
 196   0.0000       1.236523        33.6475 
 197   0.0000       1.240049        33.7434 
 198   0.0000       1.247989        33.9595 
 199   0.0000       1.258214        34.2377 
 200   0.0000       1.258406        34.2430 
 201   0.0000       1.271727        34.6055 
 202   0.0000       1.276214        34.7275 
 203   0.0000       1.286574        35.0094 
 204   0.0000       1.286765        35.0147 
 205   0.0000       1.293241        35.1909 
 206   0.0000       1.321275        35.9537 
 207   0.0000       1.322360        35.9833 
 208   0.0000       1.337041        36.3827 
 209   0.0000       1.342761        36.5384 
 210   0.0000       1.390509        37.8377 
 211   0.0000       1.400868        38.1196 
 212   0.0000       1.403479        38.1906 
 213   0.0000       1.418701        38.6048 
 214   0.0000       1.429589        38.9011 
 215   0.0000       1.436578        39.0913 
 216   0.0000       1.447959        39.4010 
 217   0.0000       1.453417        39.5495 
 218   0.0000       1.466846        39.9149 
 219   0.0000       1.476401        40.1749 
 220   0.0000       1.492466        40.6121 
 221   0.0000       1.497922        40.7605 
 222   0.0000       1.499125        40.7933 
 223   0.0000       1.511950        41.1422 
 224   0.0000       1.513964        41.1970 
 225   0.0000       1.515941        41.2508 
 226   0.0000       1.532274        41.6953 
 227   0.0000       1.554615        42.3032 
 228   0.0000       1.564888        42.5828 
 229   0.0000       1.583651        43.0933 
 230   0.0000       1.587005        43.1846 
 231   0.0000       1.599563        43.5263 
 232   0.0000       1.604132        43.6507 
 233   0.0000       1.609473        43.7960 
 234   0.0000       1.617917        44.0257 
 235   0.0000       1.626906        44.2704 
 236   0.0000       1.630097        44.3572 
 237   0.0000       1.647208        44.8228 
 238   0.0000       1.652664        44.9713 
 239   0.0000       1.659662        45.1617 
 240   0.0000       1.660043        45.1721 
 241   0.0000       1.678227        45.6669 
 242   0.0000       1.698309        46.2133 
 243   0.0000       1.702398        46.3246 
 244   0.0000       1.703752        46.3615 
 245   0.0000       1.713204        46.6187 
 246   0.0000       1.736314        47.2475 
 247   0.0000       1.736906        47.2636 
 248   0.0000       1.746961        47.5372 
 249   0.0000       1.767914        48.1074 
 250   0.0000       1.775195        48.3055 
 251   0.0000       1.777227        48.3608 
 252   0.0000       1.799739        48.9734 
 253   0.0000       1.800674        48.9988 
 254   0.0000       1.815656        49.4065 
 255   0.0000       1.816029        49.4167 
 256   0.0000       1.822311        49.5876 
 257   0.0000       1.827864        49.7387 
 258   0.0000       1.856253        50.5112 
 259   0.0000       1.862196        50.6729 
 260   0.0000       1.876426        51.0601 
 261   0.0000       1.887182        51.3528 
 262   0.0000       1.892020        51.4845 
 263   0.0000       1.897958        51.6461 
 264   0.0000       1.923658        52.3454 
 265   0.0000       1.925638        52.3993 
 266   0.0000       1.943004        52.8718 
 267   0.0000       1.945943        52.9518 
 268   0.0000       1.957229        53.2589 
 269   0.0000       1.968022        53.5526 
 270   0.0000       1.985293        54.0226 
 271   0.0000       1.989175        54.1282 
 272   0.0000       2.004617        54.5484 
 273   0.0000       2.012471        54.7621 
 274   0.0000       2.016914        54.8830 
 275   0.0000       2.023720        55.0682 
 276   0.0000       2.027513        55.1714 
 277   0.0000       2.028307        55.1930 
 278   0.0000       2.053103        55.8678 
 279   0.0000       2.054487        55.9054 
 280   0.0000       2.064684        56.1829 
 281   0.0000       2.068798        56.2949 
 282   0.0000       2.092298        56.9343 
 283   0.0000       2.105720        57.2996 
 284   0.0000       2.111919        57.4682 
 285   0.0000       2.116149        57.5834 
 286   0.0000       2.118139        57.6375 
 287   0.0000       2.146576        58.4113 
 288   0.0000       2.159752        58.7698 
 289   0.0000       2.162213        58.8368 
 290   0.0000       2.172418        59.1145 
 291   0.0000       2.183972        59.4289 
 292   0.0000       2.195606        59.7455 
 293   0.0000       2.196474        59.7691 
 294   0.0000       2.218690        60.3736 
 295   0.0000       2.224615        60.5349 
 296   0.0000       2.227623        60.6167 
 297   0.0000       2.250892        61.2499 
 298   0.0000       2.253908        61.3319 
 299   0.0000       2.269276        61.7501 
 300   0.0000       2.276923        61.9582 
 301   0.0000       2.285662        62.1960 
 302   0.0000       2.294737        62.4430 
 303   0.0000       2.300174        62.5909 
 304   0.0000       2.304536        62.7096 
 305   0.0000       2.316631        63.0387 
 306   0.0000       2.323261        63.2191 
 307   0.0000       2.338992        63.6472 
 308   0.0000       2.341296        63.7099 
 309   0.0000       2.350187        63.9518 
 310   0.0000       2.350222        63.9528 
 311   0.0000       2.365338        64.3641 
 312   0.0000       2.376329        64.6632 
 313   0.0000       2.379809        64.7579 
 314   0.0000       2.392112        65.0927 
 315   0.0000       2.404447        65.4283 
 316   0.0000       2.410112        65.5825 
 317   0.0000       2.416614        65.7594 
 318   0.0000       2.436686        66.3056 
 319   0.0000       2.443356        66.4871 
 320   0.0000       2.443363        66.4873 
 321   0.0000       2.484857        67.6164 
 322   0.0000       2.486828        67.6700 
 323   0.0000       2.508464        68.2588 
 324   0.0000       2.516083        68.4661 
 325   0.0000       2.527188        68.7683 
 326   0.0000       2.542679        69.1898 
 327   0.0000       2.548262        69.3417 
 328   0.0000       2.557696        69.5984 
 329   0.0000       2.573162        70.0193 
 330   0.0000       2.576951        70.1224 
 331   0.0000       2.596365        70.6507 
 332   0.0000       2.612068        71.0780 
 333   0.0000       2.619578        71.2824 
 334   0.0000       2.619657        71.2845 
 335   0.0000       2.641152        71.8694 
 336   0.0000       2.656197        72.2788 
 337   0.0000       2.679535        72.9139 
 338   0.0000       2.711617        73.7868 
 339   0.0000       2.723021        74.0972 
 340   0.0000       2.728059        74.2343 
 341   0.0000       2.741336        74.5955 
 342   0.0000       2.742649        74.6313 
 343   0.0000       2.752258        74.8927 
 344   0.0000       2.777740        75.5861 
 345   0.0000       2.777998        75.5932 
 346   0.0000       2.792206        75.9798 
 347   0.0000       2.798079        76.1396 
 348   0.0000       2.814747        76.5932 
 349   0.0000       2.824308        76.8533 
 350   0.0000       2.836909        77.1962 
 351   0.0000       2.858958        77.7962 
 352   0.0000       2.863558        77.9214 
 353   0.0000       2.873618        78.1951 
 354   0.0000       2.889462        78.6263 
 355   0.0000       2.906174        79.0810 
 356   0.0000       2.932808        79.8058 
 357   0.0000       2.938730        79.9669 
 358   0.0000       2.947804        80.2138 
 359   0.0000       2.966745        80.7292 
 360   0.0000       2.967474        80.7491 
 361   0.0000       2.982338        81.1536 
 362   0.0000       2.998668        81.5979 
 363   0.0000       3.001269        81.6687 
 364   0.0000       3.021378        82.2159 
 365   0.0000       3.045898        82.8831 
 366   0.0000       3.053702        83.0954 
 367   0.0000       3.057776        83.2063 
 368   0.0000       3.077993        83.7565 
 369   0.0000       3.099435        84.3399 
 370   0.0000       3.099883        84.3521 
 371   0.0000       3.119781        84.8936 
 372   0.0000       3.134967        85.3068 
 373   0.0000       3.148404        85.6724 
 374   0.0000       3.156791        85.9006 
 375   0.0000       3.166537        86.1659 
 376   0.0000       3.178861        86.5012 
 377   0.0000       3.183783        86.6351 
 378   0.0000       3.197663        87.0128 
 379   0.0000       3.201727        87.1234 
 380   0.0000       3.237242        88.0898 
 381   0.0000       3.237642        88.1007 
 382   0.0000       3.247885        88.3794 
 383   0.0000       3.254592        88.5620 
 384   0.0000       3.288003        89.4711 
 385   0.0000       3.301650        89.8425 
 386   0.0000       3.325810        90.4999 
 387   0.0000       3.342519        90.9546 
 388   0.0000       3.354522        91.2812 
 389   0.0000       3.367533        91.6352 
 390   0.0000       3.396000        92.4099 
 391   0.0000       3.399169        92.4961 
 392   0.0000       3.415349        92.9364 
 393   0.0000       3.434658        93.4618 
 394   0.0000       3.468652        94.3868 
 395   0.0000       3.481865        94.7464 
 396   0.0000       3.504018        95.3492 
 397   0.0000       3.505072        95.3778 
 398   0.0000       3.533691        96.1566 
 399   0.0000       3.550346        96.6098 
 400   0.0000       3.590956        97.7149 
 401   0.0000       3.592703        97.7624 
 402   0.0000       3.628539        98.7376 
 403   0.0000       3.633943        98.8846 
 404   0.0000       3.637161        98.9722 
 405   0.0000       3.679851       100.1338 
 406   0.0000       3.690835       100.4327 
 407   0.0000       3.692775       100.4855 
 408   0.0000       3.699727       100.6747 
 409   0.0000       3.734708       101.6266 
 410   0.0000       3.735843       101.6575 
 411   0.0000       3.762060       102.3709 
 412   0.0000       3.790181       103.1361 
 413   0.0000       3.804536       103.5267 
 414   0.0000       3.823383       104.0395 
 415   0.0000       3.824742       104.0765 
 416   0.0000       3.855161       104.9043 
 417   0.0000       3.863632       105.1348 
 418   0.0000       3.877888       105.5227 
 419   0.0000       3.879805       105.5749 
 420   0.0000       3.894605       105.9776 
 421   0.0000       3.907004       106.3150 
 422   0.0000       3.914495       106.5188 
 423   0.0000       3.939676       107.2040 
 424   0.0000       3.970015       108.0296 
 425   0.0000       3.988219       108.5250 
 426   0.0000       4.000830       108.8681 
 427   0.0000       4.012386       109.1826 
 428   0.0000       4.015907       109.2784 
 429   0.0000       4.019312       109.3710 
 430   0.0000       4.034024       109.7714 
 431   0.0000       4.048920       110.1767 
 432   0.0000       4.055252       110.3490 
 433   0.0000       4.086569       111.2012 
 434   0.0000       4.097973       111.5115 
 435   0.0000       4.102302       111.6293 
 436   0.0000       4.109695       111.8305 
 437   0.0000       4.134997       112.5190 
 438   0.0000       4.137777       112.5946 
 439   0.0000       4.165554       113.3505 
 440   0.0000       4.166651       113.3803 
 441   0.0000       4.171621       113.5156 
 442   0.0000       4.196146       114.1829 
 443   0.0000       4.207186       114.4834 
 444   0.0000       4.246023       115.5401 
 445   0.0000       4.257409       115.8500 
 446   0.0000       4.261646       115.9653 
 447   0.0000       4.285884       116.6248 
 448   0.0000       4.299075       116.9838 
 449   0.0000       4.321992       117.6074 
 450   0.0000       4.346790       118.2822 
 451   0.0000       4.352020       118.4245 
 452   0.0000       4.376548       119.0919 
 453   0.0000       4.401906       119.7819 
 454   0.0000       4.415514       120.1523 
 455   0.0000       4.431265       120.5808 
 456   0.0000       4.434439       120.6672 
 457   0.0000       4.456115       121.2571 
 458   0.0000       4.457118       121.2844 
 459   0.0000       4.504486       122.5733 
 460   0.0000       4.518199       122.9464 
 461   0.0000       4.524263       123.1115 
 462   0.0000       4.544197       123.6539 
 463   0.0000       4.551095       123.8416 
 464   0.0000       4.584013       124.7373 
 465   0.0000       4.586052       124.7928 
 466   0.0000       4.637472       126.1920 
 467   0.0000       4.640039       126.2619 
 468   0.0000       4.653951       126.6404 
 469   0.0000       4.683732       127.4508 
 470   0.0000       4.710476       128.1786 
 471   0.0000       4.713936       128.2727 
 472   0.0000       4.733587       128.8075 
 473   0.0000       4.765869       129.6859 
 474   0.0000       4.766283       129.6972 
 475   0.0000       4.807741       130.8253 
 476   0.0000       4.832016       131.4858 
 477   0.0000       4.836445       131.6064 
 478   0.0000       4.853491       132.0702 
 479   0.0000       4.856852       132.1617 
 480   0.0000       4.907336       133.5354 
 481   0.0000       4.920834       133.9027 
 482   0.0000       4.960401       134.9794 
 483   0.0000       4.975383       135.3870 
 484   0.0000       5.003221       136.1446 
 485   0.0000       5.082629       138.3054 
 486   0.0000       5.089355       138.4884 
 487   0.0000       5.109533       139.0375 
 488   0.0000       5.130555       139.6095 
 489   0.0000       5.143123       139.9515 
 490   0.0000       5.161655       140.4558 
 491   0.0000       5.219560       142.0314 
 492   0.0000       5.221721       142.0902 
 493   0.0000       5.268681       143.3681 
 494   0.0000       5.311733       144.5396 
 495   0.0000       5.319728       144.7572 
 496   0.0000       5.370447       146.1373 
 497   0.0000       5.406365       147.1147 
 498   0.0000       5.421588       147.5289 
 499   0.0000       5.479661       149.1092 
 500   0.0000       5.545660       150.9051 
 501   0.0000       5.652379       153.8090 
 502   0.0000       5.765097       156.8763 
 503   0.0000       5.842042       158.9700 
 504   0.0000       5.978371       162.6797 
 505   0.0000       6.002723       163.3424 
 506   0.0000       6.034817       164.2157 
 507   0.0000       6.087568       165.6511 
 508   0.0000       6.104366       166.1082 
 509   0.0000       6.190091       168.4409 
 510   0.0000       6.222895       169.3336 
 511   0.0000       6.237744       169.7377 
 512   0.0000       6.273957       170.7230 
 513   0.0000       6.275982       170.7781 
 514   0.0000       6.305623       171.5847 
 515   0.0000       6.342174       172.5793 
 516   0.0000       6.358971       173.0364 
 517   0.0000       6.399117       174.1288 
 518   0.0000       6.406685       174.3347 
 519   0.0000       6.420247       174.7038 
 520   0.0000       6.438746       175.2072 
 521   0.0000       6.453872       175.6188 
 522   0.0000       6.479282       176.3102 
 523   0.0000       6.542899       178.0413 
 524   0.0000       6.552357       178.2987 
 525   0.0000       6.554821       178.3657 
 526   0.0000       6.561708       178.5531 
 527   0.0000       6.592091       179.3799 
 528   0.0000       6.610757       179.8878 
 529   0.0000       6.646747       180.8672 
 530   0.0000       6.647169       180.8787 
 531   0.0000       6.691540       182.0861 
 532   0.0000       6.693827       182.1483 
 533   0.0000       6.694772       182.1740 
 534   0.0000       6.733923       183.2394 
 535   0.0000       6.736460       183.3084 
 536   0.0000       6.753361       183.7683 
 537   0.0000       6.760672       183.9672 
 538   0.0000       6.772453       184.2878 
 539   0.0000       6.804954       185.1722 
 540   0.0000       6.807642       185.2454 
 541   0.0000       6.838393       186.0821 
 542   0.0000       6.859636       186.6602 
 543   0.0000       6.861703       186.7164 
 544   0.0000       6.895001       187.6225 
 545   0.0000       6.907192       187.9543 
 546   0.0000       6.930892       188.5991 
 547   0.0000       6.962477       189.4586 
 548   0.0000       6.973081       189.7472 
 549   0.0000       6.979282       189.9159 
 550   0.0000       6.993835       190.3119 
 551   0.0000       6.995387       190.3541 
 552   0.0000       7.021441       191.0631 
 553   0.0000       7.030157       191.3003 
 554   0.0000       7.053326       191.9308 
 555   0.0000       7.058783       192.0792 
 556   0.0000       7.144492       194.4115 
 557   0.0000       7.146565       194.4679 
 558   0.0000       7.156774       194.7457 
 559   0.0000       7.166112       194.9998 
 560   0.0000       7.183165       195.4639 
 561   0.0000       7.193998       195.7586 
 562   0.0000       7.200340       195.9312 
 563   0.0000       7.207392       196.1231 
 564   0.0000       7.215218       196.3361 
 565   0.0000       7.234043       196.8483 
 566   0.0000       7.272132       197.8848 
 567   0.0000       7.283585       198.1964 
 568   0.0000       7.312957       198.9957 
 569   0.0000       7.327275       199.3853 
 570   0.0000       7.345407       199.8787 
 571   0.0000       7.368931       200.5188 
 572   0.0000       7.384957       200.9549 
 573   0.0000       7.408660       201.5999 
 574   0.0000       7.469197       203.2472 
 575   0.0000       7.473228       203.3569 
 576   0.0000       7.514397       204.4771 
 577   0.0000       7.534695       205.0295 
 578   0.0000       7.578782       206.2291 
 579   0.0000       7.604615       206.9321 
 580   0.0000       7.638631       207.8577 
 581   0.0000       7.646665       208.0763 
 582   0.0000       7.723953       210.1794 
 583   0.0000       7.730278       210.3516 
 584   0.0000       7.737624       210.5515 
 585   0.0000       7.756410       211.0627 
 586   0.0000       7.794476       212.0985 
 587   0.0000       7.805894       212.4092 
 588   0.0000       7.807009       212.4395 
 589   0.0000       7.854389       213.7288 
 590   0.0000       7.859441       213.8663 
 591   0.0000       7.885962       214.5879 
 592   0.0000       7.943807       216.1620 
 593   0.0000       7.952433       216.3967 
 594   0.0000       7.978774       217.1135 
 595   0.0000       8.005593       217.8433 
 596   0.0000       8.034790       218.6377 
 597   0.0000       8.064985       219.4594 
 598   0.0000       8.094003       220.2490 
[...]
      dz2     :     0.005381  d :     0.079105
      dxz     :     0.020043
      dyz     :     0.027010
      dx2y2   :     0.031735
      dxy     :    -0.005063
      f0      :     0.003667  f :     0.001759
      f+1     :     0.000446
      f-1     :    -0.001461
      f+2     :     0.002342
      f-2     :     0.001230
      f+3     :    -0.007912
      f-3     :     0.003448
      g0      :     0.000012  g :     0.001493
      g+1     :     0.000351
      g-1     :     0.000379
      g+2     :     0.000078
      g-2     :     0.000044
      g+3     :     0.000116
      g-3     :     0.000415
      g+4     :     0.000207
      g-4     :    -0.000110
  9 H s       :     0.498432  s :     0.498432
      pz      :     0.023312  p :     0.050572
      px      :     0.012210
      py      :     0.015050
      dz2     :     0.001172  d :     0.012644
      dxz     :     0.004339
      dyz     :     0.000439
      dx2y2   :     0.002751
      dxy     :     0.003943
      f0      :     0.000801  f :     0.001521
      f+1     :    -0.000154
      f-1     :     0.000282
      f+2     :    -0.000091
      f-2     :     0.000073
      f+3     :     0.000412
      f-3     :     0.000197
 10 C s       :     3.473350  s :     3.473350
      pz      :     1.119083  p :     3.273671
      px      :     1.218502
      py      :     0.936086
      dz2     :     0.009471  d :     0.094807
      dxz     :     0.030253
      dyz     :     0.015500
      dx2y2   :     0.016359
      dxy     :     0.023224
      f0      :     0.004947  f :     0.002181
      f+1     :     0.000795
      f-1     :     0.000557
      f+2     :     0.003724
      f-2     :    -0.002689
      f+3     :    -0.003612
      f-3     :    -0.001541
      g0      :     0.000011  g :     0.007128
      g+1     :     0.000661
      g-1     :     0.000380
      g+2     :     0.000424
      g-2     :     0.000199
      g+3     :     0.000969
      g-3     :     0.000529
      g+4     :     0.002910
      g-4     :     0.001045


                     *******************************
                     * LOEWDIN POPULATION ANALYSIS *
                     *******************************

----------------------
LOEWDIN ATOMIC CHARGES
----------------------
   0 H :   -0.424706
   1 C :   -0.502669
   2 C :   -0.338721
   3 H :   -0.295799
   4 H :   -0.312224
   5 H :   -0.295799
   6 C :    0.879605
   7 S :    1.321710
   8 N :    0.479718
   9 H :   -0.407425
  10 C :   -0.103689

-------------------------------
LOEWDIN REDUCED ORBITAL CHARGES
-------------------------------
  0 H s       :     0.696129  s :     0.696129
      pz      :     0.081605  p :     0.321519
      px      :     0.137730
      py      :     0.102184
      dz2     :     0.031476  d :     0.275312
      dxz     :     0.046323
      dyz     :     0.038758
      dx2y2   :     0.104927
      dxy     :     0.053828
      f0      :     0.014739  f :     0.131745
      f+1     :     0.010753
      f-1     :     0.010104
      f+2     :     0.004698
      f-2     :     0.016569
      f+3     :     0.050292
      f-3     :     0.024591
  1 C s       :     2.397270  s :     2.397270
      pz      :     0.508514  p :     2.032977
      px      :     0.750760
      py      :     0.773703
      dz2     :     0.091733  d :     1.083303
      dxz     :     0.152605
      dyz     :     0.170573
      dx2y2   :     0.359785
      dxy     :     0.308606
      f0      :     0.061770  f :     0.768691
      f+1     :     0.049485
      f-1     :     0.042473
      f+2     :     0.089816
      f-2     :     0.097566
      f+3     :     0.282349
      f-3     :     0.145233
      g0      :     0.007623  g :     0.220427
      g+1     :     0.019940
      g-1     :     0.018496
      g+2     :     0.014381
      g-2     :     0.015916
      g+3     :     0.004387
      g-3     :     0.022969
      g+4     :     0.059189
      g-4     :     0.057527
  2 C s       :     2.477989  s :     2.477989
      pz      :     0.520536  p :     2.125624
      px      :     0.773872
      py      :     0.831216
      dz2     :     0.081399  d :     0.974543
      dxz     :     0.123489
      dyz     :     0.150477
      dx2y2   :     0.218361
      dxy     :     0.400817
      f0      :     0.051944  f :     0.591124
      f+1     :     0.033312
      f-1     :     0.041722
      f+2     :     0.095761
      f-2     :     0.051509
      f+3     :     0.181731
      f-3     :     0.135145
      g0      :     0.006095  g :     0.169440
      g+1     :     0.010729
      g-1     :     0.017969
      g+2     :     0.012313
      g-2     :     0.012960
      g+3     :     0.002864
      g-3     :     0.017168
      g+4     :     0.031430
      g-4     :     0.057912
  3 H s       :     0.594886  s :     0.594886
      pz      :     0.125651  p :     0.302739
      px      :     0.095316
      py      :     0.081772
      dz2     :     0.093790  d :     0.271817
      dxz     :     0.054363
      dyz     :     0.047879
      dx2y2   :     0.053863
      dxy     :     0.021923
      f0      :     0.045212  f :     0.126357
      f+1     :     0.010547
      f-1     :     0.010210
      f+2     :     0.031472
      f-2     :     0.013086
      f+3     :     0.011751
      f-3     :     0.004077
  4 H s       :     0.596587  s :     0.596587
      pz      :     0.082164  p :     0.305563
      px      :     0.142158
      py      :     0.081241
      dz2     :     0.018871  d :     0.281635
      dxz     :     0.103091
      dyz     :     0.010801
      dx2y2   :     0.080173
      dxy     :     0.068700
      f0      :     0.017444  f :     0.128439
      f+1     :     0.007278
      f-1     :     0.005830
      f+2     :     0.033073
      f-2     :     0.003841
      f+3     :     0.041780
      f-3     :     0.019194
  5 H s       :     0.594886  s :     0.594886
      pz      :     0.125651  p :     0.302739
      px      :     0.095316
      py      :     0.081772
      dz2     :     0.093790  d :     0.271817
      dxz     :     0.054363
      dyz     :     0.047879
      dx2y2   :     0.053863
      dxy     :     0.021923
      f0      :     0.045212  f :     0.126357
      f+1     :     0.010547
      f-1     :     0.010210
      f+2     :     0.031472
      f-2     :     0.013086
      f+3     :     0.011751
      f-3     :     0.004077
  6 C s       :     2.379834  s :     2.379834
      pz      :     0.658808  p :     1.952604
      px      :     0.659484
      py      :     0.634312
      dz2     :     0.079431  d :     0.478664
      dxz     :     0.054533
      dyz     :     0.116242
      dx2y2   :     0.109920
      dxy     :     0.118538
      f0      :     0.024794  f :     0.241402
      f+1     :     0.019648
      f-1     :     0.033610
      f+2     :     0.031208
      f-2     :     0.018002
      f+3     :     0.072025
      f-3     :     0.042115
      g0      :     0.003647  g :     0.067892
      g+1     :     0.002442
      g-1     :     0.011091
      g+2     :     0.005645
      g-2     :     0.006962
      g+3     :     0.001208
      g-3     :     0.005962
      g+4     :     0.009270
      g-4     :     0.021664
  7 S s       :     4.808521  s :     4.808521
      pz      :     3.027165  p :     8.777755
      px      :     2.763918
      py      :     2.986672
      dz2     :     0.063064  d :     0.561352
      dxz     :     0.082398
      dyz     :     0.090709
      dx2y2   :     0.170441
      dxy     :     0.154740
      f0      :     0.030023  f :     0.388089
      f+1     :     0.033056
      f-1     :     0.027280
      f+2     :     0.054364
      f-2     :     0.036391
      f+3     :     0.110639
      f-3     :     0.096334
      g0      :     0.005666  g :     0.142573
      g+1     :     0.011731
      g-1     :     0.012098
      g+2     :     0.010139
      g-2     :     0.009544
      g+3     :     0.002897
      g-3     :     0.014984
      g+4     :     0.055251
      g-4     :     0.020263
  8 N s       :     2.693844  s :     2.693844
      pz      :     0.739167  p :     2.802375
      px      :     1.056443
      py      :     1.006765
      dz2     :     0.058950  d :     0.596037
      dxz     :     0.067680
      dyz     :     0.093784
      dx2y2   :     0.182283
      dxy     :     0.193340
      f0      :     0.022941  f :     0.344181
      f+1     :     0.020074
      f-1     :     0.027312
      f+2     :     0.054148
      f-2     :     0.021587
      f+3     :     0.140642
      f-3     :     0.057477
      g0      :     0.003878  g :     0.083845
      g+1     :     0.005049
      g-1     :     0.007315
      g+2     :     0.007574
      g-2     :     0.005833
      g+3     :     0.002522
      g-3     :     0.006318
      g+4     :     0.025528
      g-4     :     0.019828
  9 H s       :     0.674772  s :     0.674772
      pz      :     0.097031  p :     0.330496
      px      :     0.143099
      py      :     0.090366
      dz2     :     0.028172  d :     0.275739
      dxz     :     0.078702
      dyz     :     0.011237
      dx2y2   :     0.066352
      dxy     :     0.091276
      f0      :     0.014906  f :     0.126418
      f+1     :     0.013803
      f-1     :     0.005346
      f+2     :     0.018009
      f-2     :     0.004586
      f+3     :     0.037986
      f-3     :     0.031781
 10 C s       :     2.460377  s :     2.460377
      pz      :     0.593382  p :     2.178083
      px      :     0.838074
      py      :     0.746626
      dz2     :     0.076610  d :     0.807655
      dxz     :     0.056108
      dyz     :     0.171523
      dx2y2   :     0.316879
      dxy     :     0.186535
      f0      :     0.046875  f :     0.521637
      f+1     :     0.030431
      f-1     :     0.041036
      f+2     :     0.072424
      f-2     :     0.060654
      f+3     :     0.123473
      f-3     :     0.146744
      g0      :     0.006062  g :     0.135937
      g+1     :     0.005835
      g-1     :     0.016007
      g+2     :     0.011027
      g-2     :     0.010114
      g+3     :     0.008597
      g-3     :     0.008015
      g+4     :     0.037993
      g-4     :     0.032288


                      *****************************
                      * MAYER POPULATION ANALYSIS *
                      *****************************

  NA   - Mulliken gross atomic population
  ZA   - Total nuclear charge
  QA   - Mulliken gross atomic charge
  VA   - Mayer's total valence
  BVA  - Mayer's bonded valence
  FA   - Mayer's free valence

  ATOM       NA         ZA         QA         VA         BVA        FA
  0 H      0.4095     1.0000     0.5905     0.6356     0.6356    -0.0000
  1 C      5.4766     6.0000     0.5234     2.2179     2.2179    -0.0000
  2 C      6.6496     6.0000    -0.6496     3.5047     3.5047     0.0000
  3 H      0.7356     1.0000     0.2644     0.9830     0.9830    -0.0000
  4 H      0.7707     1.0000     0.2293     1.0112     1.0112    -0.0000
  5 H      0.7356     1.0000     0.2644     0.9830     0.9830    -0.0000
  6 C      6.6659     6.0000    -0.6659     3.5786     3.5786    -0.0000
  7 S     15.6615    16.0000     0.3385     2.3362     2.3362     0.0000
  8 N      7.4807     7.0000    -0.4807     2.5635     2.5635     0.0000
  9 H      0.5632     1.0000     0.4368     0.8483     0.8483     0.0000
 10 C      6.8511     6.0000    -0.8511     3.3091     3.3091     0.0000

  Mayer bond orders larger than 0.100000
B(  0-H ,  2-C ) :   0.6292 B(  1-C ,  4-H ) :  -0.1360 B(  1-C ,  6-C ) :   0.6617 
B(  1-C ,  7-S ) :  -0.2879 B(  1-C ,  8-N ) :   0.9038 B(  1-C , 10-C ) :   1.2277 
B(  2-C ,  7-S ) :   1.2760 B(  2-C ,  8-N ) :   1.6411 B(  3-H ,  6-C ) :   0.9584 
B(  4-H ,  6-C ) :   1.0582 B(  5-H ,  6-C ) :   0.9584 B(  7-S , 10-C ) :   1.2466 
B(  9-H , 10-C ) :   0.7828 

-------
TIMINGS
-------

Total SCF time: 0 days 0 hours 13 min 44 sec 

Total time                  ....     824.566 sec
Sum of individual times     ....     822.330 sec  ( 99.7%)

Fock matrix formation       ....     818.306 sec  ( 99.2%)
Diagonalization             ....       1.333 sec  (  0.2%)
Density matrix formation    ....       0.077 sec  (  0.0%)
Population analysis         ....       0.282 sec  (  0.0%)
Initial guess               ....       0.529 sec  (  0.1%)
Orbital Transformation      ....       0.000 sec  (  0.0%)
Orbital Orthonormalization  ....       0.000 sec  (  0.0%)
DIIS solution               ....       0.797 sec  (  0.1%)
SOSCF solution              ....       0.877 sec  (  0.1%)

Maximum memory used throughout the entire SCF-calculation: 272.0 MB


           ************************************************************
           *        Program running with 16 parallel MPI-processes    *
           *              working on a common directory               *
           ************************************************************

------------------------------------------------------------------------------
                                ORCA  MP2 
------------------------------------------------------------------------------

Freezing NCore=20 chemical core electrons

-------------
RI-MP2 ENERGY
-------------
Dimension of the basis                    ...  714
Memory devoted to MP2                     ...  256 MB   
Data format for buffers                   ... DOUBLE
Compression type for matrix containers    ... UNCOMPRESSED
Overall scaling of the MP2 energy         ...   1.000e+00
Calculating two index integrals           ... done (    0.018 sec)
Cholesky decomposition of V**-1           ... done (    0.180 sec)

-----------------
RI-TRANSFORMATION (AUX index driven)
-----------------

Dimension of the orbital-basis         ... 714
Dimension of the aux-basis             ... 1434
Transformation of internal/external MOs...   10-  25 to   26- 713
Number Format for Storage              ... Double (8 Byte)
Integral mode                          ... Direct

First Phase: integral generation and transformation of MO indices
  Aux angular momentum 0               ... done (    0.050 sec)
  Aux angular momentum 1               ... done (    0.090 sec)
  Aux angular momentum 2               ... done (    0.132 sec)
  Aux angular momentum 3               ... done (    0.198 sec)
  Aux angular momentum 4               ... done (    0.216 sec)
  Aux angular momentum 5               ... done (    0.117 sec)
Closing buffer VIA ( 0.12 GB; CompressionRatio= 1.00)
  Phase 1 completed in     0.975 sec
Second Phase: sorting and transformation of aux index

IA-Transformation
Memory available                       ... 190 MB 
Max. # MO pairs treated in a batch     ... 1    
# of internal orbitals                 ... 16
# batches for internal orbitals        ... 1
Closing buffer IAV ( 0.12 GB; CompressionRatio= 1.00)
(ia|v) transformation done in     0.180 sec

  Phase 2 completed in     0.259 sec
RI-Integral transformation completed in     1.251 sec
Opening buffers                              ... done

Starting loop over batches of integrals:

Operator 0  - window                       ... ( 10- 25)x( 26-713)
Operator 0  - Memory available             ...   256 MB
Operator 0  - Memory needed per MO         ...   7.5 MB
Operator 0  - Number of orbitals per batch ... 1
Operator 0  - Number of batches            ... 1

OPERATOR  0   PASS   0:  MOs    10 ...   10 +   11 ...   11 +   12 ...   12 +   13 ...   13
                            +   14 ...   14 +   15 ...   15 +   16 ...   16 +   17 ...   17
                            +   18 ...   18 +   19 ...   19 +   20 ...   20 +   21 ...   21
                            +   22 ...   22 +   23 ...   23 +   24 ...   24 +   25 ...   25
  Reading integrals       ... ok
Time spent in pair loops =     0.046 sec
Deleting buffer (Ka|jb)[aa] ...done

-----------------------------------------------
 RI-MP2 CORRELATION ENERGY:     -1.100050243 Eh
-----------------------------------------------


-------
TIMINGS
-------

Total time                :    2.184 sec
Integral trafo            :    1.262 sec ( 57.8%)
I/O of integrals          :    0.002 sec (  0.1%)
K(i,j) Operators          :    0.034 sec (  1.5%)
T(i,j) pair energies      :    0.002 sec (  0.1%)
V-calculation             :    0.018 sec (  0.8%)
V**(-1/2)                 :    0.180 sec (  8.2%)
Gamma(ia|P)               :    0.000 sec (  0.0%)
Gamma-Trafo               :    0.000 sec (  0.0%)
D(virtual)                :    0.000 sec (  0.0%)
D(internal)               :    0.000 sec (  0.0%)
W(virtual)                :    0.000 sec (  0.0%)
W(internal)               :    0.000 sec (  0.0%)
L(virtual)                :    0.000 sec (  0.0%)
L(internal)               :    0.000 sec (  0.0%)
G(D)                      :    0.000 sec (  0.0%)
G(Z)                      :    0.000 sec (  0.0%)
Z-Vector Solution         :    0.000 sec (  0.0%)
3-Index Derivative        :    0.000 sec (  0.0%)
2-Index Derivative        :    0.000 sec (  0.0%)
Separable Gradient        :    0.000 sec (  0.0%)


---------------------------------------
MP2 TOTAL ENERGY:     -607.556700962 Eh
---------------------------------------

Maximum memory used throughout the entire MP2-calculation: 163.8 MB

-------------------------   --------------------
FINAL SINGLE POINT ENERGY      -607.556700962276
-------------------------   --------------------


                            ***************************************
                            *     ORCA property calculations      *
                            ***************************************


  WARNING: The energy has been calculated at the MP2 level but the densities
           used in the property calculations are still SCF densities
           MP2 response densities have not been calculated 
           use %mp2 Density relaxed end
           or  %mp2 Density unrelaxed end

                                    ---------------------
                                    Active property flags
                                    ---------------------
   (+) Dipole Moment


------------------------------------------------------------------------------
                       ORCA ELECTRIC PROPERTIES CALCULATION
------------------------------------------------------------------------------

Dipole Moment Calculation                       ... on
Quadrupole Moment Calculation                   ... off
Polarizability Calculation                      ... off
GBWName                                         ... 4-methyl-1,3-thiazole.gbw
Electron density                                ... 4-methyl-1,3-thiazole.scfp
The origin for moment calculation is the CENTER OF MASS  = ( 0.006985, -0.136969  0.000000)

-------------
DIPOLE MOMENT
-------------
                                X             Y             Z
Electronic contribution:     -0.10045      -7.17371       0.00000
Nuclear contribution   :     -0.36324       7.12242       0.00000
                        -----------------------------------------
Total Dipole Moment    :     -0.46369      -0.05129       0.00000
                        -----------------------------------------
Magnitude (a.u.)       :      0.46652
Magnitude (Debye)      :      1.18580



--------------------
Rotational spectrum 
--------------------
 
Rotational constants in cm-1:     0.244294     0.084026     0.063251 
Rotational constants in MHz :  7323.739584  2519.042445  1896.224457 

 Dipole components along the rotational axes: 
x,y,z [a.u.] :     0.088284     0.458092     0.000000 
x,y,z [Debye]:     0.224400     1.164378     0.000000 

 

Timings for individual modules:

Sum of individual times         ...      832.185 sec (=  13.870 min)
GTO integral calculation        ...        3.115 sec (=   0.052 min)   0.4 %
SCF iterations                  ...      825.582 sec (=  13.760 min)  99.2 %
MP2 module                      ...        3.488 sec (=   0.058 min)   0.4 %
                             ****ORCA TERMINATED NORMALLY****
TOTAL RUN TIME: 0 days 0 hours 13 minutes 55 seconds 177 msec
