
                                 *****************
                                 * O   R   C   A *
                                 *****************

                                            #,                                       
                                            ###                                      
                                            ####                                     
                                            #####                                    
                                            ######                                   
                                           ########,                                 
                                     ,,################,,,,,                         
                               ,,#################################,,                 
                          ,,##########################################,,             
                       ,#########################################, ''#####,          
                    ,#############################################,,   '####,        
                  ,##################################################,,,,####,       
                ,###########''''           ''''###############################       
              ,#####''   ,,,,##########,,,,          '''####'''          '####       
            ,##' ,,,,###########################,,,                        '##       
           ' ,,###''''                  '''############,,,                           
         ,,##''                                '''############,,,,        ,,,,,,###''
      ,#''                                            '''#######################'''  
     '                                                          ''''####''''         
             ,#######,   #######,   ,#######,      ##                                
            ,#'     '#,  ##    ##  ,#'     '#,    #''#        ######   ,####,        
            ##       ##  ##   ,#'  ##            #'  '#       #        #'  '#        
            ##       ##  #######   ##           ,######,      #####,   #    #        
            '#,     ,#'  ##    ##  '#,     ,#' ,#      #,         ##   #,  ,#        
             '#######'   ##     ##  '#######'  #'      '#     #####' # '####'        



                  #######################################################
                  #                        -***-                        #
                  #          Department of theory and spectroscopy      #
                  #    Directorship and core code : Frank Neese         #
                  #        Max Planck Institute fuer Kohlenforschung    #
                  #                Kaiser Wilhelm Platz 1               #
                  #                 D-45470 Muelheim/Ruhr               #
                  #                      Germany                        #
                  #                                                     #
                  #                  All rights reserved                #
                  #                        -***-                        #
                  #######################################################


                         Program Version 5.0.4 -  RELEASE  -


 With contributions from (in alphabetic order):
   Daniel Aravena         : Magnetic Suceptibility
   Michael Atanasov       : Ab Initio Ligand Field Theory (pilot matlab implementation)
   Alexander A. Auer      : GIAO ZORA, VPT2 properties, NMR spectrum
   Ute Becker             : Parallelization
   Giovanni Bistoni       : ED, misc. LED, open-shell LED, HFLD
   Martin Brehm           : Molecular dynamics
   Dmytro Bykov           : SCF Hessian
   Vijay G. Chilkuri      : MRCI spin determinant printing, contributions to CSF-ICE
   Dipayan Datta          : RHF DLPNO-CCSD density
   Achintya Kumar Dutta   : EOM-CC, STEOM-CC
   Dmitry Ganyushin       : Spin-Orbit,Spin-Spin,Magnetic field MRCI
   Miquel Garcia          : C-PCM and meta-GGA Hessian, CC/C-PCM, Gaussian charge scheme
   Yang Guo               : DLPNO-NEVPT2, F12-NEVPT2, CIM, IAO-localization
   Andreas Hansen         : Spin unrestricted coupled pair/coupled cluster methods
   Benjamin Helmich-Paris : MC-RPA, TRAH-SCF, COSX integrals
   Lee Huntington         : MR-EOM, pCC
   Robert Izsak           : Overlap fitted RIJCOSX, COSX-SCS-MP3, EOM
   Marcus Kettner         : VPT2
   Christian Kollmar      : KDIIS, OOCD, Brueckner-CCSD(T), CCSD density, CASPT2, CASPT2-K
   Simone Kossmann        : Meta GGA functionals, TD-DFT gradient, OOMP2, MP2 Hessian
   Martin Krupicka        : Initial AUTO-CI
   Lucas Lang             : DCDCAS
   Marvin Lechner         : AUTO-CI (C++ implementation), FIC-MRCC
   Dagmar Lenk            : GEPOL surface, SMD
   Dimitrios Liakos       : Extrapolation schemes; Compound Job, initial MDCI parallelization
   Dimitrios Manganas     : Further ROCIS development; embedding schemes
   Dimitrios Pantazis     : SARC Basis sets
   Anastasios Papadopoulos: AUTO-CI, single reference methods and gradients
   Taras Petrenko         : DFT Hessian,TD-DFT gradient, ASA, ECA, R-Raman, ABS, FL, XAS/XES, NRVS
   Peter Pinski           : DLPNO-MP2, DLPNO-MP2 Gradient
   Christoph Reimann      : Effective Core Potentials
   Marius Retegan         : Local ZFS, SOC
   Christoph Riplinger    : Optimizer, TS searches, QM/MM, DLPNO-CCSD(T), (RO)-DLPNO pert. Triples
   Tobias Risthaus        : Range-separated hybrids, TD-DFT gradient, RPA, STAB
   Michael Roemelt        : Original ROCIS implementation
   Masaaki Saitow         : Open-shell DLPNO-CCSD energy and density
   Barbara Sandhoefer     : DKH picture change effects
   Avijit Sen             : IP-ROCIS
   Kantharuban Sivalingam : CASSCF convergence, NEVPT2, FIC-MRCI
   Bernardo de Souza      : ESD, SOC TD-DFT
   Georgi Stoychev        : AutoAux, RI-MP2 NMR, DLPNO-MP2 response
   Willem Van den Heuvel  : Paramagnetic NMR
   Boris Wezisla          : Elementary symmetry handling
   Frank Wennmohs         : Technical directorship


 We gratefully acknowledge several colleagues who have allowed us to
 interface, adapt or use parts of their codes:
   Stefan Grimme, W. Hujo, H. Kruse, P. Pracht,  : VdW corrections, initial TS optimization,
                  C. Bannwarth, S. Ehlert          DFT functionals, gCP, sTDA/sTD-DF
   Ed Valeev, F. Pavosevic, A. Kumar             : LibInt (2-el integral package), F12 methods
   Garnet Chan, S. Sharma, J. Yang, R. Olivares  : DMRG
   Ulf Ekstrom                                   : XCFun DFT Library
   Mihaly Kallay                                 : mrcc  (arbitrary order and MRCC methods)
   Jiri Pittner, Ondrej Demel                    : Mk-CCSD
   Frank Weinhold                                : gennbo (NPA and NBO analysis)
   Christopher J. Cramer and Donald G. Truhlar   : smd solvation model
   Lars Goerigk                                  : TD-DFT with DH, B97 family of functionals
   V. Asgeirsson, H. Jonsson                     : NEB implementation
   FAccTs GmbH                                   : IRC, NEB, NEB-TS, DLPNO-Multilevel, CI-OPT
                                                   MM, QMMM, 2- and 3-layer-ONIOM, Crystal-QMMM,
                                                   LR-CPCM, SF, NACMEs, symmetry and pop. for TD-DFT,
                                                   nearIR, NL-DFT gradient (VV10), updates on ESD,
                                                   ML-optimized integration grids
   S Lehtola, MJT Oliveira, MAL Marques          : LibXC Library
   Liviu Ungur et al                             : ANISO software


 Your calculation uses the libint2 library for the computation of 2-el integrals
 For citations please refer to: http://libint.valeyev.net

 Your ORCA version has been built with support for libXC version: 5.1.0
 For citations please refer to: https://tddft.org/programs/libxc/

 This ORCA versions uses:
   CBLAS   interface :  Fast vector & matrix operations
   LAPACKE interface :  Fast linear algebra routines
   SCALAPACK package :  Parallel linear algebra routines
   Shared memory     :  Shared parallel matrices
   BLAS/LAPACK       :  OpenBLAS 0.3.15  USE64BITINT DYNAMIC_ARCH NO_AFFINITY SkylakeX SINGLE_THREADED
        Core in use  :  SkylakeX
   Copyright (c) 2011-2014, The OpenBLAS Project


================================================================================

----- Orbital basis set information -----
Your calculation utilizes the basis: aug-cc-pVQZ 
    H, B-Ne : Obtained from the ccRepo (grant-hill.group.shef.ac.uk/ccrepo) Feb. 2017
              R. A. Kendall, T. H. Dunning, Jr., R. J. Harrison, J. Chem. Phys. 96, 6796 (1992)
         He : Obtained from the ccRepo (grant-hill.group.shef.ac.uk/ccrepo) Feb. 2017
              D. E. Woon, T. H. Dunning, Jr., J. Chem. Phys. 100, 2975 (1994)
  Li-Be, Na : Obtained from the ccRepo (grant-hill.group.shef.ac.uk/ccrepo) Feb. 2017
              B. P. Prascher, D. E. Woon, K. A. Peterson, T. H. Dunning, Jr., A. K. Wilson, Theor. Chem. Acc. 128, 69 (2011)
         Mg : Obtained from the Peterson Research Group Website (tyr0.chem.wsu.edu/~kipeters) Feb. 2017
              B. P. Prascher, D. E. Woon, K. A. Peterson, T. H. Dunning, Jr., A. K. Wilson, Theor. Chem. Acc. 128, 69 (2011)
      Al-Ar : Obtained from the ccRepo (grant-hill.group.shef.ac.uk/ccrepo) Feb. 2017
              D. E. Woon, T. H. Dunning, Jr., J. Chem. Phys. 98, 1358 (1993)
      Sc-Zn : Obtained from the ccRepo (grant-hill.group.shef.ac.uk/ccrepo) Feb. 2017
              N. B. Balabanov, K. A. Peterson, J. Chem. Phys. 123, 064107 (2005)
              N. B. Balabanov, K. A. Peterson, J. Chem. Phys. 125, 074110 (2006)
      Ga-Kr : Obtained from the ccRepo (grant-hill.group.shef.ac.uk/ccrepo) Feb. 2017
              A. K. Wilson, D. E. Woon, K. A. Peterson, T. H. Dunning, Jr., J. Chem. Phys. 110, 7667 (1999)

----- AuxC basis set information -----
Your calculation utilizes the auxiliary basis: aug-cc-pVQZ/C 
  H-He, B-F, Al-Ar, Ga-Kr : Obtained from the EMSL Basis Set Exchange (bse.pnl.gov) Feb. 2017
                            F. Weigend, A. Kohn, C. Hattig, J. Chem. Phys. 116, 3175 (2002)
                   Be, Mg : Obtained from the TURBOMOLE 7.0 basis set library
                            C. Haettig, Phys. Chem. Chem. Phys. 7, 59 (2005)
                       Ne : Obtained from the EMSL Basis Set Exchange (bse.pnl.gov) Feb. 2017
                            C. Haettig, Phys. Chem. Chem. Phys. 7, 59 (2005)
                            F. Weigend, A. Kohn, C. Hattig, J. Chem. Phys. 116, 3175 (2002)
                    Sc-Zn : Obtained from the EMSL Basis Set Exchange (bse.pnl.gov) Feb. 2017
                            D. H. Bross, J. G. Hill, H. J. Werner, K. A. Peterson, J. Chem. Phys. 139, 094302 (2013)

================================================================================
                                        WARNINGS
                       Please study these warnings very carefully!
================================================================================


WARNING: No MP2 level density has been requested!
         To caclulate MP2 level properties use
         %mp2 Density relaxed end
         or
         %mp2 Density unrelaxed end

WARNING: Post HF methods need fully converged wavefunctions
  ===> : Setting SCFConvForced true
         You can overwrite this default with %scf ConvForced false 


INFO   : the flag for use of the SHARK integral package has been found!

================================================================================
                                       INPUT FILE
================================================================================
NAME = butyl_acetate.inp
|  1> !ri-mp2 aug-cc-pvqz aug-cc-pvqz/c tightscf
|  2> %pal nprocs 16 end
|  3> 
|  4> * xyz 0 1
|  5> C      2.202488    0.116111   -0.000012
|  6> C      3.288179   -0.927156    0.000005
|  7> C     -3.962455   -0.357641   -0.000017
|  8> C     -2.678902    0.470725    0.000022
|  9> C     -1.415543   -0.392205   -0.000009
| 10> C     -0.151969    0.444179    0.000021
| 11> O      2.380920    1.308789   -0.000020
| 12> O      0.980632   -0.454908    0.000000
| 13> H      3.191841   -1.565826   -0.877925
| 14> H      3.192067   -1.565518    0.878188
| 15> H      4.258416   -0.440768   -0.000192
| 16> H     -4.016737   -1.000104   -0.880951
| 17> H     -4.016742   -1.000179    0.880862
| 18> H     -4.846288    0.281106    0.000008
| 19> H     -2.669921    1.127959   -0.874214
| 20> H     -2.669927    1.127886    0.874314
| 21> H     -1.412843   -1.045046    0.876714
| 22> H     -1.412842   -1.044982   -0.876781
| 23> H     -0.090109    1.085203   -0.880362
| 24> H     -0.090117    1.085149    0.880444
| 25> *
| 26> 
| 27>                          ****END OF INPUT****
================================================================================

                       ****************************
                       * Single Point Calculation *
                       ****************************

---------------------------------
CARTESIAN COORDINATES (ANGSTROEM)
---------------------------------
  C      2.202488    0.116111   -0.000012
  C      3.288179   -0.927156    0.000005
  C     -3.962455   -0.357641   -0.000017
  C     -2.678902    0.470725    0.000022
  C     -1.415543   -0.392205   -0.000009
  C     -0.151969    0.444179    0.000021
  O      2.380920    1.308789   -0.000020
  O      0.980632   -0.454908    0.000000
  H      3.191841   -1.565826   -0.877925
  H      3.192067   -1.565518    0.878188
  H      4.258416   -0.440768   -0.000192
  H     -4.016737   -1.000104   -0.880951
  H     -4.016742   -1.000179    0.880862
  H     -4.846288    0.281106    0.000008
  H     -2.669921    1.127959   -0.874214
  H     -2.669927    1.127886    0.874314
  H     -1.412843   -1.045046    0.876714
  H     -1.412842   -1.044982   -0.876781
  H     -0.090109    1.085203   -0.880362
  H     -0.090117    1.085149    0.880444

----------------------------
CARTESIAN COORDINATES (A.U.)
----------------------------
  NO LB      ZA    FRAG     MASS         X           Y           Z
   0 C     6.0000    0    12.011    4.162099    0.219418   -0.000023
   1 C     6.0000    0    12.011    6.213758   -1.752071    0.000009
   2 C     6.0000    0    12.011   -7.487955   -0.675844   -0.000032
   3 C     6.0000    0    12.011   -5.062391    0.889541    0.000042
   4 C     6.0000    0    12.011   -2.674989   -0.741160   -0.000017
   5 C     6.0000    0    12.011   -0.287180    0.839377    0.000040
   6 O     8.0000    0    15.999    4.499287    2.473253   -0.000038
   7 O     8.0000    0    15.999    1.853126   -0.859652    0.000000
   8 H     1.0000    0     1.008    6.031705   -2.958982   -1.659038
   9 H     1.0000    0     1.008    6.032132   -2.958400    1.659535
  10 H     1.0000    0     1.008    8.047240   -0.832931   -0.000363
  11 H     1.0000    0     1.008   -7.590533   -1.889923   -1.664756
  12 H     1.0000    0     1.008   -7.590542   -1.890064    1.664588
  13 H     1.0000    0     1.008   -9.158157    0.531213    0.000015
  14 H     1.0000    0     1.008   -5.045419    2.131534   -1.652025
  15 H     1.0000    0     1.008   -5.045431    2.131396    1.652214
  16 H     1.0000    0     1.008   -2.669886   -1.974851    1.656749
  17 H     1.0000    0     1.008   -2.669884   -1.974730   -1.656876
  18 H     1.0000    0     1.008   -0.170281    2.050736   -1.663643
  19 H     1.0000    0     1.008   -0.170296    2.050634    1.663798

--------------------------------
INTERNAL COORDINATES (ANGSTROEM)
--------------------------------
 C      0   0   0     0.000000000000     0.00000000     0.00000000
 C      1   0   0     1.505699498924     0.00000000     0.00000000
 C      1   2   0     6.183119208844   131.74726632     0.00000000
 C      3   1   2     1.527644767374    28.44264335   179.99618867
 C      4   3   1     1.529942531189   112.82823243     0.00000000
 C      5   4   3     1.515307707970   112.16385456   179.99962203
 O      1   2   3     1.205951404648   125.34971460   179.99949191
 O      1   2   3     1.348701146749   111.09314597     0.00000000
 H      2   1   3     1.089927274658   110.01504213    59.01249687
 H      2   1   3     1.089930704713   110.01326329   300.96332671
 H      2   1   3     1.085326292652   109.51659388   179.98925209
 H      3   1   2     1.091673007017    95.43233292   305.84474413
 H      3   1   2     1.091673015355    95.43282356    54.14873220
 H      3   1   2     1.090485443517   139.75000010   179.99708662
 H      4   3   1     1.093766781729   109.43345139   122.04733571
 H      4   3   1     1.093767631542   109.43343644   237.95129558
 H      5   4   3     1.093092804848   109.80892578   301.51232990
 H      5   4   3     1.093093887603   109.80891969    58.48704531
 H      6   5   4     1.090785338582   111.81701504   299.61091709
 H      6   5   4     1.090785437074   111.81692152    60.38831892

---------------------------
INTERNAL COORDINATES (A.U.)
---------------------------
 C      0   0   0     0.000000000000     0.00000000     0.00000000
 C      1   0   0     2.845359692948     0.00000000     0.00000000
 C      1   2   0    11.684401958103   131.74726632     0.00000000
 C      3   1   2     2.886830240255    28.44264335   179.99618867
 C      4   3   1     2.891172384586   112.82823243     0.00000000
 C      5   4   3     2.863516576682   112.16385456   179.99962203
 O      1   2   3     2.278917885602   125.34971460   179.99949191
 O      1   2   3     2.548675803860   111.09314597     0.00000000
 H      2   1   3     2.059664054995   110.01504213    59.01249687
 H      2   1   3     2.059670536860   110.01326329   300.96332671
 H      2   1   3     2.050969459057   109.51659388   179.98925209
 H      3   1   2     2.062963011056    95.43233292   305.84474413
 H      3   1   2     2.062963026813    95.43282356    54.14873220
 H      3   1   2     2.060718841275   139.75000010   179.99708662
 H      4   3   1     2.066919671848   109.43345139   122.04733571
 H      4   3   1     2.066921277763   109.43343644   237.95129558
 H      5   4   3     2.065646040122   109.80892578   301.51232990
 H      5   4   3     2.065648086232   109.80891969    58.48704531
 H      6   5   4     2.061285560816   111.81701504   299.61091709
 H      6   5   4     2.061285746940   111.81692152    60.38831892

---------------------
BASIS SET INFORMATION
---------------------
There are 3 groups of distinct atoms

 Group   1 Type C   : 22s7p4d3f2g contracted to 6s5p4d3f2g pattern {991111/31111/1111/111/11}
 Group   2 Type O   : 22s7p4d3f2g contracted to 6s5p4d3f2g pattern {991111/31111/1111/111/11}
 Group   3 Type H   : 7s4p3d2f contracted to 5s4p3d2f pattern {31111/1111/111/11}

Atom   0C    basis set group =>   1
Atom   1C    basis set group =>   1
Atom   2C    basis set group =>   1
Atom   3C    basis set group =>   1
Atom   4C    basis set group =>   1
Atom   5C    basis set group =>   1
Atom   6O    basis set group =>   2
Atom   7O    basis set group =>   2
Atom   8H    basis set group =>   3
Atom   9H    basis set group =>   3
Atom  10H    basis set group =>   3
Atom  11H    basis set group =>   3
Atom  12H    basis set group =>   3
Atom  13H    basis set group =>   3
Atom  14H    basis set group =>   3
Atom  15H    basis set group =>   3
Atom  16H    basis set group =>   3
Atom  17H    basis set group =>   3
Atom  18H    basis set group =>   3
Atom  19H    basis set group =>   3
---------------------------------
AUXILIARY/C BASIS SET INFORMATION
---------------------------------
There are 3 groups of distinct atoms

 Group   1 Type C   : 9s8p7d6f4g2h contracted to 9s8p7d6f4g2h pattern {111111111/11111111/1111111/111111/1111/11}
 Group   2 Type O   : 9s8p7d6f4g2h contracted to 9s8p7d6f4g2h pattern {111111111/11111111/1111111/111111/1111/11}
 Group   3 Type H   : 6s5p4d3f2g contracted to 6s5p4d3f2g pattern {111111/11111/1111/111/11}

Atom   0C    basis set group =>   1
Atom   1C    basis set group =>   1
Atom   2C    basis set group =>   1
Atom   3C    basis set group =>   1
Atom   4C    basis set group =>   1
Atom   5C    basis set group =>   1
Atom   6O    basis set group =>   2
Atom   7O    basis set group =>   2
Atom   8H    basis set group =>   3
Atom   9H    basis set group =>   3
Atom  10H    basis set group =>   3
Atom  11H    basis set group =>   3
Atom  12H    basis set group =>   3
Atom  13H    basis set group =>   3
Atom  14H    basis set group =>   3
Atom  15H    basis set group =>   3
Atom  16H    basis set group =>   3
Atom  17H    basis set group =>   3
Atom  18H    basis set group =>   3
Atom  19H    basis set group =>   3


           ************************************************************
           *        Program running with 16 parallel MPI-processes    *
           *              working on a common directory               *
           ************************************************************
------------------------------------------------------------------------------
                           ORCA GTO INTEGRAL CALCULATION
------------------------------------------------------------------------------
------------------------------------------------------------------------------
                   ___                                                        
                  /   \      - P O W E R E D   B Y -                         
                 /     \                                                     
                 |  |  |   _    _      __       _____    __    __             
                 |  |  |  | |  | |    /  \     |  _  \  |  |  /  |          
                  \  \/   | |  | |   /    \    | | | |  |  | /  /          
                 / \  \   | |__| |  /  /\  \   | |_| |  |  |/  /          
                |  |  |   |  __  | /  /__\  \  |    /   |      \           
                |  |  |   | |  | | |   __   |  |    \   |  |\   \          
                \     /   | |  | | |  |  |  |  | |\  \  |  | \   \       
                 \___/    |_|  |_| |__|  |__|  |_| \__\ |__|  \__/        
                                                                              
                      - O R C A' S   B I G   F R I E N D -                    
                                      &                                       
                       - I N T E G R A L  F E E D E R -                       
                                                                              
 v1 FN, 2020, v2 2021                                                         
------------------------------------------------------------------------------


Reading SHARK input file butyl_acetate.SHARKINP.tmp ... ok
----------------------
SHARK INTEGRAL PACKAGE
----------------------

Number of atoms                             ...     20
Number of basis functions                   ...   1248
Number of shells                            ...    384
Maximum angular momentum                    ...      4
Integral batch strategy                     ... SHARK/LIBINT Hybrid
RI-J (if used) integral strategy            ... SPLIT-RIJ (Revised 2003 algorithm where possible)
Printlevel                                  ...      1
Contraction scheme used                     ... PARTIAL GENERAL contraction
Coulomb Range Separation                    ... NOT USED
Exchange Range Separation                   ... NOT USED
Finite Nucleus Model                        ... NOT USED
Auxiliary Coulomb fitting basis             ... NOT available
Auxiliary J/K fitting basis                 ... NOT available
Auxiliary Correlation fitting basis         ... AVAILABLE
   # of basis functions in Aux-C            ...   2304
   # of shells in Aux-C                     ...    528
   Maximum angular momentum in Aux-C        ...      5
Auxiliary 'external' fitting basis          ... NOT available
Integral threshold                          ...     2.500000e-11
Primitive cut-off                           ...     2.500000e-12
Primitive pair pre-selection threshold      ...     2.500000e-12

Calculating pre-screening integrals         ... done (  0.1 sec) Dimension = 384
Calculating pre-screening integrals (ORCA)  ... done (  0.6 sec) Dimension = 328
Organizing shell pair data                  ... done (  1.7 sec)
Shell pair information
Total number of shell pairs                 ...     73920
Shell pairs after pre-screening             ...     57504
Total number of primitive shell pairs       ...     90160
Primitive shell pairs kept                  ...     65391
          la=0 lb=0:   9163 shell pairs
          la=1 lb=0:  11352 shell pairs
          la=1 lb=1:   3369 shell pairs
          la=2 lb=0:   8460 shell pairs
          la=2 lb=1:   5091 shell pairs
          la=2 lb=2:   1971 shell pairs
          la=3 lb=0:   5974 shell pairs
          la=3 lb=1:   3563 shell pairs
          la=3 lb=2:   2721 shell pairs
          la=3 lb=3:    978 shell pairs
          la=4 lb=0:   2000 shell pairs
          la=4 lb=1:   1194 shell pairs
          la=4 lb=2:    919 shell pairs
          la=4 lb=3:    633 shell pairs
          la=4 lb=4:    116 shell pairs

Calculating one electron integrals          ... done (  0.1 sec)
Calculating RI/C V-Matrix + Cholesky decomp.... done (  0.6 sec)
Calculating Nuclear repulsion               ... done (  0.0 sec) ENN=    376.294536659977 Eh

SHARK setup successfully completed in   5.8 seconds

Maximum memory used throughout the entire GTOINT-calculation: 85.3 MB
[1715551334.426649] [bc12210:3065078:0]          mpool.c:42   UCX  WARN  object 0xabead80 was not returned to mpool ucp_requests
[1715551334.426675] [bc12210:3065078:0]          mpool.c:42   UCX  WARN  object 0xabeaf40 was not returned to mpool ucp_requests
[1715551334.426683] [bc12210:3065078:0]          mpool.c:42   UCX  WARN  object 0xabeb100 was not returned to mpool ucp_requests
[1715551334.426688] [bc12210:3065078:0]          mpool.c:42   UCX  WARN  object 0xabeb2c0 was not returned to mpool ucp_requests
[1715551334.426693] [bc12210:3065078:0]          mpool.c:42   UCX  WARN  object 0xabeb480 was not returned to mpool ucp_requests
[1715551334.426698] [bc12210:3065078:0]          mpool.c:42   UCX  WARN  object 0xabeb640 was not returned to mpool ucp_requests
[1715551334.426702] [bc12210:3065078:0]          mpool.c:42   UCX  WARN  object 0xabeb800 was not returned to mpool ucp_requests
[1715551334.426707] [bc12210:3065078:0]          mpool.c:42   UCX  WARN  object 0xabeb9c0 was not returned to mpool ucp_requests
[1715551334.426711] [bc12210:3065078:0]          mpool.c:42   UCX  WARN  object 0xabebb80 was not returned to mpool ucp_requests
[1715551334.426716] [bc12210:3065078:0]          mpool.c:42   UCX  WARN  object 0xabebd40 was not returned to mpool ucp_requests
[1715551334.426720] [bc12210:3065078:0]          mpool.c:42   UCX  WARN  object 0xabebf00 was not returned to mpool ucp_requests
[1715551334.426725] [bc12210:3065078:0]          mpool.c:42   UCX  WARN  object 0xabec0c0 was not returned to mpool ucp_requests
[1715551334.426729] [bc12210:3065078:0]          mpool.c:42   UCX  WARN  object 0xabec280 was not returned to mpool ucp_requests
[1715551334.426734] [bc12210:3065078:0]          mpool.c:42   UCX  WARN  object 0xabec440 was not returned to mpool ucp_requests
[1715551334.426741] [bc12210:3065078:0]          mpool.c:42   UCX  WARN  object 0xabec600 was not returned to mpool ucp_requests
[1715551334.426745] [bc12210:3065078:0]          mpool.c:42   UCX  WARN  object 0xabec7c0 was not returned to mpool ucp_requests
[1715551334.426750] [bc12210:3065078:0]          mpool.c:42   UCX  WARN  object 0xabec980 was not returned to mpool ucp_requests
[1715551334.426755] [bc12210:3065078:0]          mpool.c:42   UCX  WARN  object 0xabecb40 was not returned to mpool ucp_requests
[1715551334.426903] [bc12210:3065075:0]          mpool.c:42   UCX  WARN  object 0xb16c0c0 was not returned to mpool ucp_requests
[1715551334.426927] [bc12210:3065075:0]          mpool.c:42   UCX  WARN  object 0xb16c280 was not returned to mpool ucp_requests
[1715551334.426934] [bc12210:3065075:0]          mpool.c:42   UCX  WARN  object 0xb16c440 was not returned to mpool ucp_requests
[1715551334.426938] [bc12210:3065075:0]          mpool.c:42   UCX  WARN  object 0xb16c600 was not returned to mpool ucp_requests
[1715551334.426943] [bc12210:3065075:0]          mpool.c:42   UCX  WARN  object 0xb16c7c0 was not returned to mpool ucp_requests
[1715551334.426948] [bc12210:3065075:0]          mpool.c:42   UCX  WARN  object 0xb16c980 was not returned to mpool ucp_requests
[1715551334.426952] [bc12210:3065075:0]          mpool.c:42   UCX  WARN  object 0xb16cb40 was not returned to mpool ucp_requests
[1715551334.426957] [bc12210:3065075:0]          mpool.c:42   UCX  WARN  object 0xb16cd00 was not returned to mpool ucp_requests
[1715551334.426962] [bc12210:3065075:0]          mpool.c:42   UCX  WARN  object 0xb16cec0 was not returned to mpool ucp_requests
[1715551334.426968] [bc12210:3065075:0]          mpool.c:42   UCX  WARN  object 0xb16d080 was not returned to mpool ucp_requests
[1715551334.426973] [bc12210:3065075:0]          mpool.c:42   UCX  WARN  object 0xb16d240 was not returned to mpool ucp_requests
[1715551334.426977] [bc12210:3065075:0]          mpool.c:42   UCX  WARN  object 0xb16d400 was not returned to mpool ucp_requests
[1715551334.427042] [bc12210:3065089:0]          mpool.c:42   UCX  WARN  object 0xbad66c0 was not returned to mpool ucp_requests
[1715551334.427062] [bc12210:3065089:0]          mpool.c:42   UCX  WARN  object 0xbad6880 was not returned to mpool ucp_requests
[1715551334.427068] [bc12210:3065089:0]          mpool.c:42   UCX  WARN  object 0xbad6a40 was not returned to mpool ucp_requests
[1715551334.427073] [bc12210:3065089:0]          mpool.c:42   UCX  WARN  object 0xbad6c00 was not returned to mpool ucp_requests
[1715551334.427078] [bc12210:3065089:0]          mpool.c:42   UCX  WARN  object 0xbad6dc0 was not returned to mpool ucp_requests
[1715551334.426982] [bc12210:3065075:0]          mpool.c:42   UCX  WARN  object 0xb16d5c0 was not returned to mpool ucp_requests
[1715551334.426987] [bc12210:3065075:0]          mpool.c:42   UCX  WARN  object 0xb16d780 was not returned to mpool ucp_requests
[1715551334.426992] [bc12210:3065075:0]          mpool.c:42   UCX  WARN  object 0xb16d940 was not returned to mpool ucp_requests
[1715551334.426996] [bc12210:3065075:0]          mpool.c:42   UCX  WARN  object 0xb16db00 was not returned to mpool ucp_requests
[1715551334.427001] [bc12210:3065075:0]          mpool.c:42   UCX  WARN  object 0xb16dcc0 was not returned to mpool ucp_requests
[1715551334.427005] [bc12210:3065075:0]          mpool.c:42   UCX  WARN  object 0xb16de80 was not returned to mpool ucp_requests
[1715551334.427083] [bc12210:3065089:0]          mpool.c:42   UCX  WARN  object 0xbad6f80 was not returned to mpool ucp_requests
[1715551334.427089] [bc12210:3065089:0]          mpool.c:42   UCX  WARN  object 0xbad7140 was not returned to mpool ucp_requests
[1715551334.427094] [bc12210:3065089:0]          mpool.c:42   UCX  WARN  object 0xbad7300 was not returned to mpool ucp_requests
[1715551334.427099] [bc12210:3065089:0]          mpool.c:42   UCX  WARN  object 0xbad74c0 was not returned to mpool ucp_requests
[1715551334.427105] [bc12210:3065089:0]          mpool.c:42   UCX  WARN  object 0xbad7680 was not returned to mpool ucp_requests
[1715551334.427110] [bc12210:3065089:0]          mpool.c:42   UCX  WARN  object 0xbad7840 was not returned to mpool ucp_requests
[1715551334.427114] [bc12210:3065089:0]          mpool.c:42   UCX  WARN  object 0xbad7a00 was not returned to mpool ucp_requests
[1715551334.427119] [bc12210:3065089:0]          mpool.c:42   UCX  WARN  object 0xbad7bc0 was not returned to mpool ucp_requests
[1715551334.427124] [bc12210:3065089:0]          mpool.c:42   UCX  WARN  object 0xbad7d80 was not returned to mpool ucp_requests
[1715551334.427129] [bc12210:3065089:0]          mpool.c:42   UCX  WARN  object 0xbad7f40 was not returned to mpool ucp_requests
[1715551334.427134] [bc12210:3065089:0]          mpool.c:42   UCX  WARN  object 0xbad8100 was not returned to mpool ucp_requests
[1715551334.427115] [bc12210:3065074:0]          mpool.c:42   UCX  WARN  object 0xbb02a00 was not returned to mpool ucp_requests
[1715551334.427135] [bc12210:3065074:0]          mpool.c:42   UCX  WARN  object 0xbb02bc0 was not returned to mpool ucp_requests
[1715551334.427142] [bc12210:3065074:0]          mpool.c:42   UCX  WARN  object 0xbb02d80 was not returned to mpool ucp_requests
[1715551334.427139] [bc12210:3065089:0]          mpool.c:42   UCX  WARN  object 0xbad82c0 was not returned to mpool ucp_requests
[1715551334.427145] [bc12210:3065089:0]          mpool.c:42   UCX  WARN  object 0xbad8480 was not returned to mpool ucp_requests
[1715551334.427147] [bc12210:3065074:0]          mpool.c:42   UCX  WARN  object 0xbb02f40 was not returned to mpool ucp_requests
[1715551334.427155] [bc12210:3065074:0]          mpool.c:42   UCX  WARN  object 0xbb03100 was not returned to mpool ucp_requests
[1715551334.427160] [bc12210:3065074:0]          mpool.c:42   UCX  WARN  object 0xbb032c0 was not returned to mpool ucp_requests
[1715551334.427165] [bc12210:3065074:0]          mpool.c:42   UCX  WARN  object 0xbb03480 was not returned to mpool ucp_requests
[1715551334.427170] [bc12210:3065074:0]          mpool.c:42   UCX  WARN  object 0xbb03640 was not returned to mpool ucp_requests
[1715551334.427174] [bc12210:3065074:0]          mpool.c:42   UCX  WARN  object 0xbb03800 was not returned to mpool ucp_requests
[1715551334.427179] [bc12210:3065074:0]          mpool.c:42   UCX  WARN  object 0xbb039c0 was not returned to mpool ucp_requests
[1715551334.427183] [bc12210:3065074:0]          mpool.c:42   UCX  WARN  object 0xbb03b80 was not returned to mpool ucp_requests
[1715551334.427188] [bc12210:3065074:0]          mpool.c:42   UCX  WARN  object 0xbb03d40 was not returned to mpool ucp_requests
[1715551334.427193] [bc12210:3065074:0]          mpool.c:42   UCX  WARN  object 0xbb03f00 was not returned to mpool ucp_requests
[1715551334.427197] [bc12210:3065074:0]          mpool.c:42   UCX  WARN  object 0xbb040c0 was not returned to mpool ucp_requests
[1715551334.427202] [bc12210:3065074:0]          mpool.c:42   UCX  WARN  object 0xbb04280 was not returned to mpool ucp_requests
[1715551334.427207] [bc12210:3065074:0]          mpool.c:42   UCX  WARN  object 0xbb04440 was not returned to mpool ucp_requests
[1715551334.427212] [bc12210:3065074:0]          mpool.c:42   UCX  WARN  object 0xbb04600 was not returned to mpool ucp_requests
[1715551334.427217] [bc12210:3065074:0]          mpool.c:42   UCX  WARN  object 0xbb047c0 was not returned to mpool ucp_requests
[1715551334.427498] [bc12210:3065086:0]          mpool.c:42   UCX  WARN  object 0xae2f880 was not returned to mpool ucp_requests
[1715551334.427518] [bc12210:3065086:0]          mpool.c:42   UCX  WARN  object 0xae2fa40 was not returned to mpool ucp_requests
[1715551334.427526] [bc12210:3065086:0]          mpool.c:42   UCX  WARN  object 0xae2fc00 was not returned to mpool ucp_requests
[1715551334.427531] [bc12210:3065086:0]          mpool.c:42   UCX  WARN  object 0xae2fdc0 was not returned to mpool ucp_requests
[1715551334.427536] [bc12210:3065086:0]          mpool.c:42   UCX  WARN  object 0xae2ff80 was not returned to mpool ucp_requests
[1715551334.427542] [bc12210:3065086:0]          mpool.c:42   UCX  WARN  object 0xae30140 was not returned to mpool ucp_requests
[1715551334.427547] [bc12210:3065086:0]          mpool.c:42   UCX  WARN  object 0xae30300 was not returned to mpool ucp_requests
[1715551334.427552] [bc12210:3065086:0]          mpool.c:42   UCX  WARN  object 0xae304c0 was not returned to mpool ucp_requests
[1715551334.427556] [bc12210:3065086:0]          mpool.c:42   UCX  WARN  object 0xae30680 was not returned to mpool ucp_requests
[1715551334.427561] [bc12210:3065086:0]          mpool.c:42   UCX  WARN  object 0xae30840 was not returned to mpool ucp_requests
[1715551334.427566] [bc12210:3065086:0]          mpool.c:42   UCX  WARN  object 0xae30a00 was not returned to mpool ucp_requests
[1715551334.427570] [bc12210:3065086:0]          mpool.c:42   UCX  WARN  object 0xae30bc0 was not returned to mpool ucp_requests
[1715551334.427575] [bc12210:3065086:0]          mpool.c:42   UCX  WARN  object 0xae30d80 was not returned to mpool ucp_requests
[1715551334.427579] [bc12210:3065086:0]          mpool.c:42   UCX  WARN  object 0xae30f40 was not returned to mpool ucp_requests
[1715551334.427584] [bc12210:3065086:0]          mpool.c:42   UCX  WARN  object 0xae31100 was not returned to mpool ucp_requests
[1715551334.427589] [bc12210:3065086:0]          mpool.c:42   UCX  WARN  object 0xae312c0 was not returned to mpool ucp_requests
[1715551334.427593] [bc12210:3065086:0]          mpool.c:42   UCX  WARN  object 0xae31480 was not returned to mpool ucp_requests
[1715551334.427598] [bc12210:3065086:0]          mpool.c:42   UCX  WARN  object 0xae31640 was not returned to mpool ucp_requests
[1715551334.428303] [bc12210:3065084:0]          mpool.c:42   UCX  WARN  object 0xc2c5fc0 was not returned to mpool ucp_requests
[1715551334.428325] [bc12210:3065084:0]          mpool.c:42   UCX  WARN  object 0xc2c6180 was not returned to mpool ucp_requests
[1715551334.428331] [bc12210:3065084:0]          mpool.c:42   UCX  WARN  object 0xc2c6340 was not returned to mpool ucp_requests
[1715551334.428336] [bc12210:3065084:0]          mpool.c:42   UCX  WARN  object 0xc2c6500 was not returned to mpool ucp_requests
[1715551334.428340] [bc12210:3065084:0]          mpool.c:42   UCX  WARN  object 0xc2c66c0 was not returned to mpool ucp_requests
[1715551334.428345] [bc12210:3065084:0]          mpool.c:42   UCX  WARN  object 0xc2c6880 was not returned to mpool ucp_requests
[1715551334.428349] [bc12210:3065084:0]          mpool.c:42   UCX  WARN  object 0xc2c6a40 was not returned to mpool ucp_requests
[1715551334.428354] [bc12210:3065084:0]          mpool.c:42   UCX  WARN  object 0xc2c6c00 was not returned to mpool ucp_requests
[1715551334.428358] [bc12210:3065084:0]          mpool.c:42   UCX  WARN  object 0xc2c6dc0 was not returned to mpool ucp_requests
[1715551334.428363] [bc12210:3065084:0]          mpool.c:42   UCX  WARN  object 0xc2c6f80 was not returned to mpool ucp_requests
[1715551334.428367] [bc12210:3065084:0]          mpool.c:42   UCX  WARN  object 0xc2c7140 was not returned to mpool ucp_requests
[1715551334.428372] [bc12210:3065084:0]          mpool.c:42   UCX  WARN  object 0xc2c7300 was not returned to mpool ucp_requests
[1715551334.428377] [bc12210:3065084:0]          mpool.c:42   UCX  WARN  object 0xc2c74c0 was not returned to mpool ucp_requests
[1715551334.428382] [bc12210:3065084:0]          mpool.c:42   UCX  WARN  object 0xc2c7680 was not returned to mpool ucp_requests
[1715551334.428386] [bc12210:3065084:0]          mpool.c:42   UCX  WARN  object 0xc2c7840 was not returned to mpool ucp_requests
[1715551334.428391] [bc12210:3065084:0]          mpool.c:42   UCX  WARN  object 0xc2c7a00 was not returned to mpool ucp_requests
[1715551334.428396] [bc12210:3065084:0]          mpool.c:42   UCX  WARN  object 0xc2c7bc0 was not returned to mpool ucp_requests
[1715551334.428402] [bc12210:3065084:0]          mpool.c:42   UCX  WARN  object 0xc2c7d80 was not returned to mpool ucp_requests
[1715551334.429311] [bc12210:3065079:0]          mpool.c:42   UCX  WARN  object 0xa936100 was not returned to mpool ucp_requests
[1715551334.429333] [bc12210:3065079:0]          mpool.c:42   UCX  WARN  object 0xa9362c0 was not returned to mpool ucp_requests
[1715551334.429338] [bc12210:3065079:0]          mpool.c:42   UCX  WARN  object 0xa936480 was not returned to mpool ucp_requests
[1715551334.429342] [bc12210:3065079:0]          mpool.c:42   UCX  WARN  object 0xa936640 was not returned to mpool ucp_requests
[1715551334.429346] [bc12210:3065079:0]          mpool.c:42   UCX  WARN  object 0xa936800 was not returned to mpool ucp_requests
[1715551334.429350] [bc12210:3065079:0]          mpool.c:42   UCX  WARN  object 0xa9369c0 was not returned to mpool ucp_requests
[1715551334.429353] [bc12210:3065079:0]          mpool.c:42   UCX  WARN  object 0xa936b80 was not returned to mpool ucp_requests
[1715551334.429358] [bc12210:3065079:0]          mpool.c:42   UCX  WARN  object 0xa936d40 was not returned to mpool ucp_requests
[1715551334.429361] [bc12210:3065079:0]          mpool.c:42   UCX  WARN  object 0xa936f00 was not returned to mpool ucp_requests
[1715551334.429367] [bc12210:3065079:0]          mpool.c:42   UCX  WARN  object 0xa9370c0 was not returned to mpool ucp_requests
[1715551334.429371] [bc12210:3065079:0]          mpool.c:42   UCX  WARN  object 0xa937280 was not returned to mpool ucp_requests
[1715551334.429375] [bc12210:3065079:0]          mpool.c:42   UCX  WARN  object 0xa937440 was not returned to mpool ucp_requests
[1715551334.429379] [bc12210:3065079:0]          mpool.c:42   UCX  WARN  object 0xa937600 was not returned to mpool ucp_requests
[1715551334.429384] [bc12210:3065079:0]          mpool.c:42   UCX  WARN  object 0xa9377c0 was not returned to mpool ucp_requests
[1715551334.429388] [bc12210:3065079:0]          mpool.c:42   UCX  WARN  object 0xa937980 was not returned to mpool ucp_requests
[1715551334.429391] [bc12210:3065079:0]          mpool.c:42   UCX  WARN  object 0xa937b40 was not returned to mpool ucp_requests
[1715551334.429395] [bc12210:3065079:0]          mpool.c:42   UCX  WARN  object 0xa937d00 was not returned to mpool ucp_requests
[1715551334.429399] [bc12210:3065079:0]          mpool.c:42   UCX  WARN  object 0xa937ec0 was not returned to mpool ucp_requests
[1715551334.429335] [bc12210:3065070:0]          mpool.c:42   UCX  WARN  object 0xb8f50c0 was not returned to mpool ucp_requests
[1715551334.429355] [bc12210:3065070:0]          mpool.c:42   UCX  WARN  object 0xb8f5280 was not returned to mpool ucp_requests
[1715551334.429363] [bc12210:3065070:0]          mpool.c:42   UCX  WARN  object 0xb8f5440 was not returned to mpool ucp_requests
[1715551334.429368] [bc12210:3065070:0]          mpool.c:42   UCX  WARN  object 0xb8f5600 was not returned to mpool ucp_requests
[1715551334.429373] [bc12210:3065070:0]          mpool.c:42   UCX  WARN  object 0xb8f57c0 was not returned to mpool ucp_requests
[1715551334.429378] [bc12210:3065070:0]          mpool.c:42   UCX  WARN  object 0xb8f5980 was not returned to mpool ucp_requests
[1715551334.429383] [bc12210:3065070:0]          mpool.c:42   UCX  WARN  object 0xb8f5b40 was not returned to mpool ucp_requests
[1715551334.429387] [bc12210:3065070:0]          mpool.c:42   UCX  WARN  object 0xb8f5d00 was not returned to mpool ucp_requests
[1715551334.429391] [bc12210:3065070:0]          mpool.c:42   UCX  WARN  object 0xb8f5ec0 was not returned to mpool ucp_requests
[1715551334.429396] [bc12210:3065070:0]          mpool.c:42   UCX  WARN  object 0xb8f6080 was not returned to mpool ucp_requests
[1715551334.429400] [bc12210:3065070:0]          mpool.c:42   UCX  WARN  object 0xb8f6240 was not returned to mpool ucp_requests
[1715551334.429405] [bc12210:3065070:0]          mpool.c:42   UCX  WARN  object 0xb8f6400 was not returned to mpool ucp_requests
[1715551334.429409] [bc12210:3065070:0]          mpool.c:42   UCX  WARN  object 0xb8f65c0 was not returned to mpool ucp_requests
[1715551334.429414] [bc12210:3065070:0]          mpool.c:42   UCX  WARN  object 0xb8f6780 was not returned to mpool ucp_requests
[1715551334.429419] [bc12210:3065070:0]          mpool.c:42   UCX  WARN  object 0xb8f6940 was not returned to mpool ucp_requests
[1715551334.435326] [bc12210:3065077:0]          mpool.c:42   UCX  WARN  object 0xbd56100 was not returned to mpool ucp_requests
[1715551334.435346] [bc12210:3065077:0]          mpool.c:42   UCX  WARN  object 0xbd562c0 was not returned to mpool ucp_requests
[1715551334.435352] [bc12210:3065077:0]          mpool.c:42   UCX  WARN  object 0xbd56480 was not returned to mpool ucp_requests
[1715551334.435357] [bc12210:3065077:0]          mpool.c:42   UCX  WARN  object 0xbd56640 was not returned to mpool ucp_requests
[1715551334.435361] [bc12210:3065077:0]          mpool.c:42   UCX  WARN  object 0xbd56800 was not returned to mpool ucp_requests
[1715551334.435366] [bc12210:3065077:0]          mpool.c:42   UCX  WARN  object 0xbd569c0 was not returned to mpool ucp_requests
[1715551334.435371] [bc12210:3065077:0]          mpool.c:42   UCX  WARN  object 0xbd56b80 was not returned to mpool ucp_requests
[1715551334.435376] [bc12210:3065077:0]          mpool.c:42   UCX  WARN  object 0xbd56d40 was not returned to mpool ucp_requests
[1715551334.435380] [bc12210:3065077:0]          mpool.c:42   UCX  WARN  object 0xbd56f00 was not returned to mpool ucp_requests
[1715551334.435387] [bc12210:3065077:0]          mpool.c:42   UCX  WARN  object 0xbd570c0 was not returned to mpool ucp_requests
[1715551334.435392] [bc12210:3065077:0]          mpool.c:42   UCX  WARN  object 0xbd57280 was not returned to mpool ucp_requests
[1715551334.435396] [bc12210:3065077:0]          mpool.c:42   UCX  WARN  object 0xbd57440 was not returned to mpool ucp_requests
[1715551334.435401] [bc12210:3065077:0]          mpool.c:42   UCX  WARN  object 0xbd57600 was not returned to mpool ucp_requests
[1715551334.435406] [bc12210:3065077:0]          mpool.c:42   UCX  WARN  object 0xbd577c0 was not returned to mpool ucp_requests
[1715551334.435410] [bc12210:3065077:0]          mpool.c:42   UCX  WARN  object 0xbd57980 was not returned to mpool ucp_requests
[1715551334.435415] [bc12210:3065077:0]          mpool.c:42   UCX  WARN  object 0xbd57b40 was not returned to mpool ucp_requests
[1715551334.435420] [bc12210:3065077:0]          mpool.c:42   UCX  WARN  object 0xbd57d00 was not returned to mpool ucp_requests
[1715551334.435425] [bc12210:3065077:0]          mpool.c:42   UCX  WARN  object 0xbd57ec0 was not returned to mpool ucp_requests
[1715551334.435407] [bc12210:3065072:0]          mpool.c:42   UCX  WARN  object 0xb079800 was not returned to mpool ucp_requests
[1715551334.435429] [bc12210:3065072:0]          mpool.c:42   UCX  WARN  object 0xb0799c0 was not returned to mpool ucp_requests
[1715551334.435434] [bc12210:3065072:0]          mpool.c:42   UCX  WARN  object 0xb079b80 was not returned to mpool ucp_requests
[1715551334.435439] [bc12210:3065072:0]          mpool.c:42   UCX  WARN  object 0xb079d40 was not returned to mpool ucp_requests
[1715551334.435443] [bc12210:3065072:0]          mpool.c:42   UCX  WARN  object 0xb079f00 was not returned to mpool ucp_requests
[1715551334.435447] [bc12210:3065072:0]          mpool.c:42   UCX  WARN  object 0xb07a0c0 was not returned to mpool ucp_requests
[1715551334.435451] [bc12210:3065072:0]          mpool.c:42   UCX  WARN  object 0xb07a280 was not returned to mpool ucp_requests
[1715551334.435455] [bc12210:3065072:0]          mpool.c:42   UCX  WARN  object 0xb07a440 was not returned to mpool ucp_requests
[1715551334.435459] [bc12210:3065072:0]          mpool.c:42   UCX  WARN  object 0xb07a600 was not returned to mpool ucp_requests
[1715551334.435462] [bc12210:3065072:0]          mpool.c:42   UCX  WARN  object 0xb07a7c0 was not returned to mpool ucp_requests
[1715551334.435467] [bc12210:3065072:0]          mpool.c:42   UCX  WARN  object 0xb07a980 was not returned to mpool ucp_requests
[1715551334.435474] [bc12210:3065072:0]          mpool.c:42   UCX  WARN  object 0xb07ab40 was not returned to mpool ucp_requests
[1715551334.435478] [bc12210:3065072:0]          mpool.c:42   UCX  WARN  object 0xb07ad00 was not returned to mpool ucp_requests
[1715551334.435482] [bc12210:3065072:0]          mpool.c:42   UCX  WARN  object 0xb07b080 was not returned to mpool ucp_requests
[1715551334.436061] [bc12210:3065073:0]          mpool.c:42   UCX  WARN  object 0xb8d6f00 was not returned to mpool ucp_requests
[1715551334.436082] [bc12210:3065073:0]          mpool.c:42   UCX  WARN  object 0xb8d70c0 was not returned to mpool ucp_requests
[1715551334.436090] [bc12210:3065073:0]          mpool.c:42   UCX  WARN  object 0xb8d7280 was not returned to mpool ucp_requests
[1715551334.436094] [bc12210:3065073:0]          mpool.c:42   UCX  WARN  object 0xb8d7440 was not returned to mpool ucp_requests
[1715551334.436098] [bc12210:3065073:0]          mpool.c:42   UCX  WARN  object 0xb8d7600 was not returned to mpool ucp_requests
[1715551334.436102] [bc12210:3065073:0]          mpool.c:42   UCX  WARN  object 0xb8d77c0 was not returned to mpool ucp_requests
[1715551334.436105] [bc12210:3065073:0]          mpool.c:42   UCX  WARN  object 0xb8d7980 was not returned to mpool ucp_requests
[1715551334.436109] [bc12210:3065073:0]          mpool.c:42   UCX  WARN  object 0xb8d7b40 was not returned to mpool ucp_requests
[1715551334.436113] [bc12210:3065073:0]          mpool.c:42   UCX  WARN  object 0xb8d7d00 was not returned to mpool ucp_requests
[1715551334.436117] [bc12210:3065073:0]          mpool.c:42   UCX  WARN  object 0xb8d7ec0 was not returned to mpool ucp_requests
[1715551334.436121] [bc12210:3065073:0]          mpool.c:42   UCX  WARN  object 0xb8d8080 was not returned to mpool ucp_requests
[1715551334.436125] [bc12210:3065073:0]          mpool.c:42   UCX  WARN  object 0xb8d8240 was not returned to mpool ucp_requests
[1715551334.436129] [bc12210:3065073:0]          mpool.c:42   UCX  WARN  object 0xb8d8400 was not returned to mpool ucp_requests
[1715551334.436133] [bc12210:3065073:0]          mpool.c:42   UCX  WARN  object 0xb8d85c0 was not returned to mpool ucp_requests
[1715551334.436139] [bc12210:3065073:0]          mpool.c:42   UCX  WARN  object 0xb8d8780 was not returned to mpool ucp_requests
[1715551334.436144] [bc12210:3065073:0]          mpool.c:42   UCX  WARN  object 0xb8d8940 was not returned to mpool ucp_requests
[1715551334.436148] [bc12210:3065073:0]          mpool.c:42   UCX  WARN  object 0xb8d8b00 was not returned to mpool ucp_requests
[1715551334.436152] [bc12210:3065073:0]          mpool.c:42   UCX  WARN  object 0xb8d8cc0 was not returned to mpool ucp_requests
[1715551334.437161] [bc12210:3065081:0]          mpool.c:42   UCX  WARN  object 0xab8c780 was not returned to mpool ucp_requests
[1715551334.437182] [bc12210:3065081:0]          mpool.c:42   UCX  WARN  object 0xab8c940 was not returned to mpool ucp_requests
[1715551334.437187] [bc12210:3065081:0]          mpool.c:42   UCX  WARN  object 0xab8cb00 was not returned to mpool ucp_requests
[1715551334.437191] [bc12210:3065081:0]          mpool.c:42   UCX  WARN  object 0xab8ccc0 was not returned to mpool ucp_requests
[1715551334.437196] [bc12210:3065081:0]          mpool.c:42   UCX  WARN  object 0xab8ce80 was not returned to mpool ucp_requests
[1715551334.437202] [bc12210:3065081:0]          mpool.c:42   UCX  WARN  object 0xab8d040 was not returned to mpool ucp_requests
[1715551334.437208] [bc12210:3065081:0]          mpool.c:42   UCX  WARN  object 0xab8d200 was not returned to mpool ucp_requests
[1715551334.437212] [bc12210:3065081:0]          mpool.c:42   UCX  WARN  object 0xab8d3c0 was not returned to mpool ucp_requests
[1715551334.437217] [bc12210:3065081:0]          mpool.c:42   UCX  WARN  object 0xab8d580 was not returned to mpool ucp_requests
[1715551334.437221] [bc12210:3065081:0]          mpool.c:42   UCX  WARN  object 0xab8d740 was not returned to mpool ucp_requests
[1715551334.437226] [bc12210:3065081:0]          mpool.c:42   UCX  WARN  object 0xab8d900 was not returned to mpool ucp_requests
[1715551334.437231] [bc12210:3065081:0]          mpool.c:42   UCX  WARN  object 0xab8dac0 was not returned to mpool ucp_requests
[1715551334.437236] [bc12210:3065081:0]          mpool.c:42   UCX  WARN  object 0xab8dc80 was not returned to mpool ucp_requests
[1715551334.437241] [bc12210:3065081:0]          mpool.c:42   UCX  WARN  object 0xab8de40 was not returned to mpool ucp_requests
[1715551334.437246] [bc12210:3065081:0]          mpool.c:42   UCX  WARN  object 0xab8e000 was not returned to mpool ucp_requests
[1715551334.437250] [bc12210:3065081:0]          mpool.c:42   UCX  WARN  object 0xab8e1c0 was not returned to mpool ucp_requests
[1715551334.437255] [bc12210:3065081:0]          mpool.c:42   UCX  WARN  object 0xab8e380 was not returned to mpool ucp_requests
[1715551334.437260] [bc12210:3065081:0]          mpool.c:42   UCX  WARN  object 0xab8e540 was not returned to mpool ucp_requests
[1715551334.437546] [bc12210:3065071:0]          mpool.c:42   UCX  WARN  object 0xb086700 was not returned to mpool ucp_requests
[1715551334.437565] [bc12210:3065071:0]          mpool.c:42   UCX  WARN  object 0xb0868c0 was not returned to mpool ucp_requests
[1715551334.437571] [bc12210:3065071:0]          mpool.c:42   UCX  WARN  object 0xb086a80 was not returned to mpool ucp_requests
[1715551334.437576] [bc12210:3065071:0]          mpool.c:42   UCX  WARN  object 0xb086c40 was not returned to mpool ucp_requests
[1715551334.437581] [bc12210:3065071:0]          mpool.c:42   UCX  WARN  object 0xb086e00 was not returned to mpool ucp_requests
[1715551334.437585] [bc12210:3065071:0]          mpool.c:42   UCX  WARN  object 0xb086fc0 was not returned to mpool ucp_requests
[1715551334.437590] [bc12210:3065071:0]          mpool.c:42   UCX  WARN  object 0xb087180 was not returned to mpool ucp_requests
[1715551334.437595] [bc12210:3065071:0]          mpool.c:42   UCX  WARN  object 0xb087340 was not returned to mpool ucp_requests
[1715551334.437600] [bc12210:3065071:0]          mpool.c:42   UCX  WARN  object 0xb087500 was not returned to mpool ucp_requests
[1715551334.437605] [bc12210:3065071:0]          mpool.c:42   UCX  WARN  object 0xb0876c0 was not returned to mpool ucp_requests
[1715551334.437609] [bc12210:3065071:0]          mpool.c:42   UCX  WARN  object 0xb087a40 was not returned to mpool ucp_requests
[1715551334.437614] [bc12210:3065071:0]          mpool.c:42   UCX  WARN  object 0xb087c00 was not returned to mpool ucp_requests
[1715551334.437622] [bc12210:3065071:0]          mpool.c:42   UCX  WARN  object 0xb087dc0 was not returned to mpool ucp_requests
[1715551334.440619] [bc12210:3065076:0]          mpool.c:42   UCX  WARN  object 0xbcc8880 was not returned to mpool ucp_requests
[1715551334.440648] [bc12210:3065076:0]          mpool.c:42   UCX  WARN  object 0xbcc8a40 was not returned to mpool ucp_requests
[1715551334.440654] [bc12210:3065076:0]          mpool.c:42   UCX  WARN  object 0xbcc8c00 was not returned to mpool ucp_requests
[1715551334.440661] [bc12210:3065076:0]          mpool.c:42   UCX  WARN  object 0xbcc8dc0 was not returned to mpool ucp_requests
[1715551334.440666] [bc12210:3065076:0]          mpool.c:42   UCX  WARN  object 0xbcc8f80 was not returned to mpool ucp_requests
[1715551334.440672] [bc12210:3065076:0]          mpool.c:42   UCX  WARN  object 0xbcc9140 was not returned to mpool ucp_requests
[1715551334.440677] [bc12210:3065076:0]          mpool.c:42   UCX  WARN  object 0xbcc9300 was not returned to mpool ucp_requests
[1715551334.440682] [bc12210:3065076:0]          mpool.c:42   UCX  WARN  object 0xbcc94c0 was not returned to mpool ucp_requests
[1715551334.440687] [bc12210:3065076:0]          mpool.c:42   UCX  WARN  object 0xbcc9680 was not returned to mpool ucp_requests
[1715551334.440692] [bc12210:3065076:0]          mpool.c:42   UCX  WARN  object 0xbcc9840 was not returned to mpool ucp_requests
[1715551334.440697] [bc12210:3065076:0]          mpool.c:42   UCX  WARN  object 0xbcc9a00 was not returned to mpool ucp_requests
[1715551334.440702] [bc12210:3065076:0]          mpool.c:42   UCX  WARN  object 0xbcc9bc0 was not returned to mpool ucp_requests
[1715551334.440706] [bc12210:3065076:0]          mpool.c:42   UCX  WARN  object 0xbcc9d80 was not returned to mpool ucp_requests
[1715551334.440711] [bc12210:3065076:0]          mpool.c:42   UCX  WARN  object 0xbcc9f40 was not returned to mpool ucp_requests
[1715551334.440716] [bc12210:3065076:0]          mpool.c:42   UCX  WARN  object 0xbcca100 was not returned to mpool ucp_requests
[1715551334.440721] [bc12210:3065076:0]          mpool.c:42   UCX  WARN  object 0xbcca2c0 was not returned to mpool ucp_requests
[1715551334.440726] [bc12210:3065076:0]          mpool.c:42   UCX  WARN  object 0xbcca480 was not returned to mpool ucp_requests
[1715551334.440730] [bc12210:3065076:0]          mpool.c:42   UCX  WARN  object 0xbcca640 was not returned to mpool ucp_requests
[1715551334.441920] [bc12210:3065080:0]          mpool.c:42   UCX  WARN  object 0xa6d2880 was not returned to mpool ucp_requests
[1715551334.441940] [bc12210:3065080:0]          mpool.c:42   UCX  WARN  object 0xa6d2a40 was not returned to mpool ucp_requests
[1715551334.441946] [bc12210:3065080:0]          mpool.c:42   UCX  WARN  object 0xa6d2c00 was not returned to mpool ucp_requests
[1715551334.441951] [bc12210:3065080:0]          mpool.c:42   UCX  WARN  object 0xa6d2dc0 was not returned to mpool ucp_requests
[1715551334.441956] [bc12210:3065080:0]          mpool.c:42   UCX  WARN  object 0xa6d2f80 was not returned to mpool ucp_requests
[1715551334.441962] [bc12210:3065080:0]          mpool.c:42   UCX  WARN  object 0xa6d3140 was not returned to mpool ucp_requests
[1715551334.441967] [bc12210:3065080:0]          mpool.c:42   UCX  WARN  object 0xa6d3300 was not returned to mpool ucp_requests
[1715551334.441972] [bc12210:3065080:0]          mpool.c:42   UCX  WARN  object 0xa6d34c0 was not returned to mpool ucp_requests
[1715551334.441977] [bc12210:3065080:0]          mpool.c:42   UCX  WARN  object 0xa6d3680 was not returned to mpool ucp_requests
[1715551334.441982] [bc12210:3065080:0]          mpool.c:42   UCX  WARN  object 0xa6d3840 was not returned to mpool ucp_requests
[1715551334.441986] [bc12210:3065080:0]          mpool.c:42   UCX  WARN  object 0xa6d3a00 was not returned to mpool ucp_requests
[1715551334.441991] [bc12210:3065080:0]          mpool.c:42   UCX  WARN  object 0xa6d3bc0 was not returned to mpool ucp_requests
[1715551334.441996] [bc12210:3065080:0]          mpool.c:42   UCX  WARN  object 0xa6d3d80 was not returned to mpool ucp_requests
[1715551334.442000] [bc12210:3065080:0]          mpool.c:42   UCX  WARN  object 0xa6d3f40 was not returned to mpool ucp_requests
[1715551334.442005] [bc12210:3065080:0]          mpool.c:42   UCX  WARN  object 0xa6d4100 was not returned to mpool ucp_requests
[1715551334.442010] [bc12210:3065080:0]          mpool.c:42   UCX  WARN  object 0xa6d42c0 was not returned to mpool ucp_requests
[1715551334.442014] [bc12210:3065080:0]          mpool.c:42   UCX  WARN  object 0xa6d4480 was not returned to mpool ucp_requests
[1715551334.442019] [bc12210:3065080:0]          mpool.c:42   UCX  WARN  object 0xa6d4640 was not returned to mpool ucp_requests


           ************************************************************
           *        Program running with 16 parallel MPI-processes    *
           *              working on a common directory               *
           ************************************************************
-------------------------------------------------------------------------------
                                 ORCA SCF
-------------------------------------------------------------------------------

------------
SCF SETTINGS
------------
Hamiltonian:
 Ab initio Hamiltonian  Method          .... Hartree-Fock(GTOs)


General Settings:
 Integral files         IntName         .... butyl_acetate
 Hartree-Fock type      HFTyp           .... RHF
 Total Charge           Charge          ....    0
 Multiplicity           Mult            ....    1
 Number of Electrons    NEL             ....   64
 Basis Dimension        Dim             .... 1192
 Nuclear Repulsion      ENuc            ....    376.2945366600 Eh

Convergence Acceleration:
 DIIS                   CNVDIIS         .... on
   Start iteration      DIISMaxIt       ....    12
   Startup error        DIISStart       ....  0.200000
   # of expansion vecs  DIISMaxEq       ....     5
   Bias factor          DIISBfac        ....   1.050
   Max. coefficient     DIISMaxC        ....  10.000
 Trust-Rad. Augm. Hess. CNVTRAH         .... auto
   Auto Start mean grad. ratio tolernc. ....  1.125000
   Auto Start start iteration           ....    20
   Auto Start num. interpolation iter.  ....    10
   Max. Number of Micro iterations      ....    16
   Max. Number of Macro iterations      .... Maxiter - #DIIS iter
   Number of Davidson start vectors     ....     2
   Converg. threshold I  (grad. norm)   ....   1.000e-05
   Converg. threshold II (energy diff.) ....   1.000e-08
   Grad. Scal. Fac. for Micro threshold ....   0.100
   Minimum threshold for Micro iter.    ....   0.010
   NR start threshold (gradient norm)   ....   0.001
   Initial trust radius                 ....   0.400
   Minimum AH scaling param. (alpha)    ....   1.000
   Maximum AH scaling param. (alpha)    .... 1000.000
   Orbital update algorithm             .... Taylor
   White noise on init. David. guess    .... on
   Maximum white noise                  ....   0.010
   Quad. conv. algorithm                .... NR
 SOSCF                  CNVSOSCF        .... on
   Start iteration      SOSCFMaxIt      ....   150
   Startup grad/error   SOSCFStart      ....  0.003300
 Level Shifting         CNVShift        .... on
   Level shift para.    LevelShift      ....    0.2500
   Turn off err/grad.   ShiftErr        ....    0.0010
 Zerner damping         CNVZerner       .... off
 Static damping         CNVDamp         .... on
   Fraction old density DampFac         ....    0.7000
   Max. Damping (<1)    DampMax         ....    0.9800
   Min. Damping (>=0)   DampMin         ....    0.0000
   Turn off err/grad.   DampErr         ....    0.1000
 Fernandez-Rico         CNVRico         .... off

SCF Procedure:
 Maximum # iterations   MaxIter         ....   125
 SCF integral mode      SCFMode         .... Direct
   Integral package                     .... SHARK and LIBINT hybrid scheme
 Reset frequency        DirectResetFreq ....    20
 Integral Threshold     Thresh          ....  2.500e-11 Eh
 Primitive CutOff       TCut            ....  2.500e-12 Eh

Convergence Tolerance:
 Convergence Check Mode ConvCheckMode   .... Total+1el-Energy
 Convergence forced     ConvForced      .... 1
 Energy Change          TolE            ....  1.000e-08 Eh
 1-El. energy change                    ....  1.000e-05 Eh
 Orbital Gradient       TolG            ....  1.000e-05
 Orbital Rotation angle TolX            ....  1.000e-05
 DIIS Error             TolErr          ....  5.000e-07


Diagonalization of the overlap matrix:
Smallest eigenvalue                        ... 8.191e-07
Time for diagonalization                   ...    0.204 sec
Threshold for overlap eigenvalues          ... 1.000e-08
Number of eigenvalues below threshold      ... 0
Time for construction of square roots      ...    0.295 sec
Total time needed                          ...    0.511 sec

Time for model grid setup =    0.356 sec

------------------------------
INITIAL GUESS: MODEL POTENTIAL
------------------------------
Loading Hartree-Fock densities                     ... done
Calculating cut-offs                               ... done
Initializing the effective Hamiltonian             ... done
Setting up the integral package (SHARK)            ... done
Starting the Coulomb interaction                   ... done (   0.6 sec)
Reading the grid                                   ... done
Mapping shells                                     ... done
Starting the XC term evaluation                    ... done (   0.3 sec)
Transforming the Hamiltonian                       ... done (   0.1 sec)
Diagonalizing the Hamiltonian                      ... done (   0.2 sec)
Back transforming the eigenvectors                 ... done (   0.1 sec)
Now organizing SCF variables                       ... done
                      ------------------
                      INITIAL GUESS DONE (   1.8 sec)
                      ------------------
--------------
SCF ITERATIONS
--------------
ITER       Energy         Delta-E        Max-DP      RMS-DP      [F,P]     Damp
               ***  Starting incremental Fock matrix formation  ***
  0   -383.6765807313   0.000000000000 0.15745736  0.00046539  0.3579454 0.7000
  1   -383.8289757691  -0.152395037864 0.11721141  0.00035305  0.2182034 0.7000
                               ***Turning on DIIS***
  2   -383.9207857915  -0.091810022383 0.08524777  0.00025446  0.1282116 0.7000
  3   -384.8563991546  -0.935613363078 0.21440806  0.00063615  0.0779984 0.0000
  4   -384.0333732134   0.823025941163 0.00883302  0.00005041  0.0093135 0.0000
  5   -384.1032156151  -0.069842401686 0.00391020  0.00002365  0.0051470 0.0000
  6   -384.1033213596  -0.000105744463 0.00161988  0.00001041  0.0033599 0.0000
                      *** Initiating the SOSCF procedure ***
                           *** Shutting down DIIS ***
                      *** Re-Reading the Fockian *** 
                      *** Removing any level shift *** 
ITER      Energy       Delta-E        Grad      Rot      Max-DP    RMS-DP
  7   -384.11056886  -0.0072474994  0.000723  0.000723  0.000528  0.000004
               *** Restarting incremental Fock matrix formation ***
  8   -384.11279780  -0.0022289387  0.000381  0.000609  0.000546  0.000003
  9   -384.11280075  -0.0000029549  0.000166  0.000630  0.000457  0.000003
 10   -384.11280190  -0.0000011433  0.000030  0.000042  0.000114  0.000001
 11   -384.11280199  -0.0000000917  0.000027  0.000042  0.000080  0.000000
 12   -384.11280200  -0.0000000096  0.000004  0.000007  0.000092  0.000001
                  ***Gradient check signals convergence***
              ***Rediagonalizing the Fockian in SOSCF/NRSCF***

               *****************************************************
               *                     SUCCESS                       *
               *           SCF CONVERGED AFTER  13 CYCLES          *
               *****************************************************


----------------
TOTAL SCF ENERGY
----------------

Total Energy       :         -384.11280201 Eh          -10452.24072 eV

Components:
Nuclear Repulsion  :          376.29453666 Eh           10239.49491 eV
Electronic Energy  :         -760.40733867 Eh          -20691.73563 eV
One Electron Energy:        -1268.88638941 Eh          -34528.15403 eV
Two Electron Energy:          508.47905074 Eh           13836.41840 eV

Virial components:
Potential Energy   :         -767.79047383 Eh          -20892.64095 eV
Kinetic Energy     :          383.67767182 Eh           10440.40023 eV
Virial Ratio       :            2.00113410


---------------
SCF CONVERGENCE
---------------

  Last Energy change         ...   -1.4898e-08  Tolerance :   1.0000e-08
  Last MAX-Density change    ...    1.6992e-04  Tolerance :   1.0000e-07
  Last RMS-Density change    ...    8.3775e-07  Tolerance :   5.0000e-09
  Last Orbital Gradient      ...    1.1027e-06  Tolerance :   1.0000e-05
  Last Orbital Rotation      ...    2.7705e-06  Tolerance :   1.0000e-05

             **** THE GBW FILE WAS UPDATED (butyl_acetate.gbw) ****
             **** DENSITY butyl_acetate.scfp WAS UPDATED ****
             **** ENERGY FILE WAS UPDATED (butyl_acetate.en.tmp) ****
             **** THE GBW FILE WAS UPDATED (butyl_acetate.gbw) ****
             **** DENSITY butyl_acetate.scfp WAS UPDATED ****
----------------
ORBITAL ENERGIES
----------------

  NO   OCC          E(Eh)            E(eV) 
   0   2.0000     -20.594677      -560.4097 
   1   2.0000     -20.538007      -558.8676 
   2   2.0000     -11.375797      -309.5512 
   3   2.0000     -11.283568      -307.0415 
   4   2.0000     -11.237226      -305.7805 
   5   2.0000     -11.226366      -305.4850 
   6   2.0000     -11.225022      -305.4484 
   7   2.0000     -11.216345      -305.2123 
   8   2.0000      -1.453664       -39.5562 
   9   2.0000      -1.354107       -36.8471 
  10   2.0000      -1.086009       -29.5518 
  11   2.0000      -1.027826       -27.9686 
  12   2.0000      -0.979645       -26.6575 
  13   2.0000      -0.876689       -23.8559 
  14   2.0000      -0.805727       -21.9250 
  15   2.0000      -0.774191       -21.0668 
  16   2.0000      -0.687209       -18.6999 
  17   2.0000      -0.686764       -18.6878 
  18   2.0000      -0.666115       -18.1259 
  19   2.0000      -0.635810       -17.3013 
  20   2.0000      -0.593987       -16.1632 
  21   2.0000      -0.592571       -16.1247 
  22   2.0000      -0.570214       -15.5163 
  23   2.0000      -0.561619       -15.2824 
  24   2.0000      -0.543645       -14.7933 
  25   2.0000      -0.521334       -14.1862 
  26   2.0000      -0.505099       -13.7445 
  27   2.0000      -0.485212       -13.2033 
  28   2.0000      -0.483136       -13.1468 
  29   2.0000      -0.475904       -12.9500 
  30   2.0000      -0.456896       -12.4328 
  31   2.0000      -0.443784       -12.0760 
  32   0.0000       0.024346         0.6625 
  33   0.0000       0.026798         0.7292 
  34   0.0000       0.033364         0.9079 
  35   0.0000       0.034943         0.9509 
  36   0.0000       0.041842         1.1386 
  37   0.0000       0.045985         1.2513 
  38   0.0000       0.047489         1.2922 
  39   0.0000       0.052094         1.4176 
  40   0.0000       0.062484         1.7003 
  41   0.0000       0.065641         1.7862 
  42   0.0000       0.065730         1.7886 
  43   0.0000       0.077426         2.1069 
  44   0.0000       0.080214         2.1827 
  45   0.0000       0.090026         2.4497 
  46   0.0000       0.097900         2.6640 
  47   0.0000       0.099754         2.7144 
  48   0.0000       0.103759         2.8234 
  49   0.0000       0.109929         2.9913 
  50   0.0000       0.110070         2.9951 
  51   0.0000       0.112809         3.0697 
  52   0.0000       0.121307         3.3009 
  53   0.0000       0.122941         3.3454 
  54   0.0000       0.125668         3.4196 
  55   0.0000       0.129579         3.5260 
  56   0.0000       0.133187         3.6242 
  57   0.0000       0.138007         3.7554 
  58   0.0000       0.143690         3.9100 
  59   0.0000       0.144365         3.9284 
  60   0.0000       0.149245         4.0612 
  61   0.0000       0.153109         4.1663 
  62   0.0000       0.163693         4.4543 
  63   0.0000       0.168876         4.5953 
  64   0.0000       0.170899         4.6504 
  65   0.0000       0.182732         4.9724 
  66   0.0000       0.186026         5.0620 
  67   0.0000       0.189833         5.1656 
  68   0.0000       0.193616         5.2686 
  69   0.0000       0.197828         5.3832 
  70   0.0000       0.207056         5.6343 
  71   0.0000       0.210364         5.7243 
  72   0.0000       0.215500         5.8640 
  73   0.0000       0.217821         5.9272 
  74   0.0000       0.220838         6.0093 
  75   0.0000       0.224840         6.1182 
  76   0.0000       0.238026         6.4770 
  77   0.0000       0.241003         6.5580 
  78   0.0000       0.248284         6.7562 
  79   0.0000       0.250514         6.8168 
  80   0.0000       0.257644         7.0109 
  81   0.0000       0.260247         7.0817 
  82   0.0000       0.265413         7.2223 
  83   0.0000       0.267373         7.2756 
  84   0.0000       0.269913         7.3447 
  85   0.0000       0.272275         7.4090 
  86   0.0000       0.279740         7.6121 
  87   0.0000       0.281466         7.6591 
  88   0.0000       0.285513         7.7692 
  89   0.0000       0.289931         7.8894 
  90   0.0000       0.294382         8.0105 
  91   0.0000       0.296587         8.0705 
  92   0.0000       0.301511         8.2045 
  93   0.0000       0.306789         8.3481 
  94   0.0000       0.308244         8.3878 
  95   0.0000       0.309573         8.4239 
  96   0.0000       0.309630         8.4255 
  97   0.0000       0.317902         8.6506 
  98   0.0000       0.319412         8.6916 
  99   0.0000       0.319877         8.7043 
 100   0.0000       0.327894         8.9224 
 101   0.0000       0.328819         8.9476 
 102   0.0000       0.334361         9.0984 
 103   0.0000       0.338989         9.2244 
 104   0.0000       0.341772         9.3001 
 105   0.0000       0.345775         9.4090 
 106   0.0000       0.355835         9.6828 
 107   0.0000       0.356006         9.6874 
 108   0.0000       0.357160         9.7188 
 109   0.0000       0.361182         9.8283 
 110   0.0000       0.365531         9.9466 
 111   0.0000       0.372621        10.1395 
 112   0.0000       0.376591        10.2476 
 113   0.0000       0.376680        10.2500 
 114   0.0000       0.383011        10.4223 
 115   0.0000       0.385734        10.4963 
 116   0.0000       0.387931        10.5561 
 117   0.0000       0.390673        10.6308 
 118   0.0000       0.392622        10.6838 
 119   0.0000       0.397402        10.8138 
 120   0.0000       0.400056        10.8861 
 121   0.0000       0.401767        10.9326 
 122   0.0000       0.402218        10.9449 
 123   0.0000       0.411773        11.2049 
 124   0.0000       0.414498        11.2791 
 125   0.0000       0.420565        11.4442 
 126   0.0000       0.426294        11.6001 
 127   0.0000       0.428495        11.6599 
 128   0.0000       0.432429        11.7670 
 129   0.0000       0.443176        12.0594 
 130   0.0000       0.447022        12.1641 
 131   0.0000       0.449889        12.2421 
 132   0.0000       0.451320        12.2810 
 133   0.0000       0.456547        12.4233 
 134   0.0000       0.459796        12.5117 
 135   0.0000       0.459989        12.5170 
 136   0.0000       0.465040        12.6544 
 137   0.0000       0.468290        12.7428 
 138   0.0000       0.473967        12.8973 
 139   0.0000       0.482791        13.1374 
 140   0.0000       0.486459        13.2372 
 141   0.0000       0.489056        13.3079 
 142   0.0000       0.496071        13.4988 
 143   0.0000       0.501070        13.6348 
 144   0.0000       0.507005        13.7963 
 145   0.0000       0.516286        14.0489 
 146   0.0000       0.519740        14.1428 
 147   0.0000       0.522730        14.2242 
 148   0.0000       0.525881        14.3100 
 149   0.0000       0.529293        14.4028 
 150   0.0000       0.540129        14.6977 
 151   0.0000       0.542428        14.7602 
 152   0.0000       0.544902        14.8275 
 153   0.0000       0.552995        15.0477 
 154   0.0000       0.558280        15.1916 
 155   0.0000       0.564900        15.3717 
 156   0.0000       0.571653        15.5555 
 157   0.0000       0.580614        15.7993 
 158   0.0000       0.585819        15.9409 
 159   0.0000       0.590765        16.0755 
 160   0.0000       0.595521        16.2049 
 161   0.0000       0.599406        16.3107 
 162   0.0000       0.608818        16.5668 
 163   0.0000       0.614449        16.7200 
 164   0.0000       0.617558        16.8046 
 165   0.0000       0.620061        16.8727 
 166   0.0000       0.624874        17.0037 
 167   0.0000       0.629851        17.1391 
 168   0.0000       0.633036        17.2258 
 169   0.0000       0.635847        17.3023 
 170   0.0000       0.641165        17.4470 
 171   0.0000       0.647223        17.6118 
 172   0.0000       0.655536        17.8380 
 173   0.0000       0.655813        17.8456 
 174   0.0000       0.665144        18.0995 
 175   0.0000       0.669088        18.2068 
 176   0.0000       0.671266        18.2661 
 177   0.0000       0.674235        18.3469 
 178   0.0000       0.682192        18.5634 
 179   0.0000       0.682340        18.5674 
 180   0.0000       0.687930        18.7195 
 181   0.0000       0.692380        18.8406 
 182   0.0000       0.697130        18.9699 
 183   0.0000       0.702213        19.1082 
 184   0.0000       0.705066        19.1858 
 185   0.0000       0.714103        19.4317 
 186   0.0000       0.715497        19.4697 
 187   0.0000       0.716442        19.4954 
 188   0.0000       0.717244        19.5172 
 189   0.0000       0.719065        19.5668 
 190   0.0000       0.727097        19.7853 
 191   0.0000       0.738666        20.1001 
 192   0.0000       0.744013        20.2456 
 193   0.0000       0.745806        20.2944 
 194   0.0000       0.750297        20.4166 
 195   0.0000       0.751289        20.4436 
 196   0.0000       0.757118        20.6022 
 197   0.0000       0.765790        20.8382 
 198   0.0000       0.766478        20.8569 
 199   0.0000       0.768885        20.9224 
 200   0.0000       0.777357        21.1530 
 201   0.0000       0.780711        21.2442 
 202   0.0000       0.789201        21.4753 
 203   0.0000       0.797377        21.6977 
 204   0.0000       0.808920        22.0118 
 205   0.0000       0.810091        22.0437 
 206   0.0000       0.811982        22.0951 
 207   0.0000       0.820224        22.3194 
 208   0.0000       0.823062        22.3967 
 209   0.0000       0.836009        22.7490 
 210   0.0000       0.837157        22.7802 
 211   0.0000       0.841153        22.8889 
 212   0.0000       0.843903        22.9638 
 213   0.0000       0.849497        23.1160 
 214   0.0000       0.851815        23.1791 
 215   0.0000       0.855862        23.2892 
 216   0.0000       0.859943        23.4002 
 217   0.0000       0.860294        23.4098 
 218   0.0000       0.870522        23.6881 
 219   0.0000       0.875005        23.8101 
 220   0.0000       0.885459        24.0946 
 221   0.0000       0.889571        24.2065 
 222   0.0000       0.889892        24.2152 
 223   0.0000       0.895836        24.3769 
 224   0.0000       0.901325        24.5263 
 225   0.0000       0.902074        24.5467 
 226   0.0000       0.905824        24.6487 
 227   0.0000       0.906551        24.6685 
 228   0.0000       0.914146        24.8752 
 229   0.0000       0.916447        24.9378 
 230   0.0000       0.926488        25.2110 
 231   0.0000       0.927636        25.2423 
 232   0.0000       0.938121        25.5276 
 233   0.0000       0.939282        25.5592 
 234   0.0000       0.942788        25.6546 
 235   0.0000       0.952499        25.9188 
 236   0.0000       0.956640        26.0315 
 237   0.0000       0.958373        26.0786 
 238   0.0000       0.966530        26.3006 
 239   0.0000       0.970470        26.4078 
 240   0.0000       0.971854        26.4455 
 241   0.0000       0.974919        26.5289 
 242   0.0000       0.990248        26.9460 
 243   0.0000       0.992167        26.9982 
 244   0.0000       0.997198        27.1351 
 245   0.0000       1.006549        27.3896 
 246   0.0000       1.016433        27.6586 
 247   0.0000       1.018230        27.7074 
 248   0.0000       1.024483        27.8776 
 249   0.0000       1.031150        28.0590 
 250   0.0000       1.031853        28.0782 
 251   0.0000       1.035955        28.1898 
 252   0.0000       1.039430        28.2843 
 253   0.0000       1.040621        28.3167 
 254   0.0000       1.049560        28.5600 
 255   0.0000       1.059525        28.8312 
 256   0.0000       1.067959        29.0606 
 257   0.0000       1.071396        29.1542 
 258   0.0000       1.077655        29.3245 
 259   0.0000       1.087307        29.5871 
 260   0.0000       1.088986        29.6328 
 261   0.0000       1.106600        30.1121 
 262   0.0000       1.109895        30.2018 
 263   0.0000       1.113248        30.2930 
 264   0.0000       1.115362        30.3505 
 265   0.0000       1.119679        30.4680 
 266   0.0000       1.128999        30.7216 
 267   0.0000       1.136279        30.9197 
 268   0.0000       1.136414        30.9234 
 269   0.0000       1.142828        31.0979 
 270   0.0000       1.144290        31.1377 
 271   0.0000       1.155634        31.4464 
 272   0.0000       1.164452        31.6863 
 273   0.0000       1.167216        31.7616 
 274   0.0000       1.174696        31.9651 
 275   0.0000       1.179969        32.1086 
[...]
[1715555507.460159] [bc12210:3065884:0]          mpool.c:42   UCX  WARN  object 0x13959000 was not returned to mpool ucp_requests
[1715555507.461890] [bc12210:3065880:0]          mpool.c:42   UCX  WARN  object 0x127ae2c0 was not returned to mpool ucp_requests
[1715555507.461907] [bc12210:3065880:0]          mpool.c:42   UCX  WARN  object 0x127ae480 was not returned to mpool ucp_requests
[1715555507.461913] [bc12210:3065880:0]          mpool.c:42   UCX  WARN  object 0x127ae640 was not returned to mpool ucp_requests
[1715555507.461918] [bc12210:3065880:0]          mpool.c:42   UCX  WARN  object 0x127ae800 was not returned to mpool ucp_requests
[1715555507.461923] [bc12210:3065880:0]          mpool.c:42   UCX  WARN  object 0x127ae9c0 was not returned to mpool ucp_requests
[1715555507.461928] [bc12210:3065880:0]          mpool.c:42   UCX  WARN  object 0x127aeb80 was not returned to mpool ucp_requests
[1715555507.461933] [bc12210:3065880:0]          mpool.c:42   UCX  WARN  object 0x127aed40 was not returned to mpool ucp_requests
[1715555507.461938] [bc12210:3065880:0]          mpool.c:42   UCX  WARN  object 0x127aef00 was not returned to mpool ucp_requests
[1715555507.462578] [bc12210:3065895:0]          mpool.c:42   UCX  WARN  object 0x13ef2480 was not returned to mpool ucp_requests
[1715555507.462596] [bc12210:3065895:0]          mpool.c:42   UCX  WARN  object 0x13ef2640 was not returned to mpool ucp_requests
[1715555507.462602] [bc12210:3065895:0]          mpool.c:42   UCX  WARN  object 0x13ef2800 was not returned to mpool ucp_requests
[1715555507.462607] [bc12210:3065895:0]          mpool.c:42   UCX  WARN  object 0x13ef29c0 was not returned to mpool ucp_requests
[1715555507.462611] [bc12210:3065895:0]          mpool.c:42   UCX  WARN  object 0x13ef2b80 was not returned to mpool ucp_requests
[1715555507.462616] [bc12210:3065895:0]          mpool.c:42   UCX  WARN  object 0x13ef2d40 was not returned to mpool ucp_requests
[1715555507.462620] [bc12210:3065895:0]          mpool.c:42   UCX  WARN  object 0x13ef2f00 was not returned to mpool ucp_requests
[1715555507.462625] [bc12210:3065895:0]          mpool.c:42   UCX  WARN  object 0x13ef30c0 was not returned to mpool ucp_requests
[1715555507.462694] [bc12210:3065895:0]          mpool.c:42   UCX  WARN  object 0x13ef3280 was not returned to mpool ucp_requests
[1715555507.463778] [bc12210:3065893:0]          mpool.c:42   UCX  WARN  object 0x13c0ae80 was not returned to mpool ucp_requests
[1715555507.463794] [bc12210:3065893:0]          mpool.c:42   UCX  WARN  object 0x13c0b040 was not returned to mpool ucp_requests
[1715555507.463799] [bc12210:3065893:0]          mpool.c:42   UCX  WARN  object 0x13c0b200 was not returned to mpool ucp_requests
[1715555507.463804] [bc12210:3065893:0]          mpool.c:42   UCX  WARN  object 0x13c0b3c0 was not returned to mpool ucp_requests
[1715555507.463808] [bc12210:3065893:0]          mpool.c:42   UCX  WARN  object 0x13c0b580 was not returned to mpool ucp_requests
[1715555507.463812] [bc12210:3065893:0]          mpool.c:42   UCX  WARN  object 0x13c0b740 was not returned to mpool ucp_requests
[1715555507.463815] [bc12210:3065893:0]          mpool.c:42   UCX  WARN  object 0x13c0b900 was not returned to mpool ucp_requests
[1715555507.463819] [bc12210:3065893:0]          mpool.c:42   UCX  WARN  object 0x13c0bac0 was not returned to mpool ucp_requests
[1715555507.463823] [bc12210:3065893:0]          mpool.c:42   UCX  WARN  object 0x13c0bc80 was not returned to mpool ucp_requests
[1715555507.467536] [bc12210:3065912:0]          mpool.c:42   UCX  WARN  object 0x1297c100 was not returned to mpool ucp_requests
[1715555507.467554] [bc12210:3065912:0]          mpool.c:42   UCX  WARN  object 0x1297c2c0 was not returned to mpool ucp_requests
[1715555507.467559] [bc12210:3065912:0]          mpool.c:42   UCX  WARN  object 0x1297c480 was not returned to mpool ucp_requests
[1715555507.467563] [bc12210:3065912:0]          mpool.c:42   UCX  WARN  object 0x1297c640 was not returned to mpool ucp_requests
[1715555507.467567] [bc12210:3065912:0]          mpool.c:42   UCX  WARN  object 0x1297c800 was not returned to mpool ucp_requests
[1715555507.467571] [bc12210:3065912:0]          mpool.c:42   UCX  WARN  object 0x1297c9c0 was not returned to mpool ucp_requests
[1715555507.467575] [bc12210:3065912:0]          mpool.c:42   UCX  WARN  object 0x1297cb80 was not returned to mpool ucp_requests
[1715555507.467579] [bc12210:3065912:0]          mpool.c:42   UCX  WARN  object 0x1297cd40 was not returned to mpool ucp_requests
[1715555507.467582] [bc12210:3065912:0]          mpool.c:42   UCX  WARN  object 0x1297cf00 was not returned to mpool ucp_requests
[1715555507.465639] [bc12210:3065922:0]          mpool.c:42   UCX  WARN  object 0x13613780 was not returned to mpool ucp_requests
[1715555507.465657] [bc12210:3065922:0]          mpool.c:42   UCX  WARN  object 0x13613940 was not returned to mpool ucp_requests
[1715555507.465662] [bc12210:3065922:0]          mpool.c:42   UCX  WARN  object 0x13613b00 was not returned to mpool ucp_requests
[1715555507.465666] [bc12210:3065922:0]          mpool.c:42   UCX  WARN  object 0x13613cc0 was not returned to mpool ucp_requests
[1715555507.465670] [bc12210:3065922:0]          mpool.c:42   UCX  WARN  object 0x13613e80 was not returned to mpool ucp_requests
[1715555507.465674] [bc12210:3065922:0]          mpool.c:42   UCX  WARN  object 0x13614040 was not returned to mpool ucp_requests
[1715555507.465678] [bc12210:3065922:0]          mpool.c:42   UCX  WARN  object 0x13614200 was not returned to mpool ucp_requests
[1715555507.465682] [bc12210:3065922:0]          mpool.c:42   UCX  WARN  object 0x136143c0 was not returned to mpool ucp_requests
[1715555507.465686] [bc12210:3065922:0]          mpool.c:42   UCX  WARN  object 0x13614580 was not returned to mpool ucp_requests
[1715555507.464062] [bc12210:3065882:0]          mpool.c:42   UCX  WARN  object 0x12bd5b80 was not returned to mpool ucp_requests
[1715555507.464082] [bc12210:3065882:0]          mpool.c:42   UCX  WARN  object 0x12bd5f00 was not returned to mpool ucp_requests
[1715555507.464087] [bc12210:3065882:0]          mpool.c:42   UCX  WARN  object 0x12bd60c0 was not returned to mpool ucp_requests
[1715555507.464092] [bc12210:3065882:0]          mpool.c:42   UCX  WARN  object 0x12bd6280 was not returned to mpool ucp_requests
[1715555507.464096] [bc12210:3065882:0]          mpool.c:42   UCX  WARN  object 0x12bd6440 was not returned to mpool ucp_requests
[1715555507.464099] [bc12210:3065882:0]          mpool.c:42   UCX  WARN  object 0x12bd6600 was not returned to mpool ucp_requests
[1715555507.464103] [bc12210:3065882:0]          mpool.c:42   UCX  WARN  object 0x12bd67c0 was not returned to mpool ucp_requests
[1715555507.464108] [bc12210:3065882:0]          mpool.c:42   UCX  WARN  object 0x12bd6980 was not returned to mpool ucp_requests
[1715555507.464112] [bc12210:3065882:0]          mpool.c:42   UCX  WARN  object 0x12bd6b40 was not returned to mpool ucp_requests
[1715555507.464115] [bc12210:3065882:0]          mpool.c:42   UCX  WARN  object 0x12bd6d00 was not returned to mpool ucp_requests
[1715555507.466907] [bc12210:3065887:0]          mpool.c:42   UCX  WARN  object 0x128f4e80 was not returned to mpool ucp_requests
[1715555507.466924] [bc12210:3065887:0]          mpool.c:42   UCX  WARN  object 0x128f5040 was not returned to mpool ucp_requests
[1715555507.466929] [bc12210:3065887:0]          mpool.c:42   UCX  WARN  object 0x128f5200 was not returned to mpool ucp_requests
[1715555507.466934] [bc12210:3065887:0]          mpool.c:42   UCX  WARN  object 0x128f53c0 was not returned to mpool ucp_requests
[1715555507.466938] [bc12210:3065887:0]          mpool.c:42   UCX  WARN  object 0x128f5580 was not returned to mpool ucp_requests
[1715555507.466942] [bc12210:3065887:0]          mpool.c:42   UCX  WARN  object 0x128f5740 was not returned to mpool ucp_requests
[1715555507.466945] [bc12210:3065887:0]          mpool.c:42   UCX  WARN  object 0x128f5900 was not returned to mpool ucp_requests
[1715555507.466950] [bc12210:3065887:0]          mpool.c:42   UCX  WARN  object 0x128f5ac0 was not returned to mpool ucp_requests
[1715555507.466954] [bc12210:3065887:0]          mpool.c:42   UCX  WARN  object 0x128f5c80 was not returned to mpool ucp_requests
[1715555507.466958] [bc12210:3065887:0]          mpool.c:42   UCX  WARN  object 0x128f5e40 was not returned to mpool ucp_requests
[1715555507.466962] [bc12210:3065887:0]          mpool.c:42   UCX  WARN  object 0x128f6000 was not returned to mpool ucp_requests
[1715555507.465433] [bc12210:3065889:0]          mpool.c:42   UCX  WARN  object 0x1332a2c0 was not returned to mpool ucp_requests
[1715555507.465449] [bc12210:3065889:0]          mpool.c:42   UCX  WARN  object 0x1332a480 was not returned to mpool ucp_requests
[1715555507.465455] [bc12210:3065889:0]          mpool.c:42   UCX  WARN  object 0x1332a640 was not returned to mpool ucp_requests
[1715555507.465460] [bc12210:3065889:0]          mpool.c:42   UCX  WARN  object 0x1332a800 was not returned to mpool ucp_requests
[1715555507.465465] [bc12210:3065889:0]          mpool.c:42   UCX  WARN  object 0x1332a9c0 was not returned to mpool ucp_requests
[1715555507.465469] [bc12210:3065889:0]          mpool.c:42   UCX  WARN  object 0x1332ab80 was not returned to mpool ucp_requests
[1715555507.465473] [bc12210:3065889:0]          mpool.c:42   UCX  WARN  object 0x1332ad40 was not returned to mpool ucp_requests
[1715555507.465478] [bc12210:3065889:0]          mpool.c:42   UCX  WARN  object 0x1332af00 was not returned to mpool ucp_requests
[1715555507.465482] [bc12210:3065889:0]          mpool.c:42   UCX  WARN  object 0x1332b0c0 was not returned to mpool ucp_requests
[1715555507.465487] [bc12210:3065889:0]          mpool.c:42   UCX  WARN  object 0x1332b280 was not returned to mpool ucp_requests
[1715555507.465492] [bc12210:3065889:0]          mpool.c:42   UCX  WARN  object 0x1332b440 was not returned to mpool ucp_requests
[1715555507.464780] [bc12210:3065892:0]          mpool.c:42   UCX  WARN  object 0x1457bb40 was not returned to mpool ucp_requests
[1715555507.464796] [bc12210:3065892:0]          mpool.c:42   UCX  WARN  object 0x1457bd00 was not returned to mpool ucp_requests
[1715555507.464801] [bc12210:3065892:0]          mpool.c:42   UCX  WARN  object 0x1457bec0 was not returned to mpool ucp_requests
[1715555507.464809] [bc12210:3065892:0]          mpool.c:42   UCX  WARN  object 0x1457c080 was not returned to mpool ucp_requests
[1715555507.464813] [bc12210:3065892:0]          mpool.c:42   UCX  WARN  object 0x1457c240 was not returned to mpool ucp_requests
[1715555507.464817] [bc12210:3065892:0]          mpool.c:42   UCX  WARN  object 0x1457c400 was not returned to mpool ucp_requests
[1715555507.464820] [bc12210:3065892:0]          mpool.c:42   UCX  WARN  object 0x1457c5c0 was not returned to mpool ucp_requests
[1715555507.464824] [bc12210:3065892:0]          mpool.c:42   UCX  WARN  object 0x1457c780 was not returned to mpool ucp_requests
[1715555507.464828] [bc12210:3065892:0]          mpool.c:42   UCX  WARN  object 0x1457c940 was not returned to mpool ucp_requests
[1715555507.464832] [bc12210:3065892:0]          mpool.c:42   UCX  WARN  object 0x1457cb00 was not returned to mpool ucp_requests
[1715555507.464836] [bc12210:3065892:0]          mpool.c:42   UCX  WARN  object 0x1457ccc0 was not returned to mpool ucp_requests
[1715555507.466847] [bc12210:3065894:0]          mpool.c:42   UCX  WARN  object 0x13fb7780 was not returned to mpool ucp_requests
[1715555507.466862] [bc12210:3065894:0]          mpool.c:42   UCX  WARN  object 0x13fb7940 was not returned to mpool ucp_requests
[1715555507.466867] [bc12210:3065894:0]          mpool.c:42   UCX  WARN  object 0x13fb7b00 was not returned to mpool ucp_requests
[1715555507.466872] [bc12210:3065894:0]          mpool.c:42   UCX  WARN  object 0x13fb7cc0 was not returned to mpool ucp_requests
[1715555507.466876] [bc12210:3065894:0]          mpool.c:42   UCX  WARN  object 0x13fb7e80 was not returned to mpool ucp_requests
[1715555507.466880] [bc12210:3065894:0]          mpool.c:42   UCX  WARN  object 0x13fb8040 was not returned to mpool ucp_requests
[1715555507.466884] [bc12210:3065894:0]          mpool.c:42   UCX  WARN  object 0x13fb8200 was not returned to mpool ucp_requests
[1715555507.466888] [bc12210:3065894:0]          mpool.c:42   UCX  WARN  object 0x13fb83c0 was not returned to mpool ucp_requests
[1715555507.466891] [bc12210:3065894:0]          mpool.c:42   UCX  WARN  object 0x13fb8580 was not returned to mpool ucp_requests


           ************************************************************
           *        Program running with 16 parallel MPI-processes    *
           *              working on a common directory               *
           ************************************************************

------------------------------------------------------------------------------
                                ORCA  MP2 
------------------------------------------------------------------------------

Freezing NCore=16 chemical core electrons

-------------
RI-MP2 ENERGY
-------------
Dimension of the basis                    ... 1192
Memory devoted to MP2                     ...  256 MB   
Data format for buffers                   ... DOUBLE
Compression type for matrix containers    ... UNCOMPRESSED
Overall scaling of the MP2 energy         ...   1.000e+00
Calculating two index integrals           ... done (    0.032 sec)
Cholesky decomposition of V**-1           ... done (    0.612 sec)

-----------------
RI-TRANSFORMATION (AUX index driven)
-----------------

Dimension of the orbital-basis         ... 1192
Dimension of the aux-basis             ... 2304
Transformation of internal/external MOs...    8-  31 to   32-1191
Number Format for Storage              ... Double (8 Byte)
Integral mode                          ... Direct

First Phase: integral generation and transformation of MO indices
  Aux angular momentum 0               ... done (    0.311 sec)
  Aux angular momentum 1               ... done (    0.702 sec)
  Aux angular momentum 2               ... done (    1.071 sec)
  Aux angular momentum 3               ... done (    1.349 sec)
  Aux angular momentum 4               ... done (    1.187 sec)
  Aux angular momentum 5               ... done (    0.409 sec)
Closing buffer VIA ( 0.48 GB; CompressionRatio= 1.00)
  Phase 1 completed in     6.161 sec
Second Phase: sorting and transformation of aux index

IA-Transformation
Memory available                       ... 153 MB 
Max. # MO pairs treated in a batch     ... 2    
# of internal orbitals                 ... 24
# batches for internal orbitals        ... 1
Closing buffer IAV ( 0.48 GB; CompressionRatio= 1.00)
(ia|v) transformation done in     1.863 sec

  Phase 2 completed in     2.102 sec
RI-Integral transformation completed in     8.645 sec
Opening buffers                              ... done

Starting loop over batches of integrals:

Operator 0  - window                       ... (  8- 31)x( 32-1191)
Operator 0  - Memory available             ...   256 MB
Operator 0  - Memory needed per MO         ...  20.4 MB
Operator 0  - Number of orbitals per batch ... 2
Operator 0  - Number of batches            ... 1

OPERATOR  0   PASS   0:  MOs     8 ...    9 +   10 ...   11 +   12 ...   13 +   14 ...   15
                            +   16 ...   17 +   18 ...   19 +   20 ...   21 +   22 ...   23
                            +   24 ...   25 +   26 ...   27 +   28 ...   29 +   30 ...   31
  Reading integrals       ... ok
Time spent in pair loops =     0.428 sec
Deleting buffer (Ka|jb)[aa] ...done

-----------------------------------------------
 RI-MP2 CORRELATION ENERGY:     -1.605700650 Eh
-----------------------------------------------


-------
TIMINGS
-------

Total time                :   15.622 sec
Integral trafo            :    8.669 sec ( 55.5%)
I/O of integrals          :    0.019 sec (  0.1%)
K(i,j) Operators          :    0.326 sec (  2.1%)
T(i,j) pair energies      :    0.033 sec (  0.2%)
V-calculation             :    0.032 sec (  0.2%)
V**(-1/2)                 :    0.612 sec (  3.9%)
Gamma(ia|P)               :    0.000 sec (  0.0%)
Gamma-Trafo               :    0.000 sec (  0.0%)
D(virtual)                :    0.000 sec (  0.0%)
D(internal)               :    0.000 sec (  0.0%)
W(virtual)                :    0.000 sec (  0.0%)
W(internal)               :    0.000 sec (  0.0%)
L(virtual)                :    0.000 sec (  0.0%)
L(internal)               :    0.000 sec (  0.0%)
G(D)                      :    0.000 sec (  0.0%)
G(Z)                      :    0.000 sec (  0.0%)
Z-Vector Solution         :    0.000 sec (  0.0%)
3-Index Derivative        :    0.000 sec (  0.0%)
2-Index Derivative        :    0.000 sec (  0.0%)
Separable Gradient        :    0.000 sec (  0.0%)


---------------------------------------
MP2 TOTAL ENERGY:     -385.718502662 Eh
---------------------------------------

Maximum memory used throughout the entire MP2-calculation: 300.0 MB

-------------------------   --------------------
FINAL SINGLE POINT ENERGY      -385.718502661989
-------------------------   --------------------


                            ***************************************
                            *     ORCA property calculations      *
                            ***************************************


  WARNING: The energy has been calculated at the MP2 level but the densities
           used in the property calculations are still SCF densities
           MP2 response densities have not been calculated 
           use %mp2 Density relaxed end
           or  %mp2 Density unrelaxed end

                                    ---------------------
                                    Active property flags
                                    ---------------------
   (+) Dipole Moment


------------------------------------------------------------------------------
                       ORCA ELECTRIC PROPERTIES CALCULATION
------------------------------------------------------------------------------

Dipole Moment Calculation                       ... on
Quadrupole Moment Calculation                   ... off
Polarizability Calculation                      ... off
GBWName                                         ... butyl_acetate.gbw
Electron density                                ... butyl_acetate.scfp
The origin for moment calculation is the CENTER OF MASS  = ( 0.170252,  0.047561 -0.000002)

-------------
DIPOLE MOMENT
-------------
                                X             Y             Z
Electronic contribution:     10.43377       2.27183      -0.00008
Nuclear contribution   :    -10.89615      -3.04389       0.00011
                        -----------------------------------------
Total Dipole Moment    :     -0.46237      -0.77206       0.00003
                        -----------------------------------------
Magnitude (a.u.)       :      0.89992
Magnitude (Debye)      :      2.28742



--------------------
Rotational spectrum 
--------------------
 
Rotational constants in cm-1:     0.235481     0.023620     0.021900 
Rotational constants in MHz :  7059.546847   708.112316   656.555372 

 Dipole components along the rotational axes: 
x,y,z [a.u.] :    -0.472086     0.766157     0.000025 
x,y,z [Debye]:    -1.199948     1.947417     0.000064 

 

Timings for individual modules:

Sum of individual times         ...     4199.996 sec (=  70.000 min)
GTO integral calculation        ...        6.813 sec (=   0.114 min)   0.2 %
SCF iterations                  ...     4173.021 sec (=  69.550 min)  99.4 %
MP2 module                      ...       20.162 sec (=   0.336 min)   0.5 %
                             ****ORCA TERMINATED NORMALLY****
TOTAL RUN TIME: 0 days 1 hours 10 minutes 7 seconds 729 msec
