
                                 *****************
                                 * O   R   C   A *
                                 *****************

                                            #,                                       
                                            ###                                      
                                            ####                                     
                                            #####                                    
                                            ######                                   
                                           ########,                                 
                                     ,,################,,,,,                         
                               ,,#################################,,                 
                          ,,##########################################,,             
                       ,#########################################, ''#####,          
                    ,#############################################,,   '####,        
                  ,##################################################,,,,####,       
                ,###########''''           ''''###############################       
              ,#####''   ,,,,##########,,,,          '''####'''          '####       
            ,##' ,,,,###########################,,,                        '##       
           ' ,,###''''                  '''############,,,                           
         ,,##''                                '''############,,,,        ,,,,,,###''
      ,#''                                            '''#######################'''  
     '                                                          ''''####''''         
             ,#######,   #######,   ,#######,      ##                                
            ,#'     '#,  ##    ##  ,#'     '#,    #''#        ######   ,####,        
            ##       ##  ##   ,#'  ##            #'  '#       #        #'  '#        
            ##       ##  #######   ##           ,######,      #####,   #    #        
            '#,     ,#'  ##    ##  '#,     ,#' ,#      #,         ##   #,  ,#        
             '#######'   ##     ##  '#######'  #'      '#     #####' # '####'        



                  #######################################################
                  #                        -***-                        #
                  #          Department of theory and spectroscopy      #
                  #    Directorship and core code : Frank Neese         #
                  #        Max Planck Institute fuer Kohlenforschung    #
                  #                Kaiser Wilhelm Platz 1               #
                  #                 D-45470 Muelheim/Ruhr               #
                  #                      Germany                        #
                  #                                                     #
                  #                  All rights reserved                #
                  #                        -***-                        #
                  #######################################################


                         Program Version 5.0.4 -  RELEASE  -


 With contributions from (in alphabetic order):
   Daniel Aravena         : Magnetic Suceptibility
   Michael Atanasov       : Ab Initio Ligand Field Theory (pilot matlab implementation)
   Alexander A. Auer      : GIAO ZORA, VPT2 properties, NMR spectrum
   Ute Becker             : Parallelization
   Giovanni Bistoni       : ED, misc. LED, open-shell LED, HFLD
   Martin Brehm           : Molecular dynamics
   Dmytro Bykov           : SCF Hessian
   Vijay G. Chilkuri      : MRCI spin determinant printing, contributions to CSF-ICE
   Dipayan Datta          : RHF DLPNO-CCSD density
   Achintya Kumar Dutta   : EOM-CC, STEOM-CC
   Dmitry Ganyushin       : Spin-Orbit,Spin-Spin,Magnetic field MRCI
   Miquel Garcia          : C-PCM and meta-GGA Hessian, CC/C-PCM, Gaussian charge scheme
   Yang Guo               : DLPNO-NEVPT2, F12-NEVPT2, CIM, IAO-localization
   Andreas Hansen         : Spin unrestricted coupled pair/coupled cluster methods
   Benjamin Helmich-Paris : MC-RPA, TRAH-SCF, COSX integrals
   Lee Huntington         : MR-EOM, pCC
   Robert Izsak           : Overlap fitted RIJCOSX, COSX-SCS-MP3, EOM
   Marcus Kettner         : VPT2
   Christian Kollmar      : KDIIS, OOCD, Brueckner-CCSD(T), CCSD density, CASPT2, CASPT2-K
   Simone Kossmann        : Meta GGA functionals, TD-DFT gradient, OOMP2, MP2 Hessian
   Martin Krupicka        : Initial AUTO-CI
   Lucas Lang             : DCDCAS
   Marvin Lechner         : AUTO-CI (C++ implementation), FIC-MRCC
   Dagmar Lenk            : GEPOL surface, SMD
   Dimitrios Liakos       : Extrapolation schemes; Compound Job, initial MDCI parallelization
   Dimitrios Manganas     : Further ROCIS development; embedding schemes
   Dimitrios Pantazis     : SARC Basis sets
   Anastasios Papadopoulos: AUTO-CI, single reference methods and gradients
   Taras Petrenko         : DFT Hessian,TD-DFT gradient, ASA, ECA, R-Raman, ABS, FL, XAS/XES, NRVS
   Peter Pinski           : DLPNO-MP2, DLPNO-MP2 Gradient
   Christoph Reimann      : Effective Core Potentials
   Marius Retegan         : Local ZFS, SOC
   Christoph Riplinger    : Optimizer, TS searches, QM/MM, DLPNO-CCSD(T), (RO)-DLPNO pert. Triples
   Tobias Risthaus        : Range-separated hybrids, TD-DFT gradient, RPA, STAB
   Michael Roemelt        : Original ROCIS implementation
   Masaaki Saitow         : Open-shell DLPNO-CCSD energy and density
   Barbara Sandhoefer     : DKH picture change effects
   Avijit Sen             : IP-ROCIS
   Kantharuban Sivalingam : CASSCF convergence, NEVPT2, FIC-MRCI
   Bernardo de Souza      : ESD, SOC TD-DFT
   Georgi Stoychev        : AutoAux, RI-MP2 NMR, DLPNO-MP2 response
   Willem Van den Heuvel  : Paramagnetic NMR
   Boris Wezisla          : Elementary symmetry handling
   Frank Wennmohs         : Technical directorship


 We gratefully acknowledge several colleagues who have allowed us to
 interface, adapt or use parts of their codes:
   Stefan Grimme, W. Hujo, H. Kruse, P. Pracht,  : VdW corrections, initial TS optimization,
                  C. Bannwarth, S. Ehlert          DFT functionals, gCP, sTDA/sTD-DF
   Ed Valeev, F. Pavosevic, A. Kumar             : LibInt (2-el integral package), F12 methods
   Garnet Chan, S. Sharma, J. Yang, R. Olivares  : DMRG
   Ulf Ekstrom                                   : XCFun DFT Library
   Mihaly Kallay                                 : mrcc  (arbitrary order and MRCC methods)
   Jiri Pittner, Ondrej Demel                    : Mk-CCSD
   Frank Weinhold                                : gennbo (NPA and NBO analysis)
   Christopher J. Cramer and Donald G. Truhlar   : smd solvation model
   Lars Goerigk                                  : TD-DFT with DH, B97 family of functionals
   V. Asgeirsson, H. Jonsson                     : NEB implementation
   FAccTs GmbH                                   : IRC, NEB, NEB-TS, DLPNO-Multilevel, CI-OPT
                                                   MM, QMMM, 2- and 3-layer-ONIOM, Crystal-QMMM,
                                                   LR-CPCM, SF, NACMEs, symmetry and pop. for TD-DFT,
                                                   nearIR, NL-DFT gradient (VV10), updates on ESD,
                                                   ML-optimized integration grids
   S Lehtola, MJT Oliveira, MAL Marques          : LibXC Library
   Liviu Ungur et al                             : ANISO software


 Your calculation uses the libint2 library for the computation of 2-el integrals
 For citations please refer to: http://libint.valeyev.net

 Your ORCA version has been built with support for libXC version: 5.1.0
 For citations please refer to: https://tddft.org/programs/libxc/

 This ORCA versions uses:
   CBLAS   interface :  Fast vector & matrix operations
   LAPACKE interface :  Fast linear algebra routines
   SCALAPACK package :  Parallel linear algebra routines
   Shared memory     :  Shared parallel matrices
   BLAS/LAPACK       :  OpenBLAS 0.3.15  USE64BITINT DYNAMIC_ARCH NO_AFFINITY SkylakeX SINGLE_THREADED
        Core in use  :  SkylakeX
   Copyright (c) 2011-2014, The OpenBLAS Project


================================================================================

----- Orbital basis set information -----
Your calculation utilizes the basis: aug-cc-pVQZ 
    H, B-Ne : Obtained from the ccRepo (grant-hill.group.shef.ac.uk/ccrepo) Feb. 2017
              R. A. Kendall, T. H. Dunning, Jr., R. J. Harrison, J. Chem. Phys. 96, 6796 (1992)
         He : Obtained from the ccRepo (grant-hill.group.shef.ac.uk/ccrepo) Feb. 2017
              D. E. Woon, T. H. Dunning, Jr., J. Chem. Phys. 100, 2975 (1994)
  Li-Be, Na : Obtained from the ccRepo (grant-hill.group.shef.ac.uk/ccrepo) Feb. 2017
              B. P. Prascher, D. E. Woon, K. A. Peterson, T. H. Dunning, Jr., A. K. Wilson, Theor. Chem. Acc. 128, 69 (2011)
         Mg : Obtained from the Peterson Research Group Website (tyr0.chem.wsu.edu/~kipeters) Feb. 2017
              B. P. Prascher, D. E. Woon, K. A. Peterson, T. H. Dunning, Jr., A. K. Wilson, Theor. Chem. Acc. 128, 69 (2011)
      Al-Ar : Obtained from the ccRepo (grant-hill.group.shef.ac.uk/ccrepo) Feb. 2017
              D. E. Woon, T. H. Dunning, Jr., J. Chem. Phys. 98, 1358 (1993)
      Sc-Zn : Obtained from the ccRepo (grant-hill.group.shef.ac.uk/ccrepo) Feb. 2017
              N. B. Balabanov, K. A. Peterson, J. Chem. Phys. 123, 064107 (2005)
              N. B. Balabanov, K. A. Peterson, J. Chem. Phys. 125, 074110 (2006)
      Ga-Kr : Obtained from the ccRepo (grant-hill.group.shef.ac.uk/ccrepo) Feb. 2017
              A. K. Wilson, D. E. Woon, K. A. Peterson, T. H. Dunning, Jr., J. Chem. Phys. 110, 7667 (1999)

----- AuxC basis set information -----
Your calculation utilizes the auxiliary basis: aug-cc-pVQZ/C 
  H-He, B-F, Al-Ar, Ga-Kr : Obtained from the EMSL Basis Set Exchange (bse.pnl.gov) Feb. 2017
                            F. Weigend, A. Kohn, C. Hattig, J. Chem. Phys. 116, 3175 (2002)
                   Be, Mg : Obtained from the TURBOMOLE 7.0 basis set library
                            C. Haettig, Phys. Chem. Chem. Phys. 7, 59 (2005)
                       Ne : Obtained from the EMSL Basis Set Exchange (bse.pnl.gov) Feb. 2017
                            C. Haettig, Phys. Chem. Chem. Phys. 7, 59 (2005)
                            F. Weigend, A. Kohn, C. Hattig, J. Chem. Phys. 116, 3175 (2002)
                    Sc-Zn : Obtained from the EMSL Basis Set Exchange (bse.pnl.gov) Feb. 2017
                            D. H. Bross, J. G. Hill, H. J. Werner, K. A. Peterson, J. Chem. Phys. 139, 094302 (2013)

================================================================================
                                        WARNINGS
                       Please study these warnings very carefully!
================================================================================


WARNING: No MP2 level density has been requested!
         To caclulate MP2 level properties use
         %mp2 Density relaxed end
         or
         %mp2 Density unrelaxed end

WARNING: Post HF methods need fully converged wavefunctions
  ===> : Setting SCFConvForced true
         You can overwrite this default with %scf ConvForced false 


INFO   : the flag for use of the SHARK integral package has been found!

================================================================================
                                       INPUT FILE
================================================================================
NAME = diethyl_sulfone.inp
|  1> !ri-mp2 aug-cc-pvqz aug-cc-pvqz/c tightscf
|  2> %pal nprocs 16 end
|  3> 
|  4> * xyz 0 1
|  5> O      0.424779    2.021733    0.000000
|  6> S      0.358890    0.561255    0.000000
|  7> C     -0.613205    0.101793    1.471297
|  8> C     -0.613205   -1.376626    1.826915
|  9> C     -0.613205    0.101793   -1.471297
| 10> C     -0.613205   -1.376626   -1.826915
| 11> O      1.592893   -0.223650    0.000000
| 12> H     -1.610423    0.511825    1.314449
| 13> H     -0.127133    0.701508    2.241547
| 14> H      0.402605   -1.766402    1.849066
| 15> H     -1.195297   -1.970903    1.125329
| 16> H     -1.053100   -1.509402    2.815892
| 17> H     -0.127133    0.701508   -2.241547
| 18> H     -1.610423    0.511825   -1.314449
| 19> H      0.402605   -1.766402   -1.849066
| 20> H     -1.053100   -1.509402   -2.815892
| 21> H     -1.195297   -1.970903   -1.125329
| 22> *
| 23> 
| 24>                          ****END OF INPUT****
================================================================================

                       ****************************
                       * Single Point Calculation *
                       ****************************

---------------------------------
CARTESIAN COORDINATES (ANGSTROEM)
---------------------------------
  O      0.424779    2.021733    0.000000
  S      0.358890    0.561255    0.000000
  C     -0.613205    0.101793    1.471297
  C     -0.613205   -1.376626    1.826915
  C     -0.613205    0.101793   -1.471297
  C     -0.613205   -1.376626   -1.826915
  O      1.592893   -0.223650    0.000000
  H     -1.610423    0.511825    1.314449
  H     -0.127133    0.701508    2.241547
  H      0.402605   -1.766402    1.849066
  H     -1.195297   -1.970903    1.125329
  H     -1.053100   -1.509402    2.815892
  H     -0.127133    0.701508   -2.241547
  H     -1.610423    0.511825   -1.314449
  H      0.402605   -1.766402   -1.849066
  H     -1.053100   -1.509402   -2.815892
  H     -1.195297   -1.970903   -1.125329

----------------------------
CARTESIAN COORDINATES (A.U.)
----------------------------
  NO LB      ZA    FRAG     MASS         X           Y           Z
   0 O     8.0000    0    15.999    0.802716    3.820522    0.000000
   1 S    16.0000    0    32.060    0.678204    1.060618    0.000000
   2 C     6.0000    0    12.011   -1.158790    0.192361    2.780348
   3 C     6.0000    0    12.011   -1.158790   -2.601446    3.452369
   4 C     6.0000    0    12.011   -1.158790    0.192361   -2.780348
   5 C     6.0000    0    12.011   -1.158790   -2.601446   -3.452369
   6 O     8.0000    0    15.999    3.010132   -0.422637    0.000000
   7 H     1.0000    0     1.008   -3.043258    0.967209    2.483949
   8 H     1.0000    0     1.008   -0.240247    1.325658    4.235910
   9 H     1.0000    0     1.008    0.760813   -3.338016    3.494228
  10 H     1.0000    0     1.008   -2.258784   -3.724467    2.126564
  11 H     1.0000    0     1.008   -1.990071   -2.852356    5.321265
  12 H     1.0000    0     1.008   -0.240247    1.325658   -4.235910
  13 H     1.0000    0     1.008   -3.043258    0.967209   -2.483949
  14 H     1.0000    0     1.008    0.760813   -3.338016   -3.494228
  15 H     1.0000    0     1.008   -1.990071   -2.852356   -5.321265
  16 H     1.0000    0     1.008   -2.258784   -3.724467   -2.126564

--------------------------------
INTERNAL COORDINATES (ANGSTROEM)
--------------------------------
 O      0   0   0     0.000000000000     0.00000000     0.00000000
 S      1   0   0     1.461963525128     0.00000000     0.00000000
 C      2   1   0     1.822303180230   106.01673099     0.00000000
 C      3   2   1     1.520587682932   115.71927637   190.46916916
 C      2   1   3     1.822303180230   106.01673099   114.27826954
 C      5   2   1     1.520587682932   115.71927637   169.53083084
 O      2   1   3     1.462477098294   119.87584567   237.13913477
 H      3   2   1     1.089573896371   106.08825234    63.56420415
 H      3   2   1     1.090508657879   101.17714402   311.34907441
 H      4   3   2     1.088249030818   110.67065516    49.77298456
 H      4   3   2     1.088218344170   112.34475823   288.36061327
 H      4   3   2     1.090510240085   109.29751729   168.99621750
 H      5   2   1     1.090508657879   101.17714402    48.65092559
 H      5   2   1     1.089573896371   106.08825234   296.43579585
 H      6   5   2     1.088249030818   110.67065516   310.22701544
 H      6   5   2     1.090510240085   109.29751729   191.00378250
 H      6   5   2     1.088218344170   112.34475823    71.63938673

---------------------------
INTERNAL COORDINATES (A.U.)
---------------------------
 O      0   0   0     0.000000000000     0.00000000     0.00000000
 S      1   0   0     2.762710680274     0.00000000     0.00000000
 C      2   1   0     3.443653943609   106.01673099     0.00000000
 C      3   2   1     2.873494283356   115.71927637   190.46916916
 C      2   1   3     3.443653943609   106.01673099   114.27826954
 C      5   2   1     2.873494283356   115.71927637   169.53083084
 O      2   1   3     2.763681192907   119.87584567   237.13913477
 H      3   2   1     2.058996266810   106.08825234    63.56420415
 H      3   2   1     2.060762710061   101.17714402   311.34907441
 H      4   3   2     2.056492633752   110.67065516    49.77298456
 H      4   3   2     2.056434644391   112.34475823   288.36061327
 H      4   3   2     2.060765699997   109.29751729   168.99621750
 H      5   2   1     2.060762710061   101.17714402    48.65092559
 H      5   2   1     2.058996266810   106.08825234   296.43579585
 H      6   5   2     2.056492633752   110.67065516   310.22701544
 H      6   5   2     2.060765699997   109.29751729   191.00378250
 H      6   5   2     2.056434644391   112.34475823    71.63938673

---------------------
BASIS SET INFORMATION
---------------------
There are 4 groups of distinct atoms

 Group   1 Type O   : 22s7p4d3f2g contracted to 6s5p4d3f2g pattern {991111/31111/1111/111/11}
 Group   2 Type S   : 43s20p4d3f2g contracted to 7s6p4d3f2g pattern {1313131111/881111/1111/111/11}
 Group   3 Type C   : 22s7p4d3f2g contracted to 6s5p4d3f2g pattern {991111/31111/1111/111/11}
 Group   4 Type H   : 7s4p3d2f contracted to 5s4p3d2f pattern {31111/1111/111/11}

Atom   0O    basis set group =>   1
Atom   1S    basis set group =>   2
Atom   2C    basis set group =>   3
Atom   3C    basis set group =>   3
Atom   4C    basis set group =>   3
Atom   5C    basis set group =>   3
Atom   6O    basis set group =>   1
Atom   7H    basis set group =>   4
Atom   8H    basis set group =>   4
Atom   9H    basis set group =>   4
Atom  10H    basis set group =>   4
Atom  11H    basis set group =>   4
Atom  12H    basis set group =>   4
Atom  13H    basis set group =>   4
Atom  14H    basis set group =>   4
Atom  15H    basis set group =>   4
Atom  16H    basis set group =>   4
---------------------------------
AUXILIARY/C BASIS SET INFORMATION
---------------------------------
There are 4 groups of distinct atoms

 Group   1 Type O   : 9s8p7d6f4g2h contracted to 9s8p7d6f4g2h pattern {111111111/11111111/1111111/111111/1111/11}
 Group   2 Type S   : 12s10p9d7f4g2h contracted to 12s10p9d7f4g2h pattern {111111111111/1111111111/111111111/1111111/1111/11}
 Group   3 Type C   : 9s8p7d6f4g2h contracted to 9s8p7d6f4g2h pattern {111111111/11111111/1111111/111111/1111/11}
 Group   4 Type H   : 6s5p4d3f2g contracted to 6s5p4d3f2g pattern {111111/11111/1111/111/11}

Atom   0O    basis set group =>   1
Atom   1S    basis set group =>   2
Atom   2C    basis set group =>   3
Atom   3C    basis set group =>   3
Atom   4C    basis set group =>   3
Atom   5C    basis set group =>   3
Atom   6O    basis set group =>   1
Atom   7H    basis set group =>   4
Atom   8H    basis set group =>   4
Atom   9H    basis set group =>   4
Atom  10H    basis set group =>   4
Atom  11H    basis set group =>   4
Atom  12H    basis set group =>   4
Atom  13H    basis set group =>   4
Atom  14H    basis set group =>   4
Atom  15H    basis set group =>   4
Atom  16H    basis set group =>   4


           ************************************************************
           *        Program running with 16 parallel MPI-processes    *
           *              working on a common directory               *
           ************************************************************
------------------------------------------------------------------------------
                           ORCA GTO INTEGRAL CALCULATION
------------------------------------------------------------------------------
------------------------------------------------------------------------------
                   ___                                                        
                  /   \      - P O W E R E D   B Y -                         
                 /     \                                                     
                 |  |  |   _    _      __       _____    __    __             
                 |  |  |  | |  | |    /  \     |  _  \  |  |  /  |          
                  \  \/   | |  | |   /    \    | | | |  |  | /  /          
                 / \  \   | |__| |  /  /\  \   | |_| |  |  |/  /          
                |  |  |   |  __  | /  /__\  \  |    /   |      \           
                |  |  |   | |  | | |   __   |  |    \   |  |\   \          
                \     /   | |  | | |  |  |  |  | |\  \  |  | \   \       
                 \___/    |_|  |_| |__|  |__|  |_| \__\ |__|  \__/        
                                                                              
                      - O R C A' S   B I G   F R I E N D -                    
                                      &                                       
                       - I N T E G R A L  F E E D E R -                       
                                                                              
 v1 FN, 2020, v2 2021                                                         
------------------------------------------------------------------------------


Reading SHARK input file diethyl_sulfone.SHARKINP.tmp ... ok
----------------------
SHARK INTEGRAL PACKAGE
----------------------

Number of atoms                             ...     17
Number of basis functions                   ...   1094
Number of shells                            ...    340
Maximum angular momentum                    ...      4
Integral batch strategy                     ... SHARK/LIBINT Hybrid
RI-J (if used) integral strategy            ... SPLIT-RIJ (Revised 2003 algorithm where possible)
Printlevel                                  ...      1
Contraction scheme used                     ... PARTIAL GENERAL contraction
Coulomb Range Separation                    ... NOT USED
Exchange Range Separation                   ... NOT USED
Finite Nucleus Model                        ... NOT USED
Auxiliary Coulomb fitting basis             ... NOT available
Auxiliary J/K fitting basis                 ... NOT available
Auxiliary Correlation fitting basis         ... AVAILABLE
   # of basis functions in Aux-C            ...   2002
   # of shells in Aux-C                     ...    460
   Maximum angular momentum in Aux-C        ...      5
Auxiliary 'external' fitting basis          ... NOT available
Integral threshold                          ...     2.500000e-11
Primitive cut-off                           ...     2.500000e-12
Primitive pair pre-selection threshold      ...     2.500000e-12

Calculating pre-screening integrals         ... done (  0.1 sec) Dimension = 340
Calculating pre-screening integrals (ORCA)  ... done (  0.8 sec) Dimension = 282
Organizing shell pair data                  ... done (  1.5 sec)
Shell pair information
Total number of shell pairs                 ...     57970
Shell pairs after pre-screening             ...     48683
Total number of primitive shell pairs       ...     69426
Primitive shell pairs kept                  ...     54998
          la=0 lb=0:   7502 shell pairs
          la=1 lb=0:   9712 shell pairs
          la=1 lb=1:   3078 shell pairs
          la=2 lb=0:   6975 shell pairs
          la=2 lb=1:   4343 shell pairs
          la=2 lb=2:   1571 shell pairs
          la=3 lb=0:   5055 shell pairs
          la=3 lb=1:   3106 shell pairs
          la=3 lb=2:   2216 shell pairs
          la=3 lb=3:    815 shell pairs
          la=4 lb=0:   1773 shell pairs
          la=4 lb=1:   1096 shell pairs
          la=4 lb=2:    782 shell pairs
          la=4 lb=3:    554 shell pairs
          la=4 lb=4:    105 shell pairs

Calculating one electron integrals          ... done (  0.1 sec)
Calculating RI/C V-Matrix + Cholesky decomp.... done (  1.3 sec)
Calculating Nuclear repulsion               ... done (  0.0 sec) ENN=    435.799783993755 Eh

SHARK setup successfully completed in   5.9 seconds

Maximum memory used throughout the entire GTOINT-calculation: 99.1 MB
[1715553111.270935] [bc11304:1123607:0]          mpool.c:42   UCX  WARN  object 0xb9e9900 was not returned to mpool ucp_requests
[1715553111.270960] [bc11304:1123607:0]          mpool.c:42   UCX  WARN  object 0xb9e9ac0 was not returned to mpool ucp_requests
[1715553111.270967] [bc11304:1123607:0]          mpool.c:42   UCX  WARN  object 0xb9e9c80 was not returned to mpool ucp_requests
[1715553111.270972] [bc11304:1123607:0]          mpool.c:42   UCX  WARN  object 0xb9e9e40 was not returned to mpool ucp_requests
[1715553111.270977] [bc11304:1123607:0]          mpool.c:42   UCX  WARN  object 0xb9ea000 was not returned to mpool ucp_requests
[1715553111.270983] [bc11304:1123607:0]          mpool.c:42   UCX  WARN  object 0xb9ea1c0 was not returned to mpool ucp_requests
[1715553111.270988] [bc11304:1123607:0]          mpool.c:42   UCX  WARN  object 0xb9ea380 was not returned to mpool ucp_requests
[1715553111.270992] [bc11304:1123607:0]          mpool.c:42   UCX  WARN  object 0xb9ea540 was not returned to mpool ucp_requests
[1715553111.270997] [bc11304:1123607:0]          mpool.c:42   UCX  WARN  object 0xb9ea700 was not returned to mpool ucp_requests
[1715553111.271001] [bc11304:1123607:0]          mpool.c:42   UCX  WARN  object 0xb9ea8c0 was not returned to mpool ucp_requests
[1715553111.271006] [bc11304:1123607:0]          mpool.c:42   UCX  WARN  object 0xb9eaa80 was not returned to mpool ucp_requests
[1715553111.271010] [bc11304:1123607:0]          mpool.c:42   UCX  WARN  object 0xb9eac40 was not returned to mpool ucp_requests
[1715553111.271015] [bc11304:1123607:0]          mpool.c:42   UCX  WARN  object 0xb9eae00 was not returned to mpool ucp_requests
[1715553111.271019] [bc11304:1123607:0]          mpool.c:42   UCX  WARN  object 0xb9eafc0 was not returned to mpool ucp_requests
[1715553111.271024] [bc11304:1123607:0]          mpool.c:42   UCX  WARN  object 0xb9eb180 was not returned to mpool ucp_requests
[1715553111.271028] [bc11304:1123607:0]          mpool.c:42   UCX  WARN  object 0xb9eb340 was not returned to mpool ucp_requests
[1715553111.271033] [bc11304:1123607:0]          mpool.c:42   UCX  WARN  object 0xb9eb500 was not returned to mpool ucp_requests
[1715553111.271321] [bc11304:1123599:0]          mpool.c:42   UCX  WARN  object 0xb2544c0 was not returned to mpool ucp_requests
[1715553111.271342] [bc11304:1123599:0]          mpool.c:42   UCX  WARN  object 0xb254680 was not returned to mpool ucp_requests
[1715553111.271348] [bc11304:1123599:0]          mpool.c:42   UCX  WARN  object 0xb254840 was not returned to mpool ucp_requests
[1715553111.271353] [bc11304:1123599:0]          mpool.c:42   UCX  WARN  object 0xb254a00 was not returned to mpool ucp_requests
[1715553111.271358] [bc11304:1123599:0]          mpool.c:42   UCX  WARN  object 0xb254bc0 was not returned to mpool ucp_requests
[1715553111.271363] [bc11304:1123599:0]          mpool.c:42   UCX  WARN  object 0xb254d80 was not returned to mpool ucp_requests
[1715553111.271367] [bc11304:1123599:0]          mpool.c:42   UCX  WARN  object 0xb254f40 was not returned to mpool ucp_requests
[1715553111.271372] [bc11304:1123599:0]          mpool.c:42   UCX  WARN  object 0xb255100 was not returned to mpool ucp_requests
[1715553111.271377] [bc11304:1123599:0]          mpool.c:42   UCX  WARN  object 0xb2552c0 was not returned to mpool ucp_requests
[1715553111.271382] [bc11304:1123599:0]          mpool.c:42   UCX  WARN  object 0xb255480 was not returned to mpool ucp_requests
[1715553111.271387] [bc11304:1123599:0]          mpool.c:42   UCX  WARN  object 0xb255640 was not returned to mpool ucp_requests
[1715553111.271391] [bc11304:1123599:0]          mpool.c:42   UCX  WARN  object 0xb255800 was not returned to mpool ucp_requests
[1715553111.271398] [bc11304:1123599:0]          mpool.c:42   UCX  WARN  object 0xb2559c0 was not returned to mpool ucp_requests
[1715553111.272264] [bc11304:1123605:0]          mpool.c:42   UCX  WARN  object 0xb193340 was not returned to mpool ucp_requests
[1715553111.272282] [bc11304:1123605:0]          mpool.c:42   UCX  WARN  object 0xb193500 was not returned to mpool ucp_requests
[1715553111.272288] [bc11304:1123605:0]          mpool.c:42   UCX  WARN  object 0xb1936c0 was not returned to mpool ucp_requests
[1715553111.272293] [bc11304:1123605:0]          mpool.c:42   UCX  WARN  object 0xb193880 was not returned to mpool ucp_requests
[1715553111.272298] [bc11304:1123605:0]          mpool.c:42   UCX  WARN  object 0xb193a40 was not returned to mpool ucp_requests
[1715553111.272309] [bc11304:1123605:0]          mpool.c:42   UCX  WARN  object 0xb193c00 was not returned to mpool ucp_requests
[1715553111.272313] [bc11304:1123605:0]          mpool.c:42   UCX  WARN  object 0xb193dc0 was not returned to mpool ucp_requests
[1715553111.272318] [bc11304:1123605:0]          mpool.c:42   UCX  WARN  object 0xb193f80 was not returned to mpool ucp_requests
[1715553111.272323] [bc11304:1123605:0]          mpool.c:42   UCX  WARN  object 0xb194140 was not returned to mpool ucp_requests
[1715553111.272328] [bc11304:1123605:0]          mpool.c:42   UCX  WARN  object 0xb194300 was not returned to mpool ucp_requests
[1715553111.272333] [bc11304:1123605:0]          mpool.c:42   UCX  WARN  object 0xb1944c0 was not returned to mpool ucp_requests
[1715553111.272338] [bc11304:1123605:0]          mpool.c:42   UCX  WARN  object 0xb194680 was not returned to mpool ucp_requests
[1715553111.272342] [bc11304:1123605:0]          mpool.c:42   UCX  WARN  object 0xb194840 was not returned to mpool ucp_requests
[1715553111.272347] [bc11304:1123605:0]          mpool.c:42   UCX  WARN  object 0xb194a00 was not returned to mpool ucp_requests
[1715553111.272351] [bc11304:1123605:0]          mpool.c:42   UCX  WARN  object 0xb194bc0 was not returned to mpool ucp_requests
[1715553111.272356] [bc11304:1123605:0]          mpool.c:42   UCX  WARN  object 0xb194d80 was not returned to mpool ucp_requests
[1715553111.272638] [bc11304:1123611:0]          mpool.c:42   UCX  WARN  object 0xb90c180 was not returned to mpool ucp_requests
[1715553111.272660] [bc11304:1123611:0]          mpool.c:42   UCX  WARN  object 0xb90c340 was not returned to mpool ucp_requests
[1715553111.272666] [bc11304:1123611:0]          mpool.c:42   UCX  WARN  object 0xb90c500 was not returned to mpool ucp_requests
[1715553111.272671] [bc11304:1123611:0]          mpool.c:42   UCX  WARN  object 0xb90c6c0 was not returned to mpool ucp_requests
[1715553111.272676] [bc11304:1123611:0]          mpool.c:42   UCX  WARN  object 0xb90c880 was not returned to mpool ucp_requests
[1715553111.272681] [bc11304:1123611:0]          mpool.c:42   UCX  WARN  object 0xb90ca40 was not returned to mpool ucp_requests
[1715553111.272685] [bc11304:1123611:0]          mpool.c:42   UCX  WARN  object 0xb90cc00 was not returned to mpool ucp_requests
[1715553111.272690] [bc11304:1123611:0]          mpool.c:42   UCX  WARN  object 0xb90cdc0 was not returned to mpool ucp_requests
[1715553111.272694] [bc11304:1123611:0]          mpool.c:42   UCX  WARN  object 0xb90cf80 was not returned to mpool ucp_requests
[1715553111.272699] [bc11304:1123611:0]          mpool.c:42   UCX  WARN  object 0xb90d140 was not returned to mpool ucp_requests
[1715553111.272703] [bc11304:1123611:0]          mpool.c:42   UCX  WARN  object 0xb90d300 was not returned to mpool ucp_requests
[1715553111.272708] [bc11304:1123611:0]          mpool.c:42   UCX  WARN  object 0xb90d4c0 was not returned to mpool ucp_requests
[1715553111.272713] [bc11304:1123611:0]          mpool.c:42   UCX  WARN  object 0xb90d680 was not returned to mpool ucp_requests
[1715553111.272717] [bc11304:1123611:0]          mpool.c:42   UCX  WARN  object 0xb90d840 was not returned to mpool ucp_requests
[1715553111.272724] [bc11304:1123611:0]          mpool.c:42   UCX  WARN  object 0xb90da00 was not returned to mpool ucp_requests
[1715553111.272796] [bc11304:1123616:0]          mpool.c:42   UCX  WARN  object 0xaefa1c0 was not returned to mpool ucp_requests
[1715553111.272815] [bc11304:1123616:0]          mpool.c:42   UCX  WARN  object 0xaefa380 was not returned to mpool ucp_requests
[1715553111.272821] [bc11304:1123616:0]          mpool.c:42   UCX  WARN  object 0xaefa540 was not returned to mpool ucp_requests
[1715553111.272826] [bc11304:1123616:0]          mpool.c:42   UCX  WARN  object 0xaefa700 was not returned to mpool ucp_requests
[1715553111.272830] [bc11304:1123616:0]          mpool.c:42   UCX  WARN  object 0xaefa8c0 was not returned to mpool ucp_requests
[1715553111.272835] [bc11304:1123616:0]          mpool.c:42   UCX  WARN  object 0xaefaa80 was not returned to mpool ucp_requests
[1715553111.272839] [bc11304:1123616:0]          mpool.c:42   UCX  WARN  object 0xaefac40 was not returned to mpool ucp_requests
[1715553111.272844] [bc11304:1123616:0]          mpool.c:42   UCX  WARN  object 0xaefae00 was not returned to mpool ucp_requests
[1715553111.272849] [bc11304:1123616:0]          mpool.c:42   UCX  WARN  object 0xaefafc0 was not returned to mpool ucp_requests
[1715553111.272853] [bc11304:1123616:0]          mpool.c:42   UCX  WARN  object 0xaefb180 was not returned to mpool ucp_requests
[1715553111.272858] [bc11304:1123616:0]          mpool.c:42   UCX  WARN  object 0xaefb340 was not returned to mpool ucp_requests
[1715553111.272862] [bc11304:1123616:0]          mpool.c:42   UCX  WARN  object 0xaefb500 was not returned to mpool ucp_requests
[1715553111.272867] [bc11304:1123616:0]          mpool.c:42   UCX  WARN  object 0xaefb6c0 was not returned to mpool ucp_requests
[1715553111.272872] [bc11304:1123616:0]          mpool.c:42   UCX  WARN  object 0xaefb880 was not returned to mpool ucp_requests
[1715553111.272876] [bc11304:1123616:0]          mpool.c:42   UCX  WARN  object 0xaefba40 was not returned to mpool ucp_requests
[1715553111.272821] [bc11304:1123603:0]          mpool.c:42   UCX  WARN  object 0xbbd1640 was not returned to mpool ucp_requests
[1715553111.272840] [bc11304:1123603:0]          mpool.c:42   UCX  WARN  object 0xbbd1800 was not returned to mpool ucp_requests
[1715553111.272846] [bc11304:1123603:0]          mpool.c:42   UCX  WARN  object 0xbbd19c0 was not returned to mpool ucp_requests
[1715553111.272850] [bc11304:1123603:0]          mpool.c:42   UCX  WARN  object 0xbbd1b80 was not returned to mpool ucp_requests
[1715553111.272855] [bc11304:1123603:0]          mpool.c:42   UCX  WARN  object 0xbbd1d40 was not returned to mpool ucp_requests
[1715553111.272859] [bc11304:1123603:0]          mpool.c:42   UCX  WARN  object 0xbbd1f00 was not returned to mpool ucp_requests
[1715553111.272866] [bc11304:1123603:0]          mpool.c:42   UCX  WARN  object 0xbbd20c0 was not returned to mpool ucp_requests
[1715553111.272870] [bc11304:1123603:0]          mpool.c:42   UCX  WARN  object 0xbbd2280 was not returned to mpool ucp_requests
[1715553111.272875] [bc11304:1123603:0]          mpool.c:42   UCX  WARN  object 0xbbd2440 was not returned to mpool ucp_requests
[1715553111.272880] [bc11304:1123603:0]          mpool.c:42   UCX  WARN  object 0xbbd2600 was not returned to mpool ucp_requests
[1715553111.272884] [bc11304:1123603:0]          mpool.c:42   UCX  WARN  object 0xbbd27c0 was not returned to mpool ucp_requests
[1715553111.272890] [bc11304:1123603:0]          mpool.c:42   UCX  WARN  object 0xbbd2980 was not returned to mpool ucp_requests
[1715553111.272894] [bc11304:1123603:0]          mpool.c:42   UCX  WARN  object 0xbbd2b40 was not returned to mpool ucp_requests
[1715553111.272899] [bc11304:1123603:0]          mpool.c:42   UCX  WARN  object 0xbbd2d00 was not returned to mpool ucp_requests
[1715553111.272904] [bc11304:1123603:0]          mpool.c:42   UCX  WARN  object 0xbbd2ec0 was not returned to mpool ucp_requests
[1715553111.272908] [bc11304:1123603:0]          mpool.c:42   UCX  WARN  object 0xbbd3080 was not returned to mpool ucp_requests
[1715553111.273276] [bc11304:1123602:0]          mpool.c:42   UCX  WARN  object 0xaba6e40 was not returned to mpool ucp_requests
[1715553111.273294] [bc11304:1123602:0]          mpool.c:42   UCX  WARN  object 0xaba7000 was not returned to mpool ucp_requests
[1715553111.273302] [bc11304:1123602:0]          mpool.c:42   UCX  WARN  object 0xaba71c0 was not returned to mpool ucp_requests
[1715553111.273313] [bc11304:1123602:0]          mpool.c:42   UCX  WARN  object 0xaba7380 was not returned to mpool ucp_requests
[1715553111.273318] [bc11304:1123602:0]          mpool.c:42   UCX  WARN  object 0xaba7540 was not returned to mpool ucp_requests
[1715553111.273322] [bc11304:1123602:0]          mpool.c:42   UCX  WARN  object 0xaba7700 was not returned to mpool ucp_requests
[1715553111.273327] [bc11304:1123602:0]          mpool.c:42   UCX  WARN  object 0xaba78c0 was not returned to mpool ucp_requests
[1715553111.273331] [bc11304:1123602:0]          mpool.c:42   UCX  WARN  object 0xaba7a80 was not returned to mpool ucp_requests
[1715553111.273336] [bc11304:1123602:0]          mpool.c:42   UCX  WARN  object 0xaba7c40 was not returned to mpool ucp_requests
[1715553111.273340] [bc11304:1123602:0]          mpool.c:42   UCX  WARN  object 0xaba7e00 was not returned to mpool ucp_requests
[1715553111.273345] [bc11304:1123602:0]          mpool.c:42   UCX  WARN  object 0xaba7fc0 was not returned to mpool ucp_requests
[1715553111.273349] [bc11304:1123602:0]          mpool.c:42   UCX  WARN  object 0xaba8180 was not returned to mpool ucp_requests
[1715553111.273354] [bc11304:1123602:0]          mpool.c:42   UCX  WARN  object 0xaba8340 was not returned to mpool ucp_requests
[1715553111.273358] [bc11304:1123602:0]          mpool.c:42   UCX  WARN  object 0xaba8500 was not returned to mpool ucp_requests
[1715553111.273363] [bc11304:1123602:0]          mpool.c:42   UCX  WARN  object 0xaba86c0 was not returned to mpool ucp_requests
[1715553111.273368] [bc11304:1123602:0]          mpool.c:42   UCX  WARN  object 0xaba8880 was not returned to mpool ucp_requests
[1715553111.273511] [bc11304:1123621:0]          mpool.c:42   UCX  WARN  object 0xbbda500 was not returned to mpool ucp_requests
[1715553111.273530] [bc11304:1123621:0]          mpool.c:42   UCX  WARN  object 0xbbda6c0 was not returned to mpool ucp_requests
[1715553111.273538] [bc11304:1123621:0]          mpool.c:42   UCX  WARN  object 0xbbda880 was not returned to mpool ucp_requests
[1715553111.273543] [bc11304:1123621:0]          mpool.c:42   UCX  WARN  object 0xbbdaa40 was not returned to mpool ucp_requests
[1715553111.273548] [bc11304:1123621:0]          mpool.c:42   UCX  WARN  object 0xbbdac00 was not returned to mpool ucp_requests
[1715553111.273553] [bc11304:1123621:0]          mpool.c:42   UCX  WARN  object 0xbbdadc0 was not returned to mpool ucp_requests
[1715553111.273557] [bc11304:1123621:0]          mpool.c:42   UCX  WARN  object 0xbbdaf80 was not returned to mpool ucp_requests
[1715553111.273562] [bc11304:1123621:0]          mpool.c:42   UCX  WARN  object 0xbbdb140 was not returned to mpool ucp_requests
[1715553111.273566] [bc11304:1123621:0]          mpool.c:42   UCX  WARN  object 0xbbdb300 was not returned to mpool ucp_requests
[1715553111.273571] [bc11304:1123621:0]          mpool.c:42   UCX  WARN  object 0xbbdb4c0 was not returned to mpool ucp_requests
[1715553111.273576] [bc11304:1123621:0]          mpool.c:42   UCX  WARN  object 0xbbdb680 was not returned to mpool ucp_requests
[1715553111.273580] [bc11304:1123621:0]          mpool.c:42   UCX  WARN  object 0xbbdb840 was not returned to mpool ucp_requests
[1715553111.273585] [bc11304:1123621:0]          mpool.c:42   UCX  WARN  object 0xbbdba00 was not returned to mpool ucp_requests
[1715553111.273590] [bc11304:1123621:0]          mpool.c:42   UCX  WARN  object 0xbbdbbc0 was not returned to mpool ucp_requests
[1715553111.273594] [bc11304:1123621:0]          mpool.c:42   UCX  WARN  object 0xbbdbd80 was not returned to mpool ucp_requests
[1715553111.273664] [bc11304:1123604:0]          mpool.c:42   UCX  WARN  object 0xa938300 was not returned to mpool ucp_requests
[1715553111.273689] [bc11304:1123604:0]          mpool.c:42   UCX  WARN  object 0xa9384c0 was not returned to mpool ucp_requests
[1715553111.273695] [bc11304:1123604:0]          mpool.c:42   UCX  WARN  object 0xa938680 was not returned to mpool ucp_requests
[1715553111.273703] [bc11304:1123604:0]          mpool.c:42   UCX  WARN  object 0xa938840 was not returned to mpool ucp_requests
[1715553111.273708] [bc11304:1123604:0]          mpool.c:42   UCX  WARN  object 0xa938a00 was not returned to mpool ucp_requests
[1715553111.273712] [bc11304:1123604:0]          mpool.c:42   UCX  WARN  object 0xa938bc0 was not returned to mpool ucp_requests
[1715553111.273721] [bc11304:1123604:0]          mpool.c:42   UCX  WARN  object 0xa938d80 was not returned to mpool ucp_requests
[1715553111.273728] [bc11304:1123604:0]          mpool.c:42   UCX  WARN  object 0xa938f40 was not returned to mpool ucp_requests
[1715553111.273736] [bc11304:1123604:0]          mpool.c:42   UCX  WARN  object 0xa939100 was not returned to mpool ucp_requests
[1715553111.273744] [bc11304:1123604:0]          mpool.c:42   UCX  WARN  object 0xa9392c0 was not returned to mpool ucp_requests
[1715553111.273748] [bc11304:1123604:0]          mpool.c:42   UCX  WARN  object 0xa939480 was not returned to mpool ucp_requests
[1715553111.273753] [bc11304:1123604:0]          mpool.c:42   UCX  WARN  object 0xa939640 was not returned to mpool ucp_requests
[1715553111.273757] [bc11304:1123604:0]          mpool.c:42   UCX  WARN  object 0xa939800 was not returned to mpool ucp_requests
[1715553111.273768] [bc11304:1123604:0]          mpool.c:42   UCX  WARN  object 0xa9399c0 was not returned to mpool ucp_requests
[1715553111.273773] [bc11304:1123604:0]          mpool.c:42   UCX  WARN  object 0xa939b80 was not returned to mpool ucp_requests
[1715553111.273778] [bc11304:1123604:0]          mpool.c:42   UCX  WARN  object 0xa939d40 was not returned to mpool ucp_requests
[1715553111.273783] [bc11304:1123601:0]          mpool.c:42   UCX  WARN  object 0xb7f91c0 was not returned to mpool ucp_requests
[1715553111.273803] [bc11304:1123601:0]          mpool.c:42   UCX  WARN  object 0xb7f9380 was not returned to mpool ucp_requests
[1715553111.273808] [bc11304:1123601:0]          mpool.c:42   UCX  WARN  object 0xb7f9540 was not returned to mpool ucp_requests
[1715553111.273813] [bc11304:1123601:0]          mpool.c:42   UCX  WARN  object 0xb7f9700 was not returned to mpool ucp_requests
[1715553111.273818] [bc11304:1123601:0]          mpool.c:42   UCX  WARN  object 0xb7f98c0 was not returned to mpool ucp_requests
[1715553111.273823] [bc11304:1123601:0]          mpool.c:42   UCX  WARN  object 0xb7f9a80 was not returned to mpool ucp_requests
[1715553111.273828] [bc11304:1123601:0]          mpool.c:42   UCX  WARN  object 0xb7f9c40 was not returned to mpool ucp_requests
[1715553111.273832] [bc11304:1123601:0]          mpool.c:42   UCX  WARN  object 0xb7f9e00 was not returned to mpool ucp_requests
[1715553111.273837] [bc11304:1123601:0]          mpool.c:42   UCX  WARN  object 0xb7f9fc0 was not returned to mpool ucp_requests
[1715553111.273842] [bc11304:1123601:0]          mpool.c:42   UCX  WARN  object 0xb7fa180 was not returned to mpool ucp_requests
[1715553111.273847] [bc11304:1123601:0]          mpool.c:42   UCX  WARN  object 0xb7fa340 was not returned to mpool ucp_requests
[1715553111.273851] [bc11304:1123601:0]          mpool.c:42   UCX  WARN  object 0xb7fa500 was not returned to mpool ucp_requests
[1715553111.273856] [bc11304:1123601:0]          mpool.c:42   UCX  WARN  object 0xb7fa6c0 was not returned to mpool ucp_requests
[1715553111.274014] [bc11304:1123609:0]          mpool.c:42   UCX  WARN  object 0xae79580 was not returned to mpool ucp_requests
[1715553111.274035] [bc11304:1123609:0]          mpool.c:42   UCX  WARN  object 0xae79740 was not returned to mpool ucp_requests
[1715553111.274041] [bc11304:1123609:0]          mpool.c:42   UCX  WARN  object 0xae79900 was not returned to mpool ucp_requests
[1715553111.274046] [bc11304:1123609:0]          mpool.c:42   UCX  WARN  object 0xae79ac0 was not returned to mpool ucp_requests
[1715553111.274051] [bc11304:1123609:0]          mpool.c:42   UCX  WARN  object 0xae79c80 was not returned to mpool ucp_requests
[1715553111.274055] [bc11304:1123609:0]          mpool.c:42   UCX  WARN  object 0xae79e40 was not returned to mpool ucp_requests
[1715553111.274060] [bc11304:1123609:0]          mpool.c:42   UCX  WARN  object 0xae7a000 was not returned to mpool ucp_requests
[1715553111.274066] [bc11304:1123609:0]          mpool.c:42   UCX  WARN  object 0xae7a1c0 was not returned to mpool ucp_requests
[1715553111.274072] [bc11304:1123609:0]          mpool.c:42   UCX  WARN  object 0xae7a380 was not returned to mpool ucp_requests
[1715553111.274077] [bc11304:1123609:0]          mpool.c:42   UCX  WARN  object 0xae7a540 was not returned to mpool ucp_requests
[1715553111.274081] [bc11304:1123609:0]          mpool.c:42   UCX  WARN  object 0xae7a700 was not returned to mpool ucp_requests
[1715553111.274086] [bc11304:1123609:0]          mpool.c:42   UCX  WARN  object 0xae7a8c0 was not returned to mpool ucp_requests
[1715553111.274091] [bc11304:1123609:0]          mpool.c:42   UCX  WARN  object 0xae7aa80 was not returned to mpool ucp_requests
[1715553111.274095] [bc11304:1123609:0]          mpool.c:42   UCX  WARN  object 0xae7ac40 was not returned to mpool ucp_requests
[1715553111.274100] [bc11304:1123609:0]          mpool.c:42   UCX  WARN  object 0xae7ae00 was not returned to mpool ucp_requests
[1715553111.274105] [bc11304:1123609:0]          mpool.c:42   UCX  WARN  object 0xae7afc0 was not returned to mpool ucp_requests
[1715553111.274110] [bc11304:1123609:0]          mpool.c:42   UCX  WARN  object 0xae7b180 was not returned to mpool ucp_requests
[1715553111.274839] [bc11304:1123614:0]          mpool.c:42   UCX  WARN  object 0xb222500 was not returned to mpool ucp_requests
[1715553111.274861] [bc11304:1123614:0]          mpool.c:42   UCX  WARN  object 0xb2226c0 was not returned to mpool ucp_requests
[1715553111.274866] [bc11304:1123614:0]          mpool.c:42   UCX  WARN  object 0xb222880 was not returned to mpool ucp_requests
[1715553111.274870] [bc11304:1123614:0]          mpool.c:42   UCX  WARN  object 0xb222a40 was not returned to mpool ucp_requests
[1715553111.274874] [bc11304:1123614:0]          mpool.c:42   UCX  WARN  object 0xb222c00 was not returned to mpool ucp_requests
[1715553111.274878] [bc11304:1123614:0]          mpool.c:42   UCX  WARN  object 0xb222dc0 was not returned to mpool ucp_requests
[1715553111.274882] [bc11304:1123614:0]          mpool.c:42   UCX  WARN  object 0xb222f80 was not returned to mpool ucp_requests
[1715553111.274886] [bc11304:1123614:0]          mpool.c:42   UCX  WARN  object 0xb223140 was not returned to mpool ucp_requests
[1715553111.274890] [bc11304:1123614:0]          mpool.c:42   UCX  WARN  object 0xb223300 was not returned to mpool ucp_requests
[1715553111.274894] [bc11304:1123614:0]          mpool.c:42   UCX  WARN  object 0xb2234c0 was not returned to mpool ucp_requests
[1715553111.274898] [bc11304:1123614:0]          mpool.c:42   UCX  WARN  object 0xb223680 was not returned to mpool ucp_requests
[1715553111.274902] [bc11304:1123614:0]          mpool.c:42   UCX  WARN  object 0xb223840 was not returned to mpool ucp_requests
[1715553111.274906] [bc11304:1123614:0]          mpool.c:42   UCX  WARN  object 0xb223a00 was not returned to mpool ucp_requests
[1715553111.274910] [bc11304:1123614:0]          mpool.c:42   UCX  WARN  object 0xb223bc0 was not returned to mpool ucp_requests
[1715553111.274914] [bc11304:1123614:0]          mpool.c:42   UCX  WARN  object 0xb223d80 was not returned to mpool ucp_requests
[1715553111.275579] [bc11304:1123600:0]          mpool.c:42   UCX  WARN  object 0xba5b280 was not returned to mpool ucp_requests
[1715553111.275600] [bc11304:1123600:0]          mpool.c:42   UCX  WARN  object 0xba5b440 was not returned to mpool ucp_requests
[1715553111.275605] [bc11304:1123600:0]          mpool.c:42   UCX  WARN  object 0xba5b600 was not returned to mpool ucp_requests
[1715553111.275610] [bc11304:1123600:0]          mpool.c:42   UCX  WARN  object 0xba5b7c0 was not returned to mpool ucp_requests
[1715553111.275615] [bc11304:1123600:0]          mpool.c:42   UCX  WARN  object 0xba5b980 was not returned to mpool ucp_requests
[1715553111.275619] [bc11304:1123600:0]          mpool.c:42   UCX  WARN  object 0xba5bb40 was not returned to mpool ucp_requests
[1715553111.275624] [bc11304:1123600:0]          mpool.c:42   UCX  WARN  object 0xba5bd00 was not returned to mpool ucp_requests
[1715553111.275632] [bc11304:1123600:0]          mpool.c:42   UCX  WARN  object 0xba5bec0 was not returned to mpool ucp_requests
[1715553111.275640] [bc11304:1123600:0]          mpool.c:42   UCX  WARN  object 0xba5c080 was not returned to mpool ucp_requests
[1715553111.275644] [bc11304:1123600:0]          mpool.c:42   UCX  WARN  object 0xba5c240 was not returned to mpool ucp_requests
[1715553111.275649] [bc11304:1123600:0]          mpool.c:42   UCX  WARN  object 0xba5c400 was not returned to mpool ucp_requests
[1715553111.275653] [bc11304:1123600:0]          mpool.c:42   UCX  WARN  object 0xba5c5c0 was not returned to mpool ucp_requests
[1715553111.275658] [bc11304:1123600:0]          mpool.c:42   UCX  WARN  object 0xba5c780 was not returned to mpool ucp_requests
[1715553111.275327] [bc11304:1123606:0]          mpool.c:42   UCX  WARN  object 0xbb75a00 was not returned to mpool ucp_requests
[1715553111.275346] [bc11304:1123606:0]          mpool.c:42   UCX  WARN  object 0xbb75bc0 was not returned to mpool ucp_requests
[1715553111.275352] [bc11304:1123606:0]          mpool.c:42   UCX  WARN  object 0xbb75d80 was not returned to mpool ucp_requests
[1715553111.275356] [bc11304:1123606:0]          mpool.c:42   UCX  WARN  object 0xbb75f40 was not returned to mpool ucp_requests
[1715553111.275363] [bc11304:1123606:0]          mpool.c:42   UCX  WARN  object 0xbb76100 was not returned to mpool ucp_requests
[1715553111.275367] [bc11304:1123606:0]          mpool.c:42   UCX  WARN  object 0xbb762c0 was not returned to mpool ucp_requests
[1715553111.275372] [bc11304:1123606:0]          mpool.c:42   UCX  WARN  object 0xbb76480 was not returned to mpool ucp_requests
[1715553111.275376] [bc11304:1123606:0]          mpool.c:42   UCX  WARN  object 0xbb76640 was not returned to mpool ucp_requests
[1715553111.275381] [bc11304:1123606:0]          mpool.c:42   UCX  WARN  object 0xbb76800 was not returned to mpool ucp_requests
[1715553111.275385] [bc11304:1123606:0]          mpool.c:42   UCX  WARN  object 0xbb769c0 was not returned to mpool ucp_requests
[1715553111.275390] [bc11304:1123606:0]          mpool.c:42   UCX  WARN  object 0xbb76b80 was not returned to mpool ucp_requests
[1715553111.275394] [bc11304:1123606:0]          mpool.c:42   UCX  WARN  object 0xbb76d40 was not returned to mpool ucp_requests
[1715553111.275399] [bc11304:1123606:0]          mpool.c:42   UCX  WARN  object 0xbb76f00 was not returned to mpool ucp_requests
[1715553111.275403] [bc11304:1123606:0]          mpool.c:42   UCX  WARN  object 0xbb770c0 was not returned to mpool ucp_requests
[1715553111.275408] [bc11304:1123606:0]          mpool.c:42   UCX  WARN  object 0xbb77280 was not returned to mpool ucp_requests
[1715553111.275412] [bc11304:1123606:0]          mpool.c:42   UCX  WARN  object 0xbb77440 was not returned to mpool ucp_requests
[1715553111.275417] [bc11304:1123606:0]          mpool.c:42   UCX  WARN  object 0xbb77600 was not returned to mpool ucp_requests
[1715553111.276510] [bc11304:1123608:0]          mpool.c:42   UCX  WARN  object 0xab98140 was not returned to mpool ucp_requests
[1715553111.276530] [bc11304:1123608:0]          mpool.c:42   UCX  WARN  object 0xab98300 was not returned to mpool ucp_requests
[1715553111.276536] [bc11304:1123608:0]          mpool.c:42   UCX  WARN  object 0xab984c0 was not returned to mpool ucp_requests
[1715553111.276541] [bc11304:1123608:0]          mpool.c:42   UCX  WARN  object 0xab98680 was not returned to mpool ucp_requests
[1715553111.276547] [bc11304:1123608:0]          mpool.c:42   UCX  WARN  object 0xab98840 was not returned to mpool ucp_requests
[1715553111.276551] [bc11304:1123608:0]          mpool.c:42   UCX  WARN  object 0xab98a00 was not returned to mpool ucp_requests
[1715553111.276556] [bc11304:1123608:0]          mpool.c:42   UCX  WARN  object 0xab98bc0 was not returned to mpool ucp_requests
[1715553111.276561] [bc11304:1123608:0]          mpool.c:42   UCX  WARN  object 0xab98d80 was not returned to mpool ucp_requests
[1715553111.276566] [bc11304:1123608:0]          mpool.c:42   UCX  WARN  object 0xab98f40 was not returned to mpool ucp_requests
[1715553111.276570] [bc11304:1123608:0]          mpool.c:42   UCX  WARN  object 0xab99100 was not returned to mpool ucp_requests
[1715553111.276575] [bc11304:1123608:0]          mpool.c:42   UCX  WARN  object 0xab992c0 was not returned to mpool ucp_requests
[1715553111.276580] [bc11304:1123608:0]          mpool.c:42   UCX  WARN  object 0xab99480 was not returned to mpool ucp_requests
[1715553111.276584] [bc11304:1123608:0]          mpool.c:42   UCX  WARN  object 0xab99640 was not returned to mpool ucp_requests
[1715553111.276589] [bc11304:1123608:0]          mpool.c:42   UCX  WARN  object 0xab99800 was not returned to mpool ucp_requests
[1715553111.276593] [bc11304:1123608:0]          mpool.c:42   UCX  WARN  object 0xab999c0 was not returned to mpool ucp_requests
[1715553111.276598] [bc11304:1123608:0]          mpool.c:42   UCX  WARN  object 0xab99b80 was not returned to mpool ucp_requests
[1715553111.276603] [bc11304:1123608:0]          mpool.c:42   UCX  WARN  object 0xab99d40 was not returned to mpool ucp_requests


           ************************************************************
           *        Program running with 16 parallel MPI-processes    *
           *              working on a common directory               *
           ************************************************************
-------------------------------------------------------------------------------
                                 ORCA SCF
-------------------------------------------------------------------------------

------------
SCF SETTINGS
------------
Hamiltonian:
 Ab initio Hamiltonian  Method          .... Hartree-Fock(GTOs)


General Settings:
 Integral files         IntName         .... diethyl_sulfone
 Hartree-Fock type      HFTyp           .... RHF
 Total Charge           Charge          ....    0
 Multiplicity           Mult            ....    1
 Number of Electrons    NEL             ....   66
 Basis Dimension        Dim             .... 1024
 Nuclear Repulsion      ENuc            ....    435.7997839938 Eh

Convergence Acceleration:
 DIIS                   CNVDIIS         .... on
   Start iteration      DIISMaxIt       ....    12
   Startup error        DIISStart       ....  0.200000
   # of expansion vecs  DIISMaxEq       ....     5
   Bias factor          DIISBfac        ....   1.050
   Max. coefficient     DIISMaxC        ....  10.000
 Trust-Rad. Augm. Hess. CNVTRAH         .... auto
   Auto Start mean grad. ratio tolernc. ....  1.125000
   Auto Start start iteration           ....    20
   Auto Start num. interpolation iter.  ....    10
   Max. Number of Micro iterations      ....    16
   Max. Number of Macro iterations      .... Maxiter - #DIIS iter
   Number of Davidson start vectors     ....     2
   Converg. threshold I  (grad. norm)   ....   1.000e-05
   Converg. threshold II (energy diff.) ....   1.000e-08
   Grad. Scal. Fac. for Micro threshold ....   0.100
   Minimum threshold for Micro iter.    ....   0.010
   NR start threshold (gradient norm)   ....   0.001
   Initial trust radius                 ....   0.400
   Minimum AH scaling param. (alpha)    ....   1.000
   Maximum AH scaling param. (alpha)    .... 1000.000
   Orbital update algorithm             .... Taylor
   White noise on init. David. guess    .... on
   Maximum white noise                  ....   0.010
   Quad. conv. algorithm                .... NR
 SOSCF                  CNVSOSCF        .... on
   Start iteration      SOSCFMaxIt      ....   150
   Startup grad/error   SOSCFStart      ....  0.003300
 Level Shifting         CNVShift        .... on
   Level shift para.    LevelShift      ....    0.2500
   Turn off err/grad.   ShiftErr        ....    0.0010
 Zerner damping         CNVZerner       .... off
 Static damping         CNVDamp         .... on
   Fraction old density DampFac         ....    0.7000
   Max. Damping (<1)    DampMax         ....    0.9800
   Min. Damping (>=0)   DampMin         ....    0.0000
   Turn off err/grad.   DampErr         ....    0.1000
 Fernandez-Rico         CNVRico         .... off

SCF Procedure:
 Maximum # iterations   MaxIter         ....   125
 SCF integral mode      SCFMode         .... Direct
   Integral package                     .... SHARK and LIBINT hybrid scheme
 Reset frequency        DirectResetFreq ....    20
 Integral Threshold     Thresh          ....  2.500e-11 Eh
 Primitive CutOff       TCut            ....  2.500e-12 Eh

Convergence Tolerance:
 Convergence Check Mode ConvCheckMode   .... Total+1el-Energy
 Convergence forced     ConvForced      .... 1
 Energy Change          TolE            ....  1.000e-08 Eh
 1-El. energy change                    ....  1.000e-05 Eh
 Orbital Gradient       TolG            ....  1.000e-05
 Orbital Rotation angle TolX            ....  1.000e-05
 DIIS Error             TolErr          ....  5.000e-07


Diagonalization of the overlap matrix:
Smallest eigenvalue                        ... 1.342e-06
Time for diagonalization                   ...    0.162 sec
Threshold for overlap eigenvalues          ... 1.000e-08
Number of eigenvalues below threshold      ... 0
Time for construction of square roots      ...    0.771 sec
Total time needed                          ...    0.941 sec

Time for model grid setup =    0.992 sec

------------------------------
INITIAL GUESS: MODEL POTENTIAL
------------------------------
Loading Hartree-Fock densities                     ... done
Calculating cut-offs                               ... done
Initializing the effective Hamiltonian             ... done
Setting up the integral package (SHARK)            ... done
Starting the Coulomb interaction                   ... done (   0.6 sec)
Reading the grid                                   ... done
Mapping shells                                     ... done
Starting the XC term evaluation                    ... done (   0.2 sec)
Transforming the Hamiltonian                       ... done (   0.1 sec)
Diagonalizing the Hamiltonian                      ... done (   0.2 sec)
Back transforming the eigenvectors                 ... done (   0.0 sec)
Now organizing SCF variables                       ... done
                      ------------------
                      INITIAL GUESS DONE (   2.2 sec)
                      ------------------
--------------
SCF ITERATIONS
--------------
ITER       Energy         Delta-E        Max-DP      RMS-DP      [F,P]     Damp
               ***  Starting incremental Fock matrix formation  ***
  0   -704.2152661132   0.000000000000 0.12108325  0.00053258  0.3710226 0.7000
  1   -704.3830986121  -0.167832498864 0.08047536  0.00039782  0.2191354 0.7000
                               ***Turning on DIIS***
  2   -704.4785447166  -0.095446104501 0.05233150  0.00027473  0.1234228 0.7000
  3   -705.0947995289  -0.616254812282 0.11226095  0.00066477  0.0714986 0.0000
  4   -704.6184129521   0.476386576777 0.00696552  0.00005201  0.0081687 0.0000
                      *** Initiating the SOSCF procedure ***
                           *** Shutting down DIIS ***
                      *** Re-Reading the Fockian *** 
                      *** Removing any level shift *** 
ITER      Energy       Delta-E        Grad      Rot      Max-DP    RMS-DP
  5   -704.66278916  -0.0443762090  0.001309  0.001309  0.003464  0.000027
               *** Restarting incremental Fock matrix formation ***
  6   -704.67372456  -0.0109353992  0.000540  0.000692  0.002365  0.000013
  7   -704.67376263  -0.0000380660  0.000296  0.000592  0.000704  0.000007
  8   -704.67377444  -0.0000118176  0.000050  0.000051  0.000256  0.000001
  9   -704.67377477  -0.0000003223  0.000026  0.000055  0.000192  0.000001
 10   -704.67377483  -0.0000000670  0.000006  0.000010  0.000051  0.000000
                  ***Gradient check signals convergence***
              ***Rediagonalizing the Fockian in SOSCF/NRSCF***

               *****************************************************
               *                     SUCCESS                       *
               *           SCF CONVERGED AFTER  11 CYCLES          *
               *****************************************************


----------------
TOTAL SCF ENERGY
----------------

Total Energy       :         -704.67377483 Eh          -19175.14826 eV

Components:
Nuclear Repulsion  :          435.79978399 Eh           11858.71501 eV
Electronic Energy  :        -1140.47355882 Eh          -31033.86327 eV
One Electron Energy:        -1833.26433570 Eh          -49885.65871 eV
Two Electron Energy:          692.79077687 Eh           18851.79545 eV

Virial components:
Potential Energy   :        -1408.70076850 Eh          -38332.69671 eV
Kinetic Energy     :          704.02699368 Eh           19157.54845 eV
Virial Ratio       :            2.00091869


---------------
SCF CONVERGENCE
---------------

  Last Energy change         ...    4.9715e-09  Tolerance :   1.0000e-08
  Last MAX-Density change    ...    8.7418e-05  Tolerance :   1.0000e-07
  Last RMS-Density change    ...    9.9871e-07  Tolerance :   5.0000e-09
  Last Orbital Gradient      ...    1.2865e-06  Tolerance :   1.0000e-05
  Last Orbital Rotation      ...    2.4603e-06  Tolerance :   1.0000e-05

             **** THE GBW FILE WAS UPDATED (diethyl_sulfone.gbw) ****
             **** DENSITY diethyl_sulfone.scfp WAS UPDATED ****
             **** ENERGY FILE WAS UPDATED (diethyl_sulfone.en.tmp) ****
             **** THE GBW FILE WAS UPDATED (diethyl_sulfone.gbw) ****
             **** DENSITY diethyl_sulfone.scfp WAS UPDATED ****
----------------
ORBITAL ENERGIES
----------------

  NO   OCC          E(Eh)            E(eV) 
   0   2.0000     -92.163137     -2507.8865 
   1   2.0000     -20.535761      -558.8065 
   2   2.0000     -20.533363      -558.7412 
   3   2.0000     -11.279011      -306.9175 
   4   2.0000     -11.278997      -306.9171 
   5   2.0000     -11.243580      -305.9534 
   6   2.0000     -11.243578      -305.9533 
   7   2.0000      -9.133568      -248.5370 
   8   2.0000      -6.818691      -185.5460 
   9   2.0000      -6.818128      -185.5307 
  10   2.0000      -6.817748      -185.5203 
  11   2.0000      -1.432230       -38.9729 
  12   2.0000      -1.322438       -35.9854 
  13   2.0000      -1.092409       -29.7259 
  14   2.0000      -1.064803       -28.9748 
  15   2.0000      -0.940095       -25.5813 
  16   2.0000      -0.891668       -24.2635 
  17   2.0000      -0.790591       -21.5131 
  18   2.0000      -0.683998       -18.6125 
  19   2.0000      -0.680520       -18.5179 
  20   2.0000      -0.652234       -17.7482 
  21   2.0000      -0.628239       -17.0952 
  22   2.0000      -0.619279       -16.8514 
  23   2.0000      -0.589574       -16.0431 
  24   2.0000      -0.578223       -15.7342 
  25   2.0000      -0.556996       -15.1566 
  26   2.0000      -0.546612       -14.8741 
  27   2.0000      -0.537063       -14.6142 
  28   2.0000      -0.517896       -14.0927 
  29   2.0000      -0.485534       -13.2121 
  30   2.0000      -0.481683       -13.1073 
  31   2.0000      -0.461230       -12.5507 
  32   2.0000      -0.422493       -11.4966 
  33   0.0000       0.018649         0.5075 
  34   0.0000       0.025846         0.7033 
  35   0.0000       0.031690         0.8623 
  36   0.0000       0.037821         1.0292 
  37   0.0000       0.045154         1.2287 
  38   0.0000       0.048553         1.3212 
  39   0.0000       0.048667         1.3243 
  40   0.0000       0.057640         1.5685 
  41   0.0000       0.067424         1.8347 
  42   0.0000       0.073635         2.0037 
  43   0.0000       0.078593         2.1386 
  44   0.0000       0.085162         2.3174 
  45   0.0000       0.101988         2.7752 
  46   0.0000       0.102395         2.7863 
  47   0.0000       0.103298         2.8109 
  48   0.0000       0.103908         2.8275 
  49   0.0000       0.109141         2.9699 
  50   0.0000       0.116154         3.1607 
  51   0.0000       0.120005         3.2655 
  52   0.0000       0.121991         3.3196 
  53   0.0000       0.126496         3.4421 
  54   0.0000       0.128210         3.4888 
  55   0.0000       0.130919         3.5625 
  56   0.0000       0.135123         3.6769 
  57   0.0000       0.142230         3.8703 
  58   0.0000       0.153805         4.1852 
  59   0.0000       0.154372         4.2007 
  60   0.0000       0.169148         4.6027 
  61   0.0000       0.174644         4.7523 
  62   0.0000       0.185148         5.0381 
  63   0.0000       0.191283         5.2051 
  64   0.0000       0.193241         5.2584 
  65   0.0000       0.197953         5.3866 
  66   0.0000       0.206781         5.6268 
  67   0.0000       0.209565         5.7026 
  68   0.0000       0.222558         6.0561 
  69   0.0000       0.224186         6.1004 
  70   0.0000       0.228887         6.2283 
  71   0.0000       0.229917         6.2564 
  72   0.0000       0.241495         6.5714 
  73   0.0000       0.242959         6.6112 
  74   0.0000       0.246967         6.7203 
  75   0.0000       0.249692         6.7945 
  76   0.0000       0.250332         6.8119 
  77   0.0000       0.259003         7.0478 
  78   0.0000       0.261880         7.1261 
  79   0.0000       0.272085         7.4038 
  80   0.0000       0.277188         7.5427 
  81   0.0000       0.278796         7.5864 
  82   0.0000       0.282636         7.6909 
  83   0.0000       0.289981         7.8908 
  84   0.0000       0.290011         7.8916 
  85   0.0000       0.293678         7.9914 
  86   0.0000       0.301601         8.2070 
  87   0.0000       0.302788         8.2393 
  88   0.0000       0.304997         8.2994 
  89   0.0000       0.309473         8.4212 
  90   0.0000       0.309629         8.4254 
  91   0.0000       0.312900         8.5145 
  92   0.0000       0.317246         8.6327 
  93   0.0000       0.321653         8.7526 
  94   0.0000       0.325316         8.8523 
  95   0.0000       0.328579         8.9411 
  96   0.0000       0.334402         9.0995 
  97   0.0000       0.338760         9.2181 
  98   0.0000       0.344458         9.3732 
  99   0.0000       0.347923         9.4675 
 100   0.0000       0.351806         9.5731 
 101   0.0000       0.355143         9.6639 
 102   0.0000       0.366184         9.9644 
 103   0.0000       0.372542        10.1374 
 104   0.0000       0.373725        10.1696 
 105   0.0000       0.378139        10.2897 
 106   0.0000       0.381315        10.3761 
 107   0.0000       0.383973        10.4484 
 108   0.0000       0.386184        10.5086 
 109   0.0000       0.394682        10.7399 
 110   0.0000       0.403242        10.9728 
 111   0.0000       0.406730        11.0677 
 112   0.0000       0.406781        11.0691 
 113   0.0000       0.412976        11.2377 
 114   0.0000       0.416343        11.3293 
 115   0.0000       0.420665        11.4469 
 116   0.0000       0.424264        11.5448 
 117   0.0000       0.429797        11.6954 
 118   0.0000       0.435562        11.8523 
 119   0.0000       0.437646        11.9090 
 120   0.0000       0.453627        12.3438 
 121   0.0000       0.454155        12.3582 
 122   0.0000       0.456472        12.4212 
 123   0.0000       0.458112        12.4659 
 124   0.0000       0.463247        12.6056 
 125   0.0000       0.468645        12.7525 
 126   0.0000       0.479648        13.0519 
 127   0.0000       0.484053        13.1718 
 128   0.0000       0.488706        13.2984 
 129   0.0000       0.492311        13.3965 
 130   0.0000       0.495407        13.4807 
 131   0.0000       0.503726        13.7071 
 132   0.0000       0.508401        13.8343 
 133   0.0000       0.512609        13.9488 
 134   0.0000       0.512779        13.9534 
 135   0.0000       0.516335        14.0502 
 136   0.0000       0.528888        14.3918 
 137   0.0000       0.530556        14.4372 
 138   0.0000       0.545666        14.8483 
 139   0.0000       0.554003        15.0752 
 140   0.0000       0.561414        15.2769 
 141   0.0000       0.567462        15.4414 
 142   0.0000       0.576648        15.6914 
 143   0.0000       0.587692        15.9919 
 144   0.0000       0.587706        15.9923 
 145   0.0000       0.594849        16.1867 
 146   0.0000       0.596473        16.2308 
 147   0.0000       0.604603        16.4521 
 148   0.0000       0.605539        16.4776 
 149   0.0000       0.613803        16.7024 
 150   0.0000       0.622576        16.9411 
 151   0.0000       0.625370        17.0172 
 152   0.0000       0.631766        17.1912 
 153   0.0000       0.632534        17.2121 
 154   0.0000       0.651400        17.7255 
 155   0.0000       0.653629        17.7861 
 156   0.0000       0.655966        17.8497 
 157   0.0000       0.657754        17.8984 
 158   0.0000       0.660289        17.9674 
 159   0.0000       0.667403        18.1609 
 160   0.0000       0.672144        18.2900 
 161   0.0000       0.674959        18.3666 
 162   0.0000       0.676388        18.4055 
 163   0.0000       0.688670        18.7397 
 164   0.0000       0.690491        18.7892 
 165   0.0000       0.698643        19.0110 
 166   0.0000       0.703069        19.1315 
 167   0.0000       0.705846        19.2070 
 168   0.0000       0.715107        19.4590 
 169   0.0000       0.716160        19.4877 
 170   0.0000       0.723951        19.6997 
 171   0.0000       0.738378        20.0923 
 172   0.0000       0.741010        20.1639 
 173   0.0000       0.753102        20.4930 
 174   0.0000       0.756222        20.5779 
 175   0.0000       0.760747        20.7010 
 176   0.0000       0.761624        20.7248 
 177   0.0000       0.764642        20.8070 
 178   0.0000       0.773307        21.0428 
 179   0.0000       0.781116        21.2553 
 180   0.0000       0.786359        21.3979 
 181   0.0000       0.787350        21.4249 
 182   0.0000       0.794202        21.6113 
 183   0.0000       0.801846        21.8193 
 184   0.0000       0.804982        21.9047 
 185   0.0000       0.812911        22.1204 
 186   0.0000       0.823364        22.4049 
 187   0.0000       0.824203        22.4277 
 188   0.0000       0.832398        22.6507 
 189   0.0000       0.844777        22.9875 
 190   0.0000       0.854157        23.2428 
 191   0.0000       0.856576        23.3086 
 192   0.0000       0.859418        23.3860 
 193   0.0000       0.865170        23.5425 
 194   0.0000       0.875014        23.8103 
 195   0.0000       0.879616        23.9356 
 196   0.0000       0.884183        24.0598 
 197   0.0000       0.885627        24.0991 
 198   0.0000       0.892316        24.2812 
 199   0.0000       0.899867        24.4866 
 200   0.0000       0.901945        24.5432 
 201   0.0000       0.909250        24.7420 
 202   0.0000       0.909537        24.7498 
 203   0.0000       0.915445        24.9105 
 204   0.0000       0.927189        25.2301 
 205   0.0000       0.933299        25.3963 
 206   0.0000       0.945490        25.7281 
 207   0.0000       0.948039        25.7974 
 208   0.0000       0.948338        25.8056 
 209   0.0000       0.950349        25.8603 
 210   0.0000       0.961109        26.1531 
 211   0.0000       0.965703        26.2781 
 212   0.0000       0.977198        26.5909 
 213   0.0000       0.979950        26.6658 
 214   0.0000       0.982916        26.7465 
 215   0.0000       0.994063        27.0498 
 216   0.0000       1.002098        27.2685 
 217   0.0000       1.005168        27.3520 
 218   0.0000       1.005617        27.3642 
 219   0.0000       1.012890        27.5621 
 220   0.0000       1.013322        27.5739 
 221   0.0000       1.026897        27.9433 
 222   0.0000       1.034411        28.1478 
 223   0.0000       1.036780        28.2122 
 224   0.0000       1.049579        28.5605 
 225   0.0000       1.050172        28.5766 
 226   0.0000       1.060513        28.8580 
 227   0.0000       1.062311        28.9070 
 228   0.0000       1.063620        28.9426 
 229   0.0000       1.074769        29.2459 
 230   0.0000       1.082551        29.4577 
 231   0.0000       1.085993        29.5514 
 232   0.0000       1.095087        29.7988 
 233   0.0000       1.096258        29.8307 
 234   0.0000       1.101268        29.9670 
 235   0.0000       1.111731        30.2517 
 236   0.0000       1.113755        30.3068 
 237   0.0000       1.122823        30.5536 
 238   0.0000       1.133623        30.8475 
 239   0.0000       1.135373        30.8951 
 240   0.0000       1.142492        31.0888 
 241   0.0000       1.162164        31.6241 
 242   0.0000       1.167113        31.7588 
 243   0.0000       1.171664        31.8826 
 244   0.0000       1.175629        31.9905 
 245   0.0000       1.180342        32.1187 
 246   0.0000       1.184352        32.2279 
 247   0.0000       1.197593        32.5882 
 248   0.0000       1.202700        32.7271 
 249   0.0000       1.204769        32.7834 
 250   0.0000       1.211625        32.9700 
 251   0.0000       1.212797        33.0019 
 252   0.0000       1.220484        33.2111 
 253   0.0000       1.222448        33.2645 
 254   0.0000       1.230449        33.4822 
 255   0.0000       1.239663        33.7330 
 256   0.0000       1.244542        33.8657 
 257   0.0000       1.246978        33.9320 
 258   0.0000       1.248982        33.9865 
 259   0.0000       1.255376        34.1605 
 260   0.0000       1.270885        34.5825 
 261   0.0000       1.272951        34.6387 
 262   0.0000       1.273699        34.6591 
 263   0.0000       1.290395        35.1134 
 264   0.0000       1.296094        35.2685 
 265   0.0000       1.299720        35.3672 
 266   0.0000       1.301633        35.4192 
 267   0.0000       1.312624        35.7183 
 268   0.0000       1.313028        35.7293 
 269   0.0000       1.316222        35.8162 
 270   0.0000       1.325087        36.0575 
 271   0.0000       1.327652        36.1273 
 272   0.0000       1.340522        36.4774 
 273   0.0000       1.358687        36.9717 
 274   0.0000       1.363074        37.0911 
 275   0.0000       1.374918        37.4134 
 276   0.0000       1.376585        37.4588 
 277   0.0000       1.377590        37.4861 
 278   0.0000       1.392624        37.8952 
 279   0.0000       1.398996        38.0686 
 280   0.0000       1.416759        38.5520 
 281   0.0000       1.419105        38.6158 
 282   0.0000       1.423555        38.7369 
 283   0.0000       1.426918        38.8284 
 284   0.0000       1.439634        39.1744 
 285   0.0000       1.439795        39.1788 
 286   0.0000       1.455218        39.5985 
 287   0.0000       1.464256        39.8444 
 288   0.0000       1.464834        39.8601 
 289   0.0000       1.482030        40.3281 
 290   0.0000       1.482269        40.3346 
 291   0.0000       1.493085        40.6289 
 292   0.0000       1.511423        41.1279 
 293   0.0000       1.517688        41.2984 
 294   0.0000       1.520241        41.3679 
 295   0.0000       1.528273        41.5864 
 296   0.0000       1.550091        42.1801 
 297   0.0000       1.553372        42.2694 
 298   0.0000       1.564750        42.5790 
 299   0.0000       1.568854        42.6907 
 300   0.0000       1.587653        43.2022 
 301   0.0000       1.590187        43.2712 
 302   0.0000       1.592496        43.3340 
 303   0.0000       1.601021        43.5660 
 304   0.0000       1.606312        43.7100 
 305   0.0000       1.621222        44.1157 
 306   0.0000       1.623450        44.1763 
 307   0.0000       1.631023        44.3824 
 308   0.0000       1.641028        44.6546 
 309   0.0000       1.652229        44.9594 
 310   0.0000       1.665575        45.3226 
 311   0.0000       1.677095        45.6361 
 312   0.0000       1.677377        45.6438 
 313   0.0000       1.690199        45.9926 
 314   0.0000       1.700747        46.2797 
 315   0.0000       1.703292        46.3489 
 316   0.0000       1.708765        46.4978 
 317   0.0000       1.719926        46.8016 
 318   0.0000       1.736622        47.2559 
 319   0.0000       1.753157        47.7058 
 320   0.0000       1.757055        47.8119 
 321   0.0000       1.767724        48.1022 
 322   0.0000       1.776772        48.3484 
 323   0.0000       1.778744        48.4021 
 324   0.0000       1.778986        48.4087 
 325   0.0000       1.784454        48.5575 
 326   0.0000       1.789239        48.6877 
 327   0.0000       1.791716        48.7551 
 328   0.0000       1.808324        49.2070 
 329   0.0000       1.816768        49.4368 
 330   0.0000       1.824844        49.6565 
 331   0.0000       1.826397        49.6988 
 332   0.0000       1.833342        49.8878 
 333   0.0000       1.841153        50.1003 
 334   0.0000       1.847341        50.2687 
 335   0.0000       1.854736        50.4699 
 336   0.0000       1.859384        50.5964 
 337   0.0000       1.871031        50.9133 
 338   0.0000       1.877124        51.0791 
 339   0.0000       1.883611        51.2557 
 340   0.0000       1.888908        51.3998 
 341   0.0000       1.893827        51.5337 
 342   0.0000       1.896916        51.6177 
 343   0.0000       1.921246        52.2798 
 344   0.0000       1.927581        52.4521 
 345   0.0000       1.931679        52.5637 
 346   0.0000       1.942936        52.8700 
 347   0.0000       1.946543        52.9681 
 348   0.0000       1.951814        53.1116 
 349   0.0000       1.960274        53.3418 
 350   0.0000       1.969691        53.5980 
 351   0.0000       1.985031        54.0154 
 352   0.0000       1.996698        54.3329 
 353   0.0000       1.999503        54.4092 
 354   0.0000       2.002983        54.5039 
 355   0.0000       2.005170        54.5635 
 356   0.0000       2.009416        54.6790 
 357   0.0000       2.025003        55.1031 
 358   0.0000       2.031759        55.2870 
 359   0.0000       2.036170        55.4070 
 360   0.0000       2.044198        55.6254 
 361   0.0000       2.052328        55.8467 
 362   0.0000       2.062800        56.1316 
 363   0.0000       2.063636        56.1544 
 364   0.0000       2.077397        56.5288 
 365   0.0000       2.084179        56.7134 
 366   0.0000       2.089049        56.8459 
 367   0.0000       2.090421        56.8833 
 368   0.0000       2.093595        56.9696 
 369   0.0000       2.108215        57.3675 
 370   0.0000       2.113693        57.5165 
 371   0.0000       2.115508        57.5659 
 372   0.0000       2.117862        57.6300 
 373   0.0000       2.130475        57.9732 
 374   0.0000       2.138975        58.2045 
[...]
[1715555902.189224] [bc11304:1123856:0]          mpool.c:42   UCX  WARN  object 0x13318f40 was not returned to mpool ucp_requests
[1715555902.189228] [bc11304:1123856:0]          mpool.c:42   UCX  WARN  object 0x13319100 was not returned to mpool ucp_requests
[1715555902.189311] [bc11304:1123854:0]          mpool.c:42   UCX  WARN  object 0x1396b0c0 was not returned to mpool ucp_requests
[1715555902.189328] [bc11304:1123854:0]          mpool.c:42   UCX  WARN  object 0x1396b280 was not returned to mpool ucp_requests
[1715555902.189333] [bc11304:1123854:0]          mpool.c:42   UCX  WARN  object 0x1396b440 was not returned to mpool ucp_requests
[1715555902.189337] [bc11304:1123854:0]          mpool.c:42   UCX  WARN  object 0x1396b600 was not returned to mpool ucp_requests
[1715555902.189342] [bc11304:1123854:0]          mpool.c:42   UCX  WARN  object 0x1396b7c0 was not returned to mpool ucp_requests
[1715555902.189348] [bc11304:1123854:0]          mpool.c:42   UCX  WARN  object 0x1396b980 was not returned to mpool ucp_requests
[1715555902.189352] [bc11304:1123854:0]          mpool.c:42   UCX  WARN  object 0x1396bb40 was not returned to mpool ucp_requests
[1715555902.189357] [bc11304:1123854:0]          mpool.c:42   UCX  WARN  object 0x1396bd00 was not returned to mpool ucp_requests
[1715555902.190313] [bc11304:1123875:0]          mpool.c:42   UCX  WARN  object 0x12b0b740 was not returned to mpool ucp_requests
[1715555902.190333] [bc11304:1123875:0]          mpool.c:42   UCX  WARN  object 0x12b0b900 was not returned to mpool ucp_requests
[1715555902.190339] [bc11304:1123875:0]          mpool.c:42   UCX  WARN  object 0x12b0bac0 was not returned to mpool ucp_requests
[1715555902.190344] [bc11304:1123875:0]          mpool.c:42   UCX  WARN  object 0x12b0bc80 was not returned to mpool ucp_requests
[1715555902.190349] [bc11304:1123875:0]          mpool.c:42   UCX  WARN  object 0x12b0be40 was not returned to mpool ucp_requests
[1715555902.190353] [bc11304:1123875:0]          mpool.c:42   UCX  WARN  object 0x12b0c000 was not returned to mpool ucp_requests
[1715555902.190357] [bc11304:1123875:0]          mpool.c:42   UCX  WARN  object 0x12b0c1c0 was not returned to mpool ucp_requests
[1715555902.190362] [bc11304:1123875:0]          mpool.c:42   UCX  WARN  object 0x12b0c380 was not returned to mpool ucp_requests
[1715555902.190548] [bc11304:1123851:0]          mpool.c:42   UCX  WARN  object 0x12fcd040 was not returned to mpool ucp_requests
[1715555902.190566] [bc11304:1123851:0]          mpool.c:42   UCX  WARN  object 0x12fcd200 was not returned to mpool ucp_requests
[1715555902.190572] [bc11304:1123851:0]          mpool.c:42   UCX  WARN  object 0x12fcd3c0 was not returned to mpool ucp_requests
[1715555902.190577] [bc11304:1123851:0]          mpool.c:42   UCX  WARN  object 0x12fcd580 was not returned to mpool ucp_requests
[1715555902.190582] [bc11304:1123851:0]          mpool.c:42   UCX  WARN  object 0x12fcd740 was not returned to mpool ucp_requests
[1715555902.190587] [bc11304:1123851:0]          mpool.c:42   UCX  WARN  object 0x12fcd900 was not returned to mpool ucp_requests
[1715555902.190590] [bc11304:1123851:0]          mpool.c:42   UCX  WARN  object 0x12fcdac0 was not returned to mpool ucp_requests
[1715555902.190596] [bc11304:1123851:0]          mpool.c:42   UCX  WARN  object 0x12fcdc80 was not returned to mpool ucp_requests
[1715555902.191251] [bc11304:1123853:0]          mpool.c:42   UCX  WARN  object 0x133ff5c0 was not returned to mpool ucp_requests
[1715555902.191269] [bc11304:1123853:0]          mpool.c:42   UCX  WARN  object 0x133ff780 was not returned to mpool ucp_requests
[1715555902.191275] [bc11304:1123853:0]          mpool.c:42   UCX  WARN  object 0x133ff940 was not returned to mpool ucp_requests
[1715555902.191280] [bc11304:1123853:0]          mpool.c:42   UCX  WARN  object 0x133ffb00 was not returned to mpool ucp_requests
[1715555902.191284] [bc11304:1123853:0]          mpool.c:42   UCX  WARN  object 0x133ffcc0 was not returned to mpool ucp_requests
[1715555902.191289] [bc11304:1123853:0]          mpool.c:42   UCX  WARN  object 0x133ffe80 was not returned to mpool ucp_requests
[1715555902.191293] [bc11304:1123853:0]          mpool.c:42   UCX  WARN  object 0x13400040 was not returned to mpool ucp_requests
[1715555902.191298] [bc11304:1123853:0]          mpool.c:42   UCX  WARN  object 0x13400200 was not returned to mpool ucp_requests
[1715555902.191335] [bc11304:1123847:0]          mpool.c:42   UCX  WARN  object 0x1340b140 was not returned to mpool ucp_requests
[1715555902.191351] [bc11304:1123847:0]          mpool.c:42   UCX  WARN  object 0x1340b300 was not returned to mpool ucp_requests
[1715555902.191356] [bc11304:1123847:0]          mpool.c:42   UCX  WARN  object 0x1340ba00 was not returned to mpool ucp_requests
[1715555902.191361] [bc11304:1123847:0]          mpool.c:42   UCX  WARN  object 0x1340bbc0 was not returned to mpool ucp_requests
[1715555902.191366] [bc11304:1123847:0]          mpool.c:42   UCX  WARN  object 0x1340bd80 was not returned to mpool ucp_requests
[1715555902.191370] [bc11304:1123847:0]          mpool.c:42   UCX  WARN  object 0x1340c100 was not returned to mpool ucp_requests
[1715555902.191375] [bc11304:1123847:0]          mpool.c:42   UCX  WARN  object 0x1340c2c0 was not returned to mpool ucp_requests
[1715555902.191848] [bc11304:1123855:0]          mpool.c:42   UCX  WARN  object 0x13d1e580 was not returned to mpool ucp_requests
[1715555902.191865] [bc11304:1123855:0]          mpool.c:42   UCX  WARN  object 0x13d1e740 was not returned to mpool ucp_requests
[1715555902.191871] [bc11304:1123855:0]          mpool.c:42   UCX  WARN  object 0x13d1e900 was not returned to mpool ucp_requests
[1715555902.191876] [bc11304:1123855:0]          mpool.c:42   UCX  WARN  object 0x13d1eac0 was not returned to mpool ucp_requests
[1715555902.191881] [bc11304:1123855:0]          mpool.c:42   UCX  WARN  object 0x13d1ec80 was not returned to mpool ucp_requests
[1715555902.191885] [bc11304:1123855:0]          mpool.c:42   UCX  WARN  object 0x13d1ee40 was not returned to mpool ucp_requests
[1715555902.191889] [bc11304:1123855:0]          mpool.c:42   UCX  WARN  object 0x13d1f000 was not returned to mpool ucp_requests
[1715555902.191894] [bc11304:1123855:0]          mpool.c:42   UCX  WARN  object 0x13d1f1c0 was not returned to mpool ucp_requests
[1715555902.191997] [bc11304:1123852:0]          mpool.c:42   UCX  WARN  object 0x140d74c0 was not returned to mpool ucp_requests
[1715555902.192013] [bc11304:1123852:0]          mpool.c:42   UCX  WARN  object 0x140d7680 was not returned to mpool ucp_requests
[1715555902.192019] [bc11304:1123852:0]          mpool.c:42   UCX  WARN  object 0x140d7840 was not returned to mpool ucp_requests
[1715555902.192025] [bc11304:1123852:0]          mpool.c:42   UCX  WARN  object 0x140d7a00 was not returned to mpool ucp_requests
[1715555902.192029] [bc11304:1123852:0]          mpool.c:42   UCX  WARN  object 0x140d7bc0 was not returned to mpool ucp_requests
[1715555902.192034] [bc11304:1123852:0]          mpool.c:42   UCX  WARN  object 0x140d7d80 was not returned to mpool ucp_requests
[1715555902.192039] [bc11304:1123852:0]          mpool.c:42   UCX  WARN  object 0x140d7f40 was not returned to mpool ucp_requests
[1715555902.192044] [bc11304:1123852:0]          mpool.c:42   UCX  WARN  object 0x140d8100 was not returned to mpool ucp_requests
[1715555902.192573] [bc11304:1123864:0]          mpool.c:42   UCX  WARN  object 0x1395d6c0 was not returned to mpool ucp_requests
[1715555902.192589] [bc11304:1123864:0]          mpool.c:42   UCX  WARN  object 0x1395d880 was not returned to mpool ucp_requests
[1715555902.192595] [bc11304:1123864:0]          mpool.c:42   UCX  WARN  object 0x1395da40 was not returned to mpool ucp_requests
[1715555902.192600] [bc11304:1123864:0]          mpool.c:42   UCX  WARN  object 0x1395dc00 was not returned to mpool ucp_requests
[1715555902.192605] [bc11304:1123864:0]          mpool.c:42   UCX  WARN  object 0x1395ddc0 was not returned to mpool ucp_requests
[1715555902.192609] [bc11304:1123864:0]          mpool.c:42   UCX  WARN  object 0x1395df80 was not returned to mpool ucp_requests
[1715555902.192614] [bc11304:1123864:0]          mpool.c:42   UCX  WARN  object 0x1395e140 was not returned to mpool ucp_requests
[1715555902.192618] [bc11304:1123864:0]          mpool.c:42   UCX  WARN  object 0x1395e300 was not returned to mpool ucp_requests
[1715555902.192951] [bc11304:1123857:0]          mpool.c:42   UCX  WARN  object 0x145f19c0 was not returned to mpool ucp_requests
[1715555902.192968] [bc11304:1123857:0]          mpool.c:42   UCX  WARN  object 0x145f1b80 was not returned to mpool ucp_requests
[1715555902.192974] [bc11304:1123857:0]          mpool.c:42   UCX  WARN  object 0x145f1d40 was not returned to mpool ucp_requests
[1715555902.192979] [bc11304:1123857:0]          mpool.c:42   UCX  WARN  object 0x145f1f00 was not returned to mpool ucp_requests
[1715555902.192983] [bc11304:1123857:0]          mpool.c:42   UCX  WARN  object 0x145f20c0 was not returned to mpool ucp_requests
[1715555902.192988] [bc11304:1123857:0]          mpool.c:42   UCX  WARN  object 0x145f2280 was not returned to mpool ucp_requests
[1715555902.192993] [bc11304:1123857:0]          mpool.c:42   UCX  WARN  object 0x145f2440 was not returned to mpool ucp_requests
[1715555902.192997] [bc11304:1123857:0]          mpool.c:42   UCX  WARN  object 0x145f2600 was not returned to mpool ucp_requests
[1715555902.193348] [bc11304:1123862:0]          mpool.c:42   UCX  WARN  object 0x1344f040 was not returned to mpool ucp_requests
[1715555902.193363] [bc11304:1123862:0]          mpool.c:42   UCX  WARN  object 0x1344f200 was not returned to mpool ucp_requests
[1715555902.193369] [bc11304:1123862:0]          mpool.c:42   UCX  WARN  object 0x1344f3c0 was not returned to mpool ucp_requests
[1715555902.193373] [bc11304:1123862:0]          mpool.c:42   UCX  WARN  object 0x1344f580 was not returned to mpool ucp_requests
[1715555902.193377] [bc11304:1123862:0]          mpool.c:42   UCX  WARN  object 0x1344f740 was not returned to mpool ucp_requests
[1715555902.193381] [bc11304:1123862:0]          mpool.c:42   UCX  WARN  object 0x1344f900 was not returned to mpool ucp_requests
[1715555902.193384] [bc11304:1123862:0]          mpool.c:42   UCX  WARN  object 0x1344fac0 was not returned to mpool ucp_requests
[1715555902.193388] [bc11304:1123862:0]          mpool.c:42   UCX  WARN  object 0x1344fc80 was not returned to mpool ucp_requests
[1715555902.193628] [bc11304:1123849:0]          mpool.c:42   UCX  WARN  object 0x132d73c0 was not returned to mpool ucp_requests
[1715555902.193646] [bc11304:1123849:0]          mpool.c:42   UCX  WARN  object 0x132d7740 was not returned to mpool ucp_requests
[1715555902.193652] [bc11304:1123849:0]          mpool.c:42   UCX  WARN  object 0x132d7900 was not returned to mpool ucp_requests
[1715555902.193657] [bc11304:1123849:0]          mpool.c:42   UCX  WARN  object 0x132d7ac0 was not returned to mpool ucp_requests
[1715555902.193661] [bc11304:1123849:0]          mpool.c:42   UCX  WARN  object 0x132d7c80 was not returned to mpool ucp_requests
[1715555902.193666] [bc11304:1123849:0]          mpool.c:42   UCX  WARN  object 0x132d8000 was not returned to mpool ucp_requests
[1715555902.193671] [bc11304:1123849:0]          mpool.c:42   UCX  WARN  object 0x132d81c0 was not returned to mpool ucp_requests
[1715555902.193677] [bc11304:1123849:0]          mpool.c:42   UCX  WARN  object 0x132d8380 was not returned to mpool ucp_requests
[1715555902.194546] [bc11304:1123850:0]          mpool.c:42   UCX  WARN  object 0x130c1b40 was not returned to mpool ucp_requests
[1715555902.194561] [bc11304:1123850:0]          mpool.c:42   UCX  WARN  object 0x130c1d00 was not returned to mpool ucp_requests
[1715555902.194567] [bc11304:1123850:0]          mpool.c:42   UCX  WARN  object 0x130c1ec0 was not returned to mpool ucp_requests
[1715555902.194571] [bc11304:1123850:0]          mpool.c:42   UCX  WARN  object 0x130c2080 was not returned to mpool ucp_requests
[1715555902.194576] [bc11304:1123850:0]          mpool.c:42   UCX  WARN  object 0x130c2240 was not returned to mpool ucp_requests
[1715555902.194581] [bc11304:1123850:0]          mpool.c:42   UCX  WARN  object 0x130c2400 was not returned to mpool ucp_requests
[1715555902.194585] [bc11304:1123850:0]          mpool.c:42   UCX  WARN  object 0x130c25c0 was not returned to mpool ucp_requests
[1715555902.194590] [bc11304:1123850:0]          mpool.c:42   UCX  WARN  object 0x130c2780 was not returned to mpool ucp_requests


           ************************************************************
           *        Program running with 16 parallel MPI-processes    *
           *              working on a common directory               *
           ************************************************************

------------------------------------------------------------------------------
                                ORCA  MP2 
------------------------------------------------------------------------------

Freezing NCore=22 chemical core electrons

-------------
RI-MP2 ENERGY
-------------
Dimension of the basis                    ... 1024
Memory devoted to MP2                     ...  256 MB   
Data format for buffers                   ... DOUBLE
Compression type for matrix containers    ... UNCOMPRESSED
Overall scaling of the MP2 energy         ...   1.000e+00
Calculating two index integrals           ... done (    0.027 sec)
Cholesky decomposition of V**-1           ... done (    0.378 sec)

-----------------
RI-TRANSFORMATION (AUX index driven)
-----------------

Dimension of the orbital-basis         ... 1024
Dimension of the aux-basis             ... 2002
Transformation of internal/external MOs...   11-  32 to   33-1023
Number Format for Storage              ... Double (8 Byte)
Integral mode                          ... Direct

First Phase: integral generation and transformation of MO indices
  Aux angular momentum 0               ... done (    0.267 sec)
  Aux angular momentum 1               ... done (    0.529 sec)
  Aux angular momentum 2               ... done (    0.810 sec)
  Aux angular momentum 3               ... done (    0.940 sec)
  Aux angular momentum 4               ... done (    0.752 sec)
  Aux angular momentum 5               ... done (    0.404 sec)
Closing buffer VIA ( 0.33 GB; CompressionRatio= 1.00)
  Phase 1 completed in     5.285 sec
Second Phase: sorting and transformation of aux index

IA-Transformation
Memory available                       ... 167 MB 
Max. # MO pairs treated in a batch     ... 2    
# of internal orbitals                 ... 22
# batches for internal orbitals        ... 1
Closing buffer IAV ( 0.33 GB; CompressionRatio= 1.00)
(ia|v) transformation done in     7.206 sec

  Phase 2 completed in     7.444 sec
RI-Integral transformation completed in    14.988 sec
Opening buffers                              ... done

Starting loop over batches of integrals:

Operator 0  - window                       ... ( 11- 32)x( 33-1023)
Operator 0  - Memory available             ...   256 MB
Operator 0  - Memory needed per MO         ...  15.1 MB
Operator 0  - Number of orbitals per batch ... 2
Operator 0  - Number of batches            ... 1

OPERATOR  0   PASS   0:  MOs    11 ...   12 +   13 ...   14 +   15 ...   16 +   17 ...   18
                            +   19 ...   20 +   21 ...   22 +   23 ...   24 +   25 ...   26
                            +   27 ...   28 +   29 ...   30 +   31 ...   32
  Reading integrals       ... ok
Time spent in pair loops =     0.321 sec
Deleting buffer (Ka|jb)[aa] ...done

-----------------------------------------------
 RI-MP2 CORRELATION ENERGY:     -1.486735065 Eh
-----------------------------------------------


-------
TIMINGS
-------

Total time                :   19.487 sec
Integral trafo            :   15.013 sec ( 77.0%)
I/O of integrals          :    0.016 sec (  0.1%)
K(i,j) Operators          :    0.225 sec (  1.2%)
T(i,j) pair energies      :    0.039 sec (  0.2%)
V-calculation             :    0.027 sec (  0.1%)
V**(-1/2)                 :    0.378 sec (  1.9%)
Gamma(ia|P)               :    0.000 sec (  0.0%)
Gamma-Trafo               :    0.000 sec (  0.0%)
D(virtual)                :    0.000 sec (  0.0%)
D(internal)               :    0.000 sec (  0.0%)
W(virtual)                :    0.000 sec (  0.0%)
W(internal)               :    0.000 sec (  0.0%)
L(virtual)                :    0.000 sec (  0.0%)
L(internal)               :    0.000 sec (  0.0%)
G(D)                      :    0.000 sec (  0.0%)
G(Z)                      :    0.000 sec (  0.0%)
Z-Vector Solution         :    0.000 sec (  0.0%)
3-Index Derivative        :    0.000 sec (  0.0%)
2-Index Derivative        :    0.000 sec (  0.0%)
Separable Gradient        :    0.000 sec (  0.0%)


---------------------------------------
MP2 TOTAL ENERGY:     -706.160509893 Eh
---------------------------------------

Maximum memory used throughout the entire MP2-calculation: 247.5 MB

-------------------------   --------------------
FINAL SINGLE POINT ENERGY      -706.160509892997
-------------------------   --------------------


                            ***************************************
                            *     ORCA property calculations      *
                            ***************************************


  WARNING: The energy has been calculated at the MP2 level but the densities
           used in the property calculations are still SCF densities
           MP2 response densities have not been calculated 
           use %mp2 Density relaxed end
           or  %mp2 Density unrelaxed end

                                    ---------------------
                                    Active property flags
                                    ---------------------
   (+) Dipole Moment


------------------------------------------------------------------------------
                       ORCA ELECTRIC PROPERTIES CALCULATION
------------------------------------------------------------------------------

Dipole Moment Calculation                       ... on
Quadrupole Moment Calculation                   ... off
Polarizability Calculation                      ... off
GBWName                                         ... diethyl_sulfone.gbw
Electron density                                ... diethyl_sulfone.scfp
The origin for moment calculation is the CENTER OF MASS  = ( 0.109841,  0.123825 -0.000000)

-------------
DIPOLE MOMENT
-------------
                                X             Y             Z
Electronic contribution:      5.46278       7.02967       0.00000
Nuclear contribution   :     -7.24953      -8.17247       0.00000
                        -----------------------------------------
Total Dipole Moment    :     -1.78676      -1.14280       0.00000
                        -----------------------------------------
Magnitude (a.u.)       :      2.12097
Magnitude (Debye)      :      5.39106



--------------------
Rotational spectrum 
--------------------
 
Rotational constants in cm-1:     0.077420     0.073227     0.051088 
Rotational constants in MHz :  2320.980327  2195.290983  1531.569073 

 Dipole components along the rotational axes: 
x,y,z [a.u.] :     0.000000    -1.778110     1.156208 
x,y,z [Debye]:     0.000000    -4.519596     2.938848 

 

Timings for individual modules:

Sum of individual times         ...     2819.843 sec (=  46.997 min)
GTO integral calculation        ...        6.850 sec (=   0.114 min)   0.2 %
SCF iterations                  ...     2790.926 sec (=  46.515 min)  99.0 %
MP2 module                      ...       22.068 sec (=   0.368 min)   0.8 %
                             ****ORCA TERMINATED NORMALLY****
TOTAL RUN TIME: 0 days 0 hours 47 minutes 6 seconds 58 msec
