 Entering Gaussian System, Link 0=g16
 Input=37Conf8_Indometacin_7_mol1.gjf
 Output=37Conf8_Indometacin_7_mol1.log
 Initial command:
 /arc/software/Gaussian/g16.c01/l1.exe "/tmp/slurm/4832548/Gau-1268366.inp" -scrdir="/tmp/slurm/4832548/"
 Entering Link 1 = /arc/software/Gaussian/g16.c01/l1.exe PID=   1268367.
  
 Copyright (c) 1988-2019, Gaussian, Inc.  All Rights Reserved.
  
 This is part of the Gaussian(R) 16 program.  It is based on
 the Gaussian(R) 09 system (copyright 2009, Gaussian, Inc.),
 the Gaussian(R) 03 system (copyright 2003, Gaussian, Inc.),
 the Gaussian(R) 98 system (copyright 1998, Gaussian, Inc.),
 the Gaussian(R) 94 system (copyright 1995, Gaussian, Inc.),
 the Gaussian 92(TM) system (copyright 1992, Gaussian, Inc.),
 the Gaussian 90(TM) system (copyright 1990, Gaussian, Inc.),
 the Gaussian 88(TM) system (copyright 1988, Gaussian, Inc.),
 the Gaussian 86(TM) system (copyright 1986, Carnegie Mellon
 University), and the Gaussian 82(TM) system (copyright 1983,
 Carnegie Mellon University). Gaussian is a federally registered
 trademark of Gaussian, Inc.
  
 This software contains proprietary and confidential information,
 including trade secrets, belonging to Gaussian, Inc.
  
 This software is provided under written license and may be
 used, copied, transmitted, or stored only in accord with that
 written license.
  
 The following legend is applicable only to US Government
 contracts under FAR:
  
                    RESTRICTED RIGHTS LEGEND
  
 Use, reproduction and disclosure by the US Government is
 subject to restrictions as set forth in subparagraphs (a)
 and (c) of the Commercial Computer Software - Restricted
 Rights clause in FAR 52.227-19.
  
 Gaussian, Inc.
 340 Quinnipiac St., Bldg. 40, Wallingford CT 06492
  
  
 ---------------------------------------------------------------
 Warning -- This program may not be used in any manner that
 competes with the business of Gaussian, Inc. or will provide
 assistance to any competitor of Gaussian, Inc.  The licensee
 of this program is prohibited from giving any competitor of
 Gaussian, Inc. access to this program.  By using this program,
 the user acknowledges that Gaussian, Inc. is engaged in the
 business of creating and licensing software in the field of
 computational chemistry and represents and warrants to the
 licensee that it is not a competitor of Gaussian, Inc. and that
 it will not use this program in any manner prohibited above.
 ---------------------------------------------------------------
  

 Cite this work as:
 Gaussian 16, Revision C.01,
 M. J. Frisch, G. W. Trucks, H. B. Schlegel, G. E. Scuseria, 
 M. A. Robb, J. R. Cheeseman, G. Scalmani, V. Barone, 
 G. A. Petersson, H. Nakatsuji, X. Li, M. Caricato, A. V. Marenich, 
 J. Bloino, B. G. Janesko, R. Gomperts, B. Mennucci, H. P. Hratchian, 
 J. V. Ortiz, A. F. Izmaylov, J. L. Sonnenberg, D. Williams-Young, 
 F. Ding, F. Lipparini, F. Egidi, J. Goings, B. Peng, A. Petrone, 
 T. Henderson, D. Ranasinghe, V. G. Zakrzewski, J. Gao, N. Rega, 
 G. Zheng, W. Liang, M. Hada, M. Ehara, K. Toyota, R. Fukuda, 
 J. Hasegawa, M. Ishida, T. Nakajima, Y. Honda, O. Kitao, H. Nakai, 
 T. Vreven, K. Throssell, J. A. Montgomery, Jr., J. E. Peralta, 
 F. Ogliaro, M. J. Bearpark, J. J. Heyd, E. N. Brothers, K. N. Kudin, 
 V. N. Staroverov, T. A. Keith, R. Kobayashi, J. Normand, 
 K. Raghavachari, A. P. Rendell, J. C. Burant, S. S. Iyengar, 
 J. Tomasi, M. Cossi, J. M. Millam, M. Klene, C. Adamo, R. Cammi, 
 J. W. Ochterski, R. L. Martin, K. Morokuma, O. Farkas, 
 J. B. Foresman, and D. J. Fox, Gaussian, Inc., Wallingford CT, 2019.
 
 ******************************************
 Gaussian 16:  ES64L-G16RevC.01  3-Jul-2019
                 8-Apr-2025 
 ******************************************
 %nprocs=16
 Will use up to   16 processors via shared memory.
 %mem=30GB
 %chk=37Conf8_Indometacin_7_mol1.chk
 ----------------------------------------------------------------------
 #t hf aug-cc-pvdz symm=none int=(grid=ultrafine) guess=(read,tcheck) s
 table=(opt,rrhf)
 ----------------------------------------------------------------------
 -----
 title
 -----
 Symbolic Z-matrix:
 Charge =  0 Multiplicity = 1
 H                    -6.1721   -0.81296  -1.2692 
 O                    -6.13234  -1.10371  -0.33853 
 C                    -4.82275  -1.23304   0.04333 
 C                    -3.80514  -0.97181  -1.07535 
 O                    -4.5505   -1.56608   1.16767 
 C                    -2.41235  -0.76335  -0.59088 
 H                    -3.86397  -1.84041  -1.75437 
 H                    -4.1309   -0.10027  -1.66829 
 C                    -1.82489   0.51779  -0.29109 
 C                    -1.48379  -1.73672  -0.31097 
 C                    -2.33361   1.81774  -0.32727 
 C                    -0.4962    0.28215   0.14731 
 N                    -0.28741  -1.11653   0.11159 
 C                    -1.61946  -3.21021  -0.45079 
 H                    -3.35565   2.03201  -0.64298 
 C                    -1.51778   2.8748    0.08857 
 C                     0.30186   1.32861   0.6003 
 C                     0.86129  -1.81856   0.5336 
 H                    -2.5293   -3.44175  -1.01986 
 H                    -0.75853  -3.65736  -0.96678 
 H                    -1.69232  -3.69954   0.52997 
 O                    -2.0813    4.1218    0.02041 
 C                    -0.21299   2.62787   0.55846 
 H                     1.3059    1.16497   0.98612 
 C                     2.18111  -1.17762   0.27056 
 O                     0.78123  -2.92931   1.04139 
 C                    -1.30136   5.22228   0.47178 
 H                     0.4133    3.44655   0.90741 
 C                     2.42848  -0.43249  -0.89161 
 C                     3.23318  -1.43231   1.16129 
 H                    -0.37921   5.33732  -0.12303 
 H                    -1.93066   6.10974   0.33935 
 H                    -1.03481   5.1201    1.53735 
 H                     1.6186   -0.24013  -1.59594 
 C                     3.70308   0.05943  -1.15841 
 H                     3.03751  -2.03841   2.04662 
 C                     4.50554  -0.92397   0.91981 
 H                     3.90567   0.62691  -2.06616 
 C                     4.73075  -0.18088  -0.24264 
 H                     5.32364  -1.10339   1.61674 
 Cl                    6.31931   0.44898  -0.55892 
 
                    Distance matrix (angstroms):
                    1          2          3          4          5
     1  H    0.000000
     2  O    0.975840   0.000000
     3  C    1.928717   1.370244   0.000000
     4  C    2.380191   2.444619   1.534671   0.000000
     5  O    3.022435   2.232631   1.203817   2.437182   0.000000
     6  C    3.820772   3.744042   2.536308   1.489305   2.882457
     7  H    2.572646   2.773596   2.126002   1.104081   3.014116
     8  H    2.198567   2.604019   2.165980   1.103304   3.219834
     9  C    4.650358   4.602786   3.487751   2.599108   3.728196
    10  C    4.873581   4.691533   3.395273   2.560865   3.408842
    11  C    4.747823   4.792217   3.954797   3.241391   4.312735
    12  C    5.951605   5.824322   4.585373   3.743848   4.571043
    13  N    6.052133   5.862250   4.537350   3.715400   4.414899
    14  C    5.209907   4.981569   3.796633   3.190252   3.730090
    15  H    4.051962   4.199457   3.644716   3.067885   4.201473
    16  C    6.091454   6.107792   5.272497   4.624190   5.484821
    17  C    7.070609   6.942371   5.756205   4.996717   5.678603
    18  C    7.330068   7.083959   5.735112   5.008121   5.454655
    19  H    4.499189   4.348855   3.356886   2.780549   3.519755
    20  H    6.122811   5.982780   4.838960   4.062733   4.827874
    21  H    5.624748   5.215976   4.014976   3.805466   3.623190
    22  O    6.538317   6.621610   6.015844   5.487912   6.305960
    23  C    7.119736   7.054643   6.035054   5.341402   6.064186
    24  H    8.057243   7.888537   6.648282   5.910856   6.464442
    25  C    8.501762   8.336060   7.007764   6.139138   6.802226
    26  O    7.626701   7.282475   5.939533   5.417304   5.504697
    27  C    7.948537   8.000820   7.365793   6.857789   7.557976
    28  H    8.139321   8.068620   7.075409   6.422498   7.059285
    29  C    8.617268   8.604887   7.354953   6.259604   7.364226
    30  C    9.733970   9.490543   8.135573   7.399498   7.784832
    31  H    8.526267   8.638971   7.933622   7.242170   8.168384
    32  H    8.276534   8.375410   7.897356   7.460791   8.152784
    33  H    8.334847   8.260723   7.546057   7.184170   7.563183
    34  H    7.818561   7.899615   6.720422   5.497574   6.888649
    35  C    9.914258   9.937836   8.706574   7.579164   8.727801
    36  H    9.864751   9.520964   8.151410   7.596459   7.653336
    37  C   10.900279  10.713553   9.374473   8.546950   9.082158
    38  H   10.211259  10.331573   9.170315   7.936889   9.315239
    39  C   10.969298  10.902639   9.615518   8.612804   9.489434
    40  H   11.856013  11.621642  10.268479   9.518366   9.895170
    41  Cl  12.575067  12.550020  11.284387  10.236690  11.189028
                    6          7          8          9         10
     6  C    0.000000
     7  H    2.149644   0.000000
     8  H    2.133987   1.762597   0.000000
     9  C    1.440938   3.443856   2.756150   0.000000
    10  C    1.374053   2.785572   3.395214   2.280254   0.000000
    11  C    2.595711   4.214342   2.950822   1.396415   3.654674
    12  C    2.304262   4.411748   4.080894   1.418851   2.293729
    13  N    2.265738   4.098486   4.355821   2.279692   1.412274
    14  C    2.575932   2.934876   4.178680   3.737070   1.486314
    15  H    2.950689   4.060691   2.489757   2.181723   4.221068
    16  C    3.807630   5.579807   4.331974   2.407063   4.628920
    17  C    3.627967   5.739451   5.180498   2.444396   3.662678
    18  C    3.618652   5.250082   5.720385   3.654341   2.493872
    19  H    2.715056   2.210235   3.761791   4.087206   2.121967
    20  H    3.354358   3.683119   4.951554   4.361830   2.155214
    21  H    3.224277   3.659322   4.871731   4.298556   2.145537
    22  O    4.934365   6.471144   4.987829   3.626523   5.898227
    23  C    4.202207   6.216459   5.267939   2.787901   4.628227
    24  H    4.475570   6.578005   6.181061   3.442667   4.229021
    25  C    4.691862   6.409573   6.690388   4.386103   3.752634
    26  O    4.189826   5.529906   6.282902   4.522152   2.895076
    27  C    6.179912   7.836090   6.396541   4.794610   7.005259
    28  H    5.287006   7.302880   6.313788   3.876020   5.652406
    29  C    4.861434   6.505499   6.613552   4.399410   4.164615
    30  C    5.948917   7.683564   8.000658   5.612163   4.950760
    31  H    6.447536   8.143994   6.784570   5.034491   7.162225
    32  H    6.952461   8.445486   6.887372   5.628370   7.886035
    33  H    6.406400   8.202943   6.863976   5.014846   7.115747
    34  H    4.187178   5.713543   5.751656   3.759614   3.676378
    35  C    6.196575   7.824628   7.852180   5.614338   5.554091
    36  H    6.187339   7.881444   8.303195   5.970090   5.107974
    37  C    7.082739   8.834014   9.053443   6.604490   6.168262
    38  H    6.635258   8.157952   8.079205   6.000175   6.141150
    39  C    7.175264   8.883050   8.975958   6.592943   6.406701
    40  H    8.052003   9.814263  10.059125   7.574267   7.103399
    41  Cl   8.815478  10.505694  10.523273   8.148893   8.107227
                   11         12         13         14         15
    11  C    0.000000
    12  C    2.441176   0.000000
    13  N    3.604091   1.414629   0.000000
    14  C    5.079916   3.716990   2.544430   0.000000
    15  H    1.090940   3.444274   4.460580   5.525592   0.000000
    16  C    1.398527   2.787276   4.176728   6.109713   2.150169
    17  C    2.836430   1.391826   2.562184   5.039558   3.926563
    18  C    4.916417   2.530807   1.410833   3.009956   5.830421
    19  H    5.308504   4.400365   3.422411   1.097843   5.548598
    20  H    5.732937   4.102408   2.800117   1.098813   6.262492
    21  H    5.620186   4.175043   2.969976   1.098473   6.082199
    22  O    2.343765   4.155906   5.537730   7.361637   2.535996
    23  C    2.436772   2.398261   3.771706   6.089328   3.416843
    24  H    3.923918   2.174980   2.916964   5.455698   5.013559
    25  C    5.450897   3.051902   2.474388   4.369908   6.464673
    26  O    5.840372   3.569969   2.300585   2.840567   6.675745
    27  C    3.646219   5.015820   6.429490   8.488770   3.954822
    28  H    3.423882   3.379108   4.684658   7.091493   4.313886
    29  C    5.297123   3.184936   2.974959   4.929084   6.292197
    30  C    6.615723   4.227979   3.687295   5.413672   7.659607
    31  H    4.030985   5.063745   6.458766   8.643258   4.478238
    32  H    4.362111   6.004612   7.414251   9.358559   4.429836
    33  H    4.008649   5.062418   6.441037   8.584205   4.435813
    34  H    4.632960   2.789996   2.704923   4.540680   5.551028
    35  C    6.342245   4.403233   4.349689   6.286549   7.347272
    36  H    7.025253   4.634596   3.955919   5.412720   8.042062
    37  C    7.473029   5.202777   4.864429   6.679900   8.542742
    38  H    6.585623   4.939106   5.036278   6.918090   7.531701
    39  C    7.342127   5.261888   5.116918   7.038845   8.393272
    40  H    8.422924   6.160315   5.809435   7.544535   9.500902
    41  Cl   8.763572   6.854033   6.822694   8.742164   9.803974
                   16         17         18         19         20
    16  C    0.000000
    17  C    2.442061   0.000000
    18  C    5.280687   3.197200   0.000000
    19  H    6.492349   5.778990   4.067442   0.000000
    20  H    6.660281   5.332923   2.873350   1.784638   0.000000
    21  H    6.591452   5.409620   3.171596   1.780158   1.764654
    22  O    1.370113   3.717208   6.649066   7.647886   7.952333
    23  C    1.408633   1.398177   4.574433   6.685557   6.490615
    24  H    3.420860   1.087994   3.050230   6.320964   5.597370
    25  C    5.489719   3.149841   1.490610   5.383255   4.040001
    26  O    6.315141   4.307463   1.223939   3.933314   2.633185
    27  C    2.388378   4.212778   7.365752   8.876837   9.011777
    28  H    2.174044   2.142990   5.297340   7.734465   7.439846
    29  C    5.241363   3.138436   2.531501   5.801006   4.534586
    30  C    6.501811   4.065713   2.483756   6.480852   5.041158
    31  H    2.721235   4.129990   7.292230   9.082910   9.042127
    32  H    3.270810   5.283128   8.407774   9.666270   9.923513
    33  H    2.715437   4.127971   7.262762   9.059696   9.131856
    34  H    4.730459   3.003035   2.756792   5.271367   4.209994
    35  C    6.061241   4.033879   3.803356   7.149826   5.810096
    36  H    6.980276   4.573013   2.659605   6.508612   5.109941
    37  C    7.169519   4.779867   3.772268   7.719489   6.224233
    38  H    6.253773   4.537603   4.691197   7.684893   6.427936
    39  C    6.963548   4.754385   4.272852   7.996604   6.537774
    40  H    8.060169   5.671512   4.647282   8.607453   7.084499
    41  Cl   8.229449   6.190900   6.010434   9.677197   8.192936
                   21         22         23         24         25
    21  H    0.000000
    22  O    7.847568   0.000000
    23  C    6.498103   2.451919   0.000000
    24  H    5.732439   4.598757   2.151743   0.000000
    25  C    4.629345   6.805481   4.505148   2.601105   0.000000
    26  O    2.640692   7.678192   5.666034   4.128131   2.371131
    27  C    8.930572   1.422356   2.814787   4.850166   7.288814
    28  H    7.459403   2.732354   1.088229   2.451232   4.991360
    29  C    5.447522   6.473906   4.294866   2.708862   1.402516
    30  C    5.458887   7.771322   5.359529   3.238975   1.401827
    31  H    9.155081   2.096467   2.798781   4.634470   7.011034
    32  H    9.814026   2.018990   3.888678   5.945114   8.367616
    33  H    8.901302   2.095913   2.800861   4.628805   7.183883
    34  H    5.239199   5.943760   4.027603   2.956200   2.163129
    35  C    6.789022   7.165997   4.987999   3.401132   2.426652
    36  H    5.237449   8.261715   5.878311   3.792727   2.151458
    37  C    6.802149   8.345968   5.916981   3.821749   2.426693
    38  H    7.536282   7.239602   5.277862   4.045334   3.419166
    39  C    7.364355   8.061407   5.742073   3.879531   2.785234
    40  H    7.559415   9.202392   6.759921   4.656756   3.419533
    41  Cl   9.087470   9.186701   6.976177   5.294721   4.523114
                   26         27         28         29         30
    26  O    0.000000
    27  C    8.432678   0.000000
    28  H    6.387872   2.506601   0.000000
    29  C    3.561465   6.909918   4.726984   0.000000
    30  C    2.875316   8.082144   5.640873   2.421070   0.000000
    31  H    8.428503   1.103356   2.294535   6.462549   7.779893
    32  H    9.463172   1.095966   3.592968   7.957269   9.177328
    33  H    8.266618   1.103145   2.301003   6.980364   7.828872
    34  H    3.858547   6.529897   4.616397   1.090408   3.410349
    35  C    4.723229   7.372717   5.153916   1.392039   2.797696
    36  H    2.625831   8.603693   6.186199   3.403394   1.090621
    37  C    4.231626   8.467420   5.987322   2.799459   1.391266
    38  H    5.662658   7.394033   5.384156   2.164252   3.887038
    39  C    4.980091   8.129630   5.755105   2.405185   2.404124
    40  H    4.929351   9.231233   6.731756   3.888943   2.164635
    41  Cl   6.681629   9.051041   6.783547   4.003277   4.002821
                   31         32         33         34         35
    31  H    0.000000
    32  H    1.793718   0.000000
    33  H    1.798293   1.793638   0.000000
    34  H    6.104806   7.527512   6.752048   0.000000
    35  C    6.752276   8.401700   7.438085   2.150866   0.000000
    36  H    8.413248   9.694835   8.251510   4.302948   3.887947
    37  C    8.009498   9.551685   8.222385   3.889866   2.435162
    38  H    6.657621   8.361259   7.588306   2.490694   1.089535
    39  C    7.521737   9.180686   8.031839   3.394173   1.397315
    40  H    8.776790  10.309502   8.897641   4.979343   3.417576
    41  Cl   8.303977  10.045551   8.960848   4.862814   2.712157
                   36         37         38         39         40
    36  H    0.000000
    37  C    2.160275   0.000000
    38  H    4.977207   3.417761   0.000000
    39  C    3.399734   1.397924   2.158357   0.000000
    40  H    2.507080   1.089583   4.309098   2.158666   0.000000
    41  Cl   4.873003   2.713189   2.851156   1.737895   2.852141
                   41
    41  Cl   0.000000
 Symmetry turned off by external request.
 Rotational constants (GHZ):           0.2993494           0.1145241           0.0877825
   723 basis functions,  1289 primitive gaussians,   773 cartesian basis functions
    93 alpha electrons       93 beta electrons
       nuclear repulsion energy      2216.1229676941 Hartrees.
 NAtoms=   41 NActive=   41 NUniq=   41 SFac= 1.00D+00 NAtFMM=   60 NAOKFM=F Big=F
 ExpMin= 2.97D-02 ExpMax= 1.28D+05 ExpMxC= 1.24D+03 IAcc=3 IRadAn=         5 AccDes= 0.00D+00
 Harris functional with IExCor=  205 and IRadAn=       5 diagonalized for initial guess.
 HarFok:  IExCor=  205 AccDes= 0.00D+00 IRadAn=         5 IDoV= 1 UseB2=F ITyADJ=14
 ICtDFT=  3500011 ScaDFX=  1.000000  1.000000  1.000000  1.000000
 FoFCou: FMM=F IPFlag=           0 FMFlag=      100000 FMFlg1=           0
         NFxFlg=           0 DoJE=T BraDBF=F KetDBF=T FulRan=T
         wScrn=  0.000000 ICntrl=       500 IOpCl=  0 I1Cent=   200000004 NGrid=           0
         NMat0=    1 NMatS0=      1 NMatT0=    0 NMatD0=    1 NMtDS0=    0 NMtDT0=    0
 Symmetry not used in FoFCou.
 SCF Done:  E(RHF) =  -1542.35955732     A.U. after   17 cycles
            NFock= 17  Conv=0.69D-08     -V/T= 2.0010

 **********************************************************************

            Population analysis using the SCF Density.

 **********************************************************************

 Alpha  occ. eigenvalues -- -104.85594 -20.62602 -20.59737 -20.56848 -20.55915
 Alpha  occ. eigenvalues --  -15.63590 -11.39902 -11.39562 -11.33406 -11.31109
 Alpha  occ. eigenvalues --  -11.30274 -11.29752 -11.28501 -11.28204 -11.28066
 Alpha  occ. eigenvalues --  -11.27915 -11.27700 -11.27443 -11.27366 -11.25892
 Alpha  occ. eigenvalues --  -11.25597 -11.24549 -11.24476 -11.24366 -11.24226
 Alpha  occ. eigenvalues --  -10.58208  -8.04991  -8.04651  -8.04643  -1.45959
 Alpha  occ. eigenvalues --   -1.41749  -1.41290  -1.36705  -1.31040  -1.21274
 Alpha  occ. eigenvalues --   -1.15423  -1.14554  -1.11605  -1.05371  -1.04230
 Alpha  occ. eigenvalues --   -1.03610  -1.03104  -1.01137  -0.94929  -0.94081
 Alpha  occ. eigenvalues --   -0.88803  -0.86921  -0.84607  -0.82925  -0.82366
 Alpha  occ. eigenvalues --   -0.79373  -0.76084  -0.74443  -0.71997  -0.70751
 Alpha  occ. eigenvalues --   -0.69113  -0.67800  -0.67460  -0.66559  -0.66161
 Alpha  occ. eigenvalues --   -0.65491  -0.65287  -0.63943  -0.63637  -0.62291
 Alpha  occ. eigenvalues --   -0.61682  -0.61113  -0.60331  -0.59541  -0.57929
 Alpha  occ. eigenvalues --   -0.57174  -0.56756  -0.56255  -0.55854  -0.54914
 Alpha  occ. eigenvalues --   -0.54499  -0.53939  -0.53285  -0.52776  -0.51678
 Alpha  occ. eigenvalues --   -0.51020  -0.49065  -0.47983  -0.47799  -0.47099
 Alpha  occ. eigenvalues --   -0.45508  -0.45344  -0.44610  -0.39422  -0.36903
 Alpha  occ. eigenvalues --   -0.35486  -0.30104  -0.29676
 Alpha virt. eigenvalues --    0.02432   0.02965   0.03523   0.03839   0.04297
 Alpha virt. eigenvalues --    0.04682   0.05214   0.05475   0.05529   0.06041
 Alpha virt. eigenvalues --    0.06311   0.06775   0.07139   0.07251   0.08002
 Alpha virt. eigenvalues --    0.08138   0.08880   0.09110   0.09549   0.09704
 Alpha virt. eigenvalues --    0.10125   0.10274   0.11050   0.11481   0.11877
 Alpha virt. eigenvalues --    0.11957   0.12482   0.12685   0.13117   0.13379
 Alpha virt. eigenvalues --    0.13524   0.13791   0.13936   0.14173   0.14368
 Alpha virt. eigenvalues --    0.14545   0.14964   0.15343   0.15544   0.15742
 Alpha virt. eigenvalues --    0.16047   0.16194   0.16501   0.16676   0.16859
 Alpha virt. eigenvalues --    0.17240   0.17366   0.17750   0.17948   0.18036
 Alpha virt. eigenvalues --    0.18308   0.18594   0.18835   0.18998   0.19057
 Alpha virt. eigenvalues --    0.19644   0.20013   0.20329   0.20623   0.20846
 Alpha virt. eigenvalues --    0.21054   0.21532   0.21974   0.22142   0.22412
 Alpha virt. eigenvalues --    0.22994   0.23370   0.23710   0.23945   0.24061
 Alpha virt. eigenvalues --    0.24539   0.24728   0.24947   0.25333   0.25897
 Alpha virt. eigenvalues --    0.26191   0.26762   0.27113   0.27427   0.27766
 Alpha virt. eigenvalues --    0.28175   0.28576   0.28737   0.29177   0.29312
 Alpha virt. eigenvalues --    0.29654   0.29778   0.30261   0.30522   0.30824
 Alpha virt. eigenvalues --    0.31234   0.31678   0.31767   0.32016   0.32277
 Alpha virt. eigenvalues --    0.32625   0.33055   0.33186   0.33704   0.33935
 Alpha virt. eigenvalues --    0.34034   0.34262   0.34316   0.34783   0.35113
 Alpha virt. eigenvalues --    0.35497   0.35934   0.35991   0.36114   0.36282
 Alpha virt. eigenvalues --    0.36519   0.36961   0.37233   0.37369   0.37604
 Alpha virt. eigenvalues --    0.37915   0.38072   0.38293   0.38765   0.38992
 Alpha virt. eigenvalues --    0.39225   0.39703   0.40030   0.40134   0.40182
 Alpha virt. eigenvalues --    0.40393   0.40901   0.41063   0.41634   0.41884
 Alpha virt. eigenvalues --    0.42474   0.42629   0.42856   0.43015   0.43252
 Alpha virt. eigenvalues --    0.43349   0.43850   0.44157   0.44698   0.45120
 Alpha virt. eigenvalues --    0.45306   0.45678   0.45786   0.46518   0.46910
 Alpha virt. eigenvalues --    0.47095   0.47271   0.47501   0.47855   0.48043
 Alpha virt. eigenvalues --    0.48698   0.48840   0.49180   0.49382   0.49601
 Alpha virt. eigenvalues --    0.50052   0.50340   0.50811   0.51313   0.51581
 Alpha virt. eigenvalues --    0.51652   0.52340   0.52900   0.53204   0.54128
 Alpha virt. eigenvalues --    0.54621   0.55005   0.55516   0.55820   0.56056
 Alpha virt. eigenvalues --    0.56375   0.56491   0.57506   0.57560   0.58174
 Alpha virt. eigenvalues --    0.58354   0.58909   0.59048   0.59445   0.59815
 Alpha virt. eigenvalues --    0.60179   0.60896   0.61566   0.61879   0.62180
 Alpha virt. eigenvalues --    0.62287   0.62574   0.63097   0.63510   0.63836
 Alpha virt. eigenvalues --    0.64372   0.64524   0.65228   0.65238   0.65555
 Alpha virt. eigenvalues --    0.65623   0.65962   0.66570   0.66936   0.67074
 Alpha virt. eigenvalues --    0.67331   0.67544   0.67902   0.68451   0.68753
 Alpha virt. eigenvalues --    0.68948   0.69222   0.69441   0.69901   0.70129
 Alpha virt. eigenvalues --    0.70414   0.70798   0.71117   0.71175   0.71838
 Alpha virt. eigenvalues --    0.71962   0.72160   0.72364   0.72793   0.72978
 Alpha virt. eigenvalues --    0.73264   0.73792   0.74249   0.74628   0.74940
 Alpha virt. eigenvalues --    0.75134   0.75497   0.75947   0.76443   0.76814
 Alpha virt. eigenvalues --    0.77145   0.77561   0.78209   0.78515   0.78706
 Alpha virt. eigenvalues --    0.78868   0.79575   0.79775   0.80172   0.80525
 Alpha virt. eigenvalues --    0.80962   0.81019   0.81577   0.81975   0.82240
 Alpha virt. eigenvalues --    0.83045   0.83156   0.83509   0.83927   0.84191
 Alpha virt. eigenvalues --    0.84565   0.84822   0.85373   0.85805   0.86242
 Alpha virt. eigenvalues --    0.86634   0.87352   0.88068   0.88208   0.88336
 Alpha virt. eigenvalues --    0.89081   0.89422   0.89899   0.90478   0.90865
 Alpha virt. eigenvalues --    0.91179   0.91681   0.91865   0.92108   0.92229
 Alpha virt. eigenvalues --    0.93266   0.93668   0.94221   0.94782   0.95164
 Alpha virt. eigenvalues --    0.95183   0.95409   0.96294   0.96477   0.96533
 Alpha virt. eigenvalues --    0.97050   0.97503   0.97970   0.98566   0.99083
 Alpha virt. eigenvalues --    0.99455   0.99893   1.00264   1.00714   1.01916
 Alpha virt. eigenvalues --    1.02350   1.02510   1.02991   1.03512   1.04404
 Alpha virt. eigenvalues --    1.04809   1.05617   1.06205   1.06651   1.06897
 Alpha virt. eigenvalues --    1.07254   1.07779   1.08182   1.08754   1.09205
 Alpha virt. eigenvalues --    1.10051   1.10810   1.11062   1.11278   1.11910
 Alpha virt. eigenvalues --    1.12708   1.13610   1.14223   1.14566   1.14875
 Alpha virt. eigenvalues --    1.15913   1.15981   1.16360   1.17165   1.17856
 Alpha virt. eigenvalues --    1.18209   1.19084   1.19446   1.20015   1.20620
 Alpha virt. eigenvalues --    1.20910   1.21310   1.22116   1.22764   1.22928
 Alpha virt. eigenvalues --    1.24625   1.25229   1.25886   1.26300   1.27293
 Alpha virt. eigenvalues --    1.27820   1.27882   1.28339   1.28989   1.29285
 Alpha virt. eigenvalues --    1.30565   1.31248   1.32555   1.32711   1.33910
 Alpha virt. eigenvalues --    1.34177   1.35122   1.36357   1.37496   1.37862
 Alpha virt. eigenvalues --    1.38850   1.39225   1.40185   1.41176   1.41827
 Alpha virt. eigenvalues --    1.42061   1.43256   1.43591   1.44263   1.44758
 Alpha virt. eigenvalues --    1.45224   1.45356   1.45787   1.46597   1.47417
 Alpha virt. eigenvalues --    1.47768   1.47928   1.48391   1.48634   1.49852
 Alpha virt. eigenvalues --    1.50609   1.51040   1.51377   1.52718   1.53470
 Alpha virt. eigenvalues --    1.53859   1.55449   1.55732   1.57098   1.57472
 Alpha virt. eigenvalues --    1.58028   1.58572   1.59285   1.59918   1.60838
 Alpha virt. eigenvalues --    1.61125   1.62341   1.62872   1.63012   1.63364
 Alpha virt. eigenvalues --    1.64333   1.65076   1.65796   1.66098   1.67360
 Alpha virt. eigenvalues --    1.67781   1.68529   1.69185   1.70022   1.70416
 Alpha virt. eigenvalues --    1.71025   1.71725   1.71903   1.72381   1.73011
 Alpha virt. eigenvalues --    1.74000   1.74262   1.74699   1.75231   1.75483
 Alpha virt. eigenvalues --    1.75698   1.76202   1.77004   1.77529   1.78130
 Alpha virt. eigenvalues --    1.78342   1.78994   1.79952   1.80656   1.81310
 Alpha virt. eigenvalues --    1.82077   1.82630   1.82788   1.83443   1.84260
 Alpha virt. eigenvalues --    1.84692   1.85357   1.85901   1.86648   1.87220
 Alpha virt. eigenvalues --    1.88011   1.88397   1.89274   1.89799   1.90664
 Alpha virt. eigenvalues --    1.90852   1.91767   1.91863   1.92338   1.92658
 Alpha virt. eigenvalues --    1.93398   1.93831   1.94305   1.94860   1.95375
 Alpha virt. eigenvalues --    1.96101   1.96681   1.97271   1.97984   1.98874
 Alpha virt. eigenvalues --    1.99043   2.00223   2.01029   2.01646   2.02671
 Alpha virt. eigenvalues --    2.02746   2.03327   2.03969   2.04115   2.05043
 Alpha virt. eigenvalues --    2.06613   2.07311   2.08125   2.08403   2.09146
 Alpha virt. eigenvalues --    2.09635   2.09883   2.11237   2.12934   2.13573
 Alpha virt. eigenvalues --    2.14012   2.14842   2.15305   2.16133   2.16416
 Alpha virt. eigenvalues --    2.17908   2.18012   2.18853   2.19054   2.20724
 Alpha virt. eigenvalues --    2.21238   2.21746   2.22269   2.23120   2.24054
 Alpha virt. eigenvalues --    2.24488   2.24566   2.25281   2.26088   2.26367
 Alpha virt. eigenvalues --    2.26977   2.27186   2.28099   2.28816   2.28889
 Alpha virt. eigenvalues --    2.29943   2.30415   2.30850   2.31898   2.32592
 Alpha virt. eigenvalues --    2.32881   2.34155   2.34519   2.34894   2.36117
 Alpha virt. eigenvalues --    2.36738   2.37192   2.37605   2.38231   2.38537
 Alpha virt. eigenvalues --    2.39518   2.40225   2.40929   2.41347   2.42246
 Alpha virt. eigenvalues --    2.42985   2.43612   2.44261   2.45422   2.46074
 Alpha virt. eigenvalues --    2.46444   2.48081   2.48485   2.49705   2.50443
 Alpha virt. eigenvalues --    2.51168   2.52620   2.53800   2.54858   2.55734
 Alpha virt. eigenvalues --    2.55942   2.57619   2.58534   2.59725   2.60694
 Alpha virt. eigenvalues --    2.61051   2.61700   2.62110   2.63770   2.65398
 Alpha virt. eigenvalues --    2.66098   2.66926   2.67666   2.69602   2.70045
 Alpha virt. eigenvalues --    2.71013   2.72281   2.74133   2.74944   2.76181
 Alpha virt. eigenvalues --    2.77899   2.79459   2.80344   2.81065   2.84319
 Alpha virt. eigenvalues --    2.86302   2.86608   2.87522   2.88730   2.91602
 Alpha virt. eigenvalues --    2.91836   2.92727   2.93682   2.94726   2.94953
 Alpha virt. eigenvalues --    2.96754   2.97852   2.98495   3.00628   3.00965
 Alpha virt. eigenvalues --    3.01859   3.06056   3.07316   3.07859   3.09552
 Alpha virt. eigenvalues --    3.11465   3.12622   3.13293   3.17291   3.17615
 Alpha virt. eigenvalues --    3.18900   3.23436   3.25231   3.27106   3.29103
 Alpha virt. eigenvalues --    3.32664   3.33592   3.35126   3.38100   3.39272
 Alpha virt. eigenvalues --    3.41544   3.43104   3.48614   3.53798   3.57133
 Alpha virt. eigenvalues --    3.68675   3.71298   3.72414   3.73134   3.74631
 Alpha virt. eigenvalues --    3.76036   3.78748   3.80259   3.80416   3.81553
 Alpha virt. eigenvalues --    3.82345   3.84106   3.84723   3.86872   3.91221
 Alpha virt. eigenvalues --    3.91360   3.91830   3.94434   3.97195   4.01220
 Alpha virt. eigenvalues --    4.05842   4.07878   4.12353   4.14953   4.18392
 Alpha virt. eigenvalues --    4.23540   4.24882   4.30051   4.34196   4.37781
 Alpha virt. eigenvalues --    4.58622   4.70072   5.19263
          Condensed to atoms (all electrons):
 Mulliken charges:
               1
     1  H    0.224853
     2  O   -0.770267
     3  C    1.294424
     4  C    0.192173
     5  O   -0.721631
     6  C    0.591366
     7  H    0.062701
     8  H   -0.111948
     9  C   -0.190578
    10  C   -0.606079
    11  C    1.117808
    12  C   -0.065895
    13  N   -1.064203
    14  C    0.600540
    15  H   -0.691689
    16  C    0.497156
    17  C    1.221326
    18  C   -0.334542
    19  H   -0.100082
    20  H    0.170179
    21  H    0.237142
    22  O   -1.155571
    23  C    0.474167
    24  H   -0.537958
    25  C    1.281460
    26  O   -0.789968
    27  C    0.844146
    28  H   -0.836225
    29  C    1.032838
    30  C    0.349186
    31  H   -0.045945
    32  H   -0.338083
    33  H   -0.036617
    34  H   -0.699859
    35  C    0.414960
    36  H   -0.671332
    37  C    0.761958
    38  H   -0.464995
    39  C   -0.371192
    40  H   -0.411392
    41  Cl  -0.352332
 Sum of Mulliken charges =  -0.00000
 Mulliken charges with hydrogens summed into heavy atoms:
               1
     2  O   -0.545414
     3  C    1.294424
     4  C    0.142927
     5  O   -0.721631
     6  C    0.591366
     9  C   -0.190578
    10  C   -0.606079
    11  C    0.426119
    12  C   -0.065895
    13  N   -1.064203
    14  C    0.907780
    16  C    0.497156
    17  C    0.683368
    18  C   -0.334542
    22  O   -1.155571
    23  C   -0.362058
    25  C    1.281460
    26  O   -0.789968
    27  C    0.423501
    29  C    0.332979
    30  C   -0.322146
    35  C   -0.050035
    37  C    0.350567
    39  C   -0.371192
    41  Cl  -0.352332
 Electronic spatial extent (au):  <R**2>=          11465.7272
 Charge=             -0.0000 electrons
 Dipole moment (field-independent basis, Debye):
    X=              1.7085    Y=              2.8287    Z=             -4.3681  Tot=              5.4773
 NROrb=    721 NOA=    93 NOB=    93 NVA=   628 NVB=   628

 **** Warning!!: The largest alpha MO coefficient is  0.11621569D+03

    12 initial guesses have been made.
 Iteration     1 Dimension    12 NMult     0 NNew     12
 New state      1 was old state      3
 Iteration     2 Dimension    24 NMult    12 NNew     12
 New state      1 was old state     10
 Iteration     3 Dimension    27 NMult    24 NNew      3
 Iteration     4 Dimension    30 NMult    27 NNew      3
 Iteration     5 Dimension    33 NMult    30 NNew      3
 Iteration     6 Dimension    36 NMult    33 NNew      3
 Iteration     7 Dimension    39 NMult    36 NNew      3
 Iteration     8 Dimension    42 NMult    39 NNew      3
 ***********************************************************************
 Stability analysis using <AA,BB:AA,BB> singles matrix:
 ***********************************************************************
 Ground to excited state transition densities written to RWF  633

 Eigenvectors of the stability matrix:
 
 Excited state symmetry could not be determined.
 Eigenvector   1:      Singlet-?Sym  Eigenvalue= 0.1546019  <S**2>=0.000
      92 ->106         0.11197
      92 ->108         0.14889
      92 ->109         0.19632
      92 ->113        -0.29812
      92 ->115         0.17767
      93 ->106         0.10596
      93 ->113        -0.16915
      93 ->120        -0.12854
      93 ->122         0.10856
      93 ->125         0.10413
 The wavefunction is stable under the perturbations considered.
 The wavefunction is already stable.

 **********************************************************************

            Population analysis using the SCF Density.

 **********************************************************************

 Alpha  occ. eigenvalues -- -104.85594 -20.62602 -20.59737 -20.56848 -20.55915
 Alpha  occ. eigenvalues --  -15.63590 -11.39902 -11.39562 -11.33406 -11.31109
 Alpha  occ. eigenvalues --  -11.30274 -11.29752 -11.28501 -11.28204 -11.28066
 Alpha  occ. eigenvalues --  -11.27915 -11.27700 -11.27443 -11.27366 -11.25892
 Alpha  occ. eigenvalues --  -11.25597 -11.24549 -11.24476 -11.24366 -11.24226
 Alpha  occ. eigenvalues --  -10.58208  -8.04991  -8.04651  -8.04643  -1.45959
 Alpha  occ. eigenvalues --   -1.41749  -1.41290  -1.36705  -1.31040  -1.21274
 Alpha  occ. eigenvalues --   -1.15423  -1.14554  -1.11605  -1.05371  -1.04230
 Alpha  occ. eigenvalues --   -1.03610  -1.03104  -1.01137  -0.94929  -0.94081
 Alpha  occ. eigenvalues --   -0.88803  -0.86921  -0.84607  -0.82925  -0.82366
 Alpha  occ. eigenvalues --   -0.79373  -0.76084  -0.74443  -0.71997  -0.70751
 Alpha  occ. eigenvalues --   -0.69113  -0.67800  -0.67460  -0.66559  -0.66161
 Alpha  occ. eigenvalues --   -0.65491  -0.65287  -0.63943  -0.63637  -0.62291
 Alpha  occ. eigenvalues --   -0.61682  -0.61113  -0.60331  -0.59541  -0.57929
 Alpha  occ. eigenvalues --   -0.57174  -0.56756  -0.56255  -0.55854  -0.54914
 Alpha  occ. eigenvalues --   -0.54499  -0.53939  -0.53285  -0.52776  -0.51678
 Alpha  occ. eigenvalues --   -0.51020  -0.49065  -0.47983  -0.47799  -0.47099
 Alpha  occ. eigenvalues --   -0.45508  -0.45344  -0.44610  -0.39422  -0.36903
 Alpha  occ. eigenvalues --   -0.35486  -0.30104  -0.29676
 Alpha virt. eigenvalues --    0.02432   0.02965   0.03523   0.03839   0.04297
 Alpha virt. eigenvalues --    0.04682   0.05214   0.05475   0.05529   0.06041
 Alpha virt. eigenvalues --    0.06311   0.06775   0.07139   0.07251   0.08002
 Alpha virt. eigenvalues --    0.08138   0.08880   0.09110   0.09549   0.09704
 Alpha virt. eigenvalues --    0.10125   0.10274   0.11050   0.11481   0.11877
 Alpha virt. eigenvalues --    0.11957   0.12482   0.12685   0.13117   0.13379
 Alpha virt. eigenvalues --    0.13524   0.13791   0.13936   0.14173   0.14368
 Alpha virt. eigenvalues --    0.14545   0.14964   0.15343   0.15544   0.15742
 Alpha virt. eigenvalues --    0.16047   0.16194   0.16501   0.16676   0.16859
 Alpha virt. eigenvalues --    0.17240   0.17366   0.17750   0.17948   0.18036
 Alpha virt. eigenvalues --    0.18308   0.18594   0.18835   0.18998   0.19057
 Alpha virt. eigenvalues --    0.19644   0.20013   0.20329   0.20623   0.20846
 Alpha virt. eigenvalues --    0.21054   0.21532   0.21974   0.22142   0.22412
 Alpha virt. eigenvalues --    0.22994   0.23370   0.23710   0.23945   0.24061
 Alpha virt. eigenvalues --    0.24539   0.24728   0.24947   0.25333   0.25897
 Alpha virt. eigenvalues --    0.26191   0.26762   0.27113   0.27427   0.27766
 Alpha virt. eigenvalues --    0.28175   0.28576   0.28737   0.29177   0.29312
 Alpha virt. eigenvalues --    0.29654   0.29778   0.30261   0.30522   0.30824
 Alpha virt. eigenvalues --    0.31234   0.31678   0.31767   0.32016   0.32277
 Alpha virt. eigenvalues --    0.32625   0.33055   0.33186   0.33704   0.33935
 Alpha virt. eigenvalues --    0.34034   0.34262   0.34316   0.34783   0.35113
 Alpha virt. eigenvalues --    0.35497   0.35934   0.35991   0.36114   0.36282
 Alpha virt. eigenvalues --    0.36519   0.36961   0.37233   0.37369   0.37604
 Alpha virt. eigenvalues --    0.37915   0.38072   0.38293   0.38765   0.38992
 Alpha virt. eigenvalues --    0.39225   0.39703   0.40030   0.40134   0.40182
 Alpha virt. eigenvalues --    0.40393   0.40901   0.41063   0.41634   0.41884
 Alpha virt. eigenvalues --    0.42474   0.42629   0.42856   0.43015   0.43252
 Alpha virt. eigenvalues --    0.43349   0.43850   0.44157   0.44698   0.45120
 Alpha virt. eigenvalues --    0.45306   0.45678   0.45786   0.46518   0.46910
 Alpha virt. eigenvalues --    0.47095   0.47271   0.47501   0.47855   0.48043
 Alpha virt. eigenvalues --    0.48698   0.48840   0.49180   0.49382   0.49601
 Alpha virt. eigenvalues --    0.50052   0.50340   0.50811   0.51313   0.51581
 Alpha virt. eigenvalues --    0.51652   0.52340   0.52900   0.53204   0.54128
 Alpha virt. eigenvalues --    0.54621   0.55005   0.55516   0.55820   0.56056
 Alpha virt. eigenvalues --    0.56375   0.56491   0.57506   0.57560   0.58174
 Alpha virt. eigenvalues --    0.58354   0.58909   0.59048   0.59445   0.59815
 Alpha virt. eigenvalues --    0.60179   0.60896   0.61566   0.61879   0.62180
 Alpha virt. eigenvalues --    0.62287   0.62574   0.63097   0.63510   0.63836
 Alpha virt. eigenvalues --    0.64372   0.64524   0.65228   0.65238   0.65555
 Alpha virt. eigenvalues --    0.65623   0.65962   0.66570   0.66936   0.67074
 Alpha virt. eigenvalues --    0.67331   0.67544   0.67902   0.68451   0.68753
 Alpha virt. eigenvalues --    0.68948   0.69222   0.69441   0.69901   0.70129
 Alpha virt. eigenvalues --    0.70414   0.70798   0.71117   0.71175   0.71838
 Alpha virt. eigenvalues --    0.71962   0.72160   0.72364   0.72793   0.72978
 Alpha virt. eigenvalues --    0.73264   0.73792   0.74249   0.74628   0.74940
 Alpha virt. eigenvalues --    0.75134   0.75497   0.75947   0.76443   0.76814
 Alpha virt. eigenvalues --    0.77145   0.77561   0.78209   0.78515   0.78706
 Alpha virt. eigenvalues --    0.78868   0.79575   0.79775   0.80172   0.80525
 Alpha virt. eigenvalues --    0.80962   0.81019   0.81577   0.81975   0.82240
 Alpha virt. eigenvalues --    0.83045   0.83156   0.83509   0.83927   0.84191
 Alpha virt. eigenvalues --    0.84565   0.84822   0.85373   0.85805   0.86242
 Alpha virt. eigenvalues --    0.86634   0.87352   0.88068   0.88208   0.88336
 Alpha virt. eigenvalues --    0.89081   0.89422   0.89899   0.90478   0.90865
 Alpha virt. eigenvalues --    0.91179   0.91681   0.91865   0.92108   0.92229
 Alpha virt. eigenvalues --    0.93266   0.93668   0.94221   0.94782   0.95164
 Alpha virt. eigenvalues --    0.95183   0.95409   0.96294   0.96477   0.96533
 Alpha virt. eigenvalues --    0.97050   0.97503   0.97970   0.98566   0.99083
 Alpha virt. eigenvalues --    0.99455   0.99893   1.00264   1.00714   1.01916
 Alpha virt. eigenvalues --    1.02350   1.02510   1.02991   1.03512   1.04404
 Alpha virt. eigenvalues --    1.04809   1.05617   1.06205   1.06651   1.06897
 Alpha virt. eigenvalues --    1.07254   1.07779   1.08182   1.08754   1.09205
 Alpha virt. eigenvalues --    1.10051   1.10810   1.11062   1.11278   1.11910
 Alpha virt. eigenvalues --    1.12708   1.13610   1.14223   1.14566   1.14875
 Alpha virt. eigenvalues --    1.15913   1.15981   1.16360   1.17165   1.17856
 Alpha virt. eigenvalues --    1.18209   1.19084   1.19446   1.20015   1.20620
 Alpha virt. eigenvalues --    1.20910   1.21310   1.22116   1.22764   1.22928
 Alpha virt. eigenvalues --    1.24625   1.25229   1.25886   1.26300   1.27293
 Alpha virt. eigenvalues --    1.27820   1.27882   1.28339   1.28989   1.29285
 Alpha virt. eigenvalues --    1.30565   1.31248   1.32555   1.32711   1.33910
 Alpha virt. eigenvalues --    1.34177   1.35122   1.36357   1.37496   1.37862
 Alpha virt. eigenvalues --    1.38850   1.39225   1.40185   1.41176   1.41827
 Alpha virt. eigenvalues --    1.42061   1.43256   1.43591   1.44263   1.44758
 Alpha virt. eigenvalues --    1.45224   1.45356   1.45787   1.46597   1.47417
 Alpha virt. eigenvalues --    1.47768   1.47928   1.48391   1.48634   1.49852
 Alpha virt. eigenvalues --    1.50609   1.51040   1.51377   1.52718   1.53470
 Alpha virt. eigenvalues --    1.53859   1.55449   1.55732   1.57098   1.57472
 Alpha virt. eigenvalues --    1.58028   1.58572   1.59285   1.59918   1.60838
 Alpha virt. eigenvalues --    1.61125   1.62341   1.62872   1.63012   1.63364
 Alpha virt. eigenvalues --    1.64333   1.65076   1.65796   1.66098   1.67360
 Alpha virt. eigenvalues --    1.67781   1.68529   1.69185   1.70022   1.70416
 Alpha virt. eigenvalues --    1.71025   1.71725   1.71903   1.72381   1.73011
 Alpha virt. eigenvalues --    1.74000   1.74262   1.74699   1.75231   1.75483
 Alpha virt. eigenvalues --    1.75698   1.76202   1.77004   1.77529   1.78130
 Alpha virt. eigenvalues --    1.78342   1.78994   1.79952   1.80656   1.81310
 Alpha virt. eigenvalues --    1.82077   1.82630   1.82788   1.83443   1.84260
 Alpha virt. eigenvalues --    1.84692   1.85357   1.85901   1.86648   1.87220
 Alpha virt. eigenvalues --    1.88011   1.88397   1.89274   1.89799   1.90664
 Alpha virt. eigenvalues --    1.90852   1.91767   1.91863   1.92338   1.92658
 Alpha virt. eigenvalues --    1.93398   1.93831   1.94305   1.94860   1.95375
 Alpha virt. eigenvalues --    1.96101   1.96681   1.97271   1.97984   1.98874
 Alpha virt. eigenvalues --    1.99043   2.00223   2.01029   2.01646   2.02671
 Alpha virt. eigenvalues --    2.02746   2.03327   2.03969   2.04115   2.05043
 Alpha virt. eigenvalues --    2.06613   2.07311   2.08125   2.08403   2.09146
 Alpha virt. eigenvalues --    2.09635   2.09883   2.11237   2.12934   2.13573
 Alpha virt. eigenvalues --    2.14012   2.14842   2.15305   2.16133   2.16416
 Alpha virt. eigenvalues --    2.17908   2.18012   2.18853   2.19054   2.20724
 Alpha virt. eigenvalues --    2.21238   2.21746   2.22269   2.23120   2.24054
 Alpha virt. eigenvalues --    2.24488   2.24566   2.25281   2.26088   2.26367
 Alpha virt. eigenvalues --    2.26977   2.27186   2.28099   2.28816   2.28889
 Alpha virt. eigenvalues --    2.29943   2.30415   2.30850   2.31898   2.32592
 Alpha virt. eigenvalues --    2.32881   2.34155   2.34519   2.34894   2.36117
 Alpha virt. eigenvalues --    2.36738   2.37192   2.37605   2.38231   2.38537
 Alpha virt. eigenvalues --    2.39518   2.40225   2.40929   2.41347   2.42246
 Alpha virt. eigenvalues --    2.42985   2.43612   2.44261   2.45422   2.46074
 Alpha virt. eigenvalues --    2.46444   2.48081   2.48485   2.49705   2.50443
 Alpha virt. eigenvalues --    2.51168   2.52620   2.53800   2.54858   2.55734
 Alpha virt. eigenvalues --    2.55942   2.57619   2.58534   2.59725   2.60694
 Alpha virt. eigenvalues --    2.61051   2.61700   2.62110   2.63770   2.65398
 Alpha virt. eigenvalues --    2.66098   2.66926   2.67666   2.69602   2.70045
 Alpha virt. eigenvalues --    2.71013   2.72281   2.74133   2.74944   2.76181
 Alpha virt. eigenvalues --    2.77899   2.79459   2.80344   2.81065   2.84319
 Alpha virt. eigenvalues --    2.86302   2.86608   2.87522   2.88730   2.91602
 Alpha virt. eigenvalues --    2.91836   2.92727   2.93682   2.94726   2.94953
 Alpha virt. eigenvalues --    2.96754   2.97852   2.98495   3.00628   3.00965
 Alpha virt. eigenvalues --    3.01859   3.06056   3.07316   3.07859   3.09552
 Alpha virt. eigenvalues --    3.11465   3.12622   3.13293   3.17291   3.17615
 Alpha virt. eigenvalues --    3.18900   3.23436   3.25231   3.27106   3.29103
 Alpha virt. eigenvalues --    3.32664   3.33592   3.35126   3.38100   3.39272
 Alpha virt. eigenvalues --    3.41544   3.43104   3.48614   3.53798   3.57133
 Alpha virt. eigenvalues --    3.68675   3.71298   3.72414   3.73134   3.74631
 Alpha virt. eigenvalues --    3.76036   3.78748   3.80259   3.80416   3.81553
 Alpha virt. eigenvalues --    3.82345   3.84106   3.84723   3.86872   3.91221
 Alpha virt. eigenvalues --    3.91360   3.91830   3.94434   3.97195   4.01220
 Alpha virt. eigenvalues --    4.05842   4.07878   4.12353   4.14953   4.18392
 Alpha virt. eigenvalues --    4.23540   4.24882   4.30051   4.34196   4.37781
 Alpha virt. eigenvalues --    4.58622   4.70072   5.19263
          Condensed to atoms (all electrons):
 Mulliken charges:
               1
     1  H    0.224853
     2  O   -0.770267
     3  C    1.294424
     4  C    0.192173
     5  O   -0.721631
     6  C    0.591366
     7  H    0.062701
     8  H   -0.111948
     9  C   -0.190578
    10  C   -0.606079
    11  C    1.117808
    12  C   -0.065895
    13  N   -1.064203
    14  C    0.600540
    15  H   -0.691689
    16  C    0.497156
    17  C    1.221326
    18  C   -0.334542
    19  H   -0.100082
    20  H    0.170179
    21  H    0.237142
    22  O   -1.155571
    23  C    0.474167
    24  H   -0.537958
    25  C    1.281460
    26  O   -0.789968
    27  C    0.844146
    28  H   -0.836225
    29  C    1.032838
    30  C    0.349186
    31  H   -0.045945
    32  H   -0.338083
    33  H   -0.036617
    34  H   -0.699859
    35  C    0.414960
    36  H   -0.671332
    37  C    0.761958
    38  H   -0.464995
    39  C   -0.371192
    40  H   -0.411392
    41  Cl  -0.352332
 Sum of Mulliken charges =  -0.00000
 Mulliken charges with hydrogens summed into heavy atoms:
               1
     2  O   -0.545414
     3  C    1.294424
     4  C    0.142927
     5  O   -0.721631
     6  C    0.591366
     9  C   -0.190578
    10  C   -0.606079
    11  C    0.426119
    12  C   -0.065895
    13  N   -1.064203
    14  C    0.907780
    16  C    0.497156
    17  C    0.683368
    18  C   -0.334542
    22  O   -1.155571
    23  C   -0.362058
    25  C    1.281460
    26  O   -0.789968
    27  C    0.423501
    29  C    0.332979
    30  C   -0.322146
    35  C   -0.050035
    37  C    0.350567
    39  C   -0.371192
    41  Cl  -0.352332
 Electronic spatial extent (au):  <R**2>=          11465.7272
 Charge=             -0.0000 electrons
 Dipole moment (field-independent basis, Debye):
    X=              1.7085    Y=              2.8287    Z=             -4.3681  Tot=              5.4773
 Unable to Open any file for archive entry.
 1\1\GINC-SE159\Stability\RHF\Aug-CC-pVDZ\C19H16Cl1N1O4\OHZDE\08-Apr-20
 25\0\\#t hf aug-cc-pvdz symm=none int=(grid=ultrafine) guess=(read,tch
 eck) stable=(opt,rrhf)\\title\\0,1\H,0,-6.1721,-0.81296,-1.2692\O,0,-6
 .13234,-1.10371,-0.33853\C,0,-4.82275,-1.23304,0.04333\C,0,-3.80514,-0
 .97181,-1.07535\O,0,-4.5505,-1.56608,1.16767\C,0,-2.41235,-0.76335,-0.
 59088\H,0,-3.86397,-1.84041,-1.75437\H,0,-4.1309,-0.10027,-1.66829\C,0
 ,-1.82489,0.51779,-0.29109\C,0,-1.48379,-1.73672,-0.31097\C,0,-2.33361
 ,1.81774,-0.32727\C,0,-0.4962,0.28215,0.14731\N,0,-0.28741,-1.11653,0.
 11159\C,0,-1.61946,-3.21021,-0.45079\H,0,-3.35565,2.03201,-0.64298\C,0
 ,-1.51778,2.8748,0.08857\C,0,0.30186,1.32861,0.6003\C,0,0.86129,-1.818
 56,0.5336\H,0,-2.5293,-3.44175,-1.01986\H,0,-0.75853,-3.65736,-0.96678
 \H,0,-1.69232,-3.69954,0.52997\O,0,-2.0813,4.1218,0.02041\C,0,-0.21299
 ,2.62787,0.55846\H,0,1.3059,1.16497,0.98612\C,0,2.18111,-1.17762,0.270
 56\O,0,0.78123,-2.92931,1.04139\C,0,-1.30136,5.22228,0.47178\H,0,0.413
 3,3.44655,0.90741\C,0,2.42848,-0.43249,-0.89161\C,0,3.23318,-1.43231,1
 .16129\H,0,-0.37921,5.33732,-0.12303\H,0,-1.93066,6.10974,0.33935\H,0,
 -1.03481,5.1201,1.53735\H,0,1.6186,-0.24013,-1.59594\C,0,3.70308,0.059
 43,-1.15841\H,0,3.03751,-2.03841,2.04662\C,0,4.50554,-0.92397,0.91981\
 H,0,3.90567,0.62691,-2.06616\C,0,4.73075,-0.18088,-0.24264\H,0,5.32364
 ,-1.10339,1.61674\Cl,0,6.31931,0.44898,-0.55892\\Version=ES64L-G16RevC
 .01\HF=-1542.3595573\RMSD=6.949e-09\Dipole=0.6721842,1.1128875,-1.7185
 484\Quadrupole=-6.3398612,3.5103517,2.8295095,-1.4353021,19.6477551,7.
 7893626\PG=Unknown\\@
 The archive entry for this job was punched.


 "WOULD YOU TELL ME PLEASE, WHICH WAY I OUGHT TO WALK FROM HERE?"
 "THAT DEPENDS A GREAT DEAL ON WHERE YOU WANT TO GO," SAID THE CAT.
 "I DON'T MUCH CARE WHERE -- ", SAID ALICE.
 "THEN IT DOESN'T MATTER WHICH WAY YOU WALK," SAID THE CAT.

                                      -- LEWIS CARROLL
 Job cpu time:       0 days 10 hours 24 minutes 13.4 seconds.
 Elapsed time:       0 days  0 hours 40 minutes 30.1 seconds.
 File lengths (MBytes):  RWF=   2284 Int=      0 D2E=      0 Chk=     67 Scr=      1
 Normal termination of Gaussian 16 at Tue Apr  8 19:02:11 2025.
 Initial command:
 /arc/software/Gaussian/g16.c01/l1.exe "/tmp/slurm/4832548/Gau-1268366.inp" -scrdir="/tmp/slurm/4832548/"
 Entering Link 1 = /arc/software/Gaussian/g16.c01/l1.exe PID=   1292751.
  
 Copyright (c) 1988-2019, Gaussian, Inc.  All Rights Reserved.
  
 This is part of the Gaussian(R) 16 program.  It is based on
 the Gaussian(R) 09 system (copyright 2009, Gaussian, Inc.),
 the Gaussian(R) 03 system (copyright 2003, Gaussian, Inc.),
 the Gaussian(R) 98 system (copyright 1998, Gaussian, Inc.),
 the Gaussian(R) 94 system (copyright 1995, Gaussian, Inc.),
 the Gaussian 92(TM) system (copyright 1992, Gaussian, Inc.),
 the Gaussian 90(TM) system (copyright 1990, Gaussian, Inc.),
 the Gaussian 88(TM) system (copyright 1988, Gaussian, Inc.),
 the Gaussian 86(TM) system (copyright 1986, Carnegie Mellon
 University), and the Gaussian 82(TM) system (copyright 1983,
 Carnegie Mellon University). Gaussian is a federally registered
 trademark of Gaussian, Inc.
  
 This software contains proprietary and confidential information,
 including trade secrets, belonging to Gaussian, Inc.
  
 This software is provided under written license and may be
 used, copied, transmitted, or stored only in accord with that
 written license.
  
 The following legend is applicable only to US Government
 contracts under FAR:
  
                    RESTRICTED RIGHTS LEGEND
  
 Use, reproduction and disclosure by the US Government is
 subject to restrictions as set forth in subparagraphs (a)
 and (c) of the Commercial Computer Software - Restricted
 Rights clause in FAR 52.227-19.
  
 Gaussian, Inc.
 340 Quinnipiac St., Bldg. 40, Wallingford CT 06492
  
  
 ---------------------------------------------------------------
 Warning -- This program may not be used in any manner that
 competes with the business of Gaussian, Inc. or will provide
 assistance to any competitor of Gaussian, Inc.  The licensee
 of this program is prohibited from giving any competitor of
 Gaussian, Inc. access to this program.  By using this program,
 the user acknowledges that Gaussian, Inc. is engaged in the
 business of creating and licensing software in the field of
 computational chemistry and represents and warrants to the
 licensee that it is not a competitor of Gaussian, Inc. and that
 it will not use this program in any manner prohibited above.
 ---------------------------------------------------------------
  

 Cite this work as:
 Gaussian 16, Revision C.01,
 M. J. Frisch, G. W. Trucks, H. B. Schlegel, G. E. Scuseria, 
 M. A. Robb, J. R. Cheeseman, G. Scalmani, V. Barone, 
 G. A. Petersson, H. Nakatsuji, X. Li, M. Caricato, A. V. Marenich, 
 J. Bloino, B. G. Janesko, R. Gomperts, B. Mennucci, H. P. Hratchian, 
 J. V. Ortiz, A. F. Izmaylov, J. L. Sonnenberg, D. Williams-Young, 
 F. Ding, F. Lipparini, F. Egidi, J. Goings, B. Peng, A. Petrone, 
 T. Henderson, D. Ranasinghe, V. G. Zakrzewski, J. Gao, N. Rega, 
 G. Zheng, W. Liang, M. Hada, M. Ehara, K. Toyota, R. Fukuda, 
 J. Hasegawa, M. Ishida, T. Nakajima, Y. Honda, O. Kitao, H. Nakai, 
 T. Vreven, K. Throssell, J. A. Montgomery, Jr., J. E. Peralta, 
 F. Ogliaro, M. J. Bearpark, J. J. Heyd, E. N. Brothers, K. N. Kudin, 
 V. N. Staroverov, T. A. Keith, R. Kobayashi, J. Normand, 
 K. Raghavachari, A. P. Rendell, J. C. Burant, S. S. Iyengar, 
 J. Tomasi, M. Cossi, J. M. Millam, M. Klene, C. Adamo, R. Cammi, 
 J. W. Ochterski, R. L. Martin, K. Morokuma, O. Farkas, 
 J. B. Foresman, and D. J. Fox, Gaussian, Inc., Wallingford CT, 2019.
 
 ******************************************
 Gaussian 16:  ES64L-G16RevC.01  3-Jul-2019
                 8-Apr-2025 
 ******************************************
 %nprocs=16
 Will use up to   16 processors via shared memory.
 %mem=30GB
 %chk=37Conf8_Indometacin_7_mol1.chk
 ----------------------------------------------------------------------
 #t hf aug-cc-pvdz iop(5/13=1,5/36=2,99/5=2) pseudo=read geom=check gue
 ss=(read,tcheck) scf=(maxcycle=1)
 ----------------------------------------------------------------------
 -----
 title
 -----
 Structure from the checkpoint file:  "37Conf8_Indometacin_7_mol1.chk"
 Charge =  0 Multiplicity = 1
 Z-Matrix found in chk file.
 H,0,-6.1721,-0.81296,-1.2692
 O,0,-6.13234,-1.10371,-0.33853
 C,0,-4.82275,-1.23304,0.04333
 C,0,-3.80514,-0.97181,-1.07535
 O,0,-4.5505,-1.56608,1.16767
 C,0,-2.41235,-0.76335,-0.59088
 H,0,-3.86397,-1.84041,-1.75437
 H,0,-4.1309,-0.10027,-1.66829
 C,0,-1.82489,0.51779,-0.29109
 C,0,-1.48379,-1.73672,-0.31097
 C,0,-2.33361,1.81774,-0.32727
 C,0,-0.4962,0.28215,0.14731
 N,0,-0.28741,-1.11653,0.11159
 C,0,-1.61946,-3.21021,-0.45079
 H,0,-3.35565,2.03201,-0.64298
 C,0,-1.51778,2.8748,0.08857
 C,0,0.30186,1.32861,0.6003
 C,0,0.86129,-1.81856,0.5336
 H,0,-2.5293,-3.44175,-1.01986
 H,0,-0.75853,-3.65736,-0.96678
 H,0,-1.69232,-3.69954,0.52997
 O,0,-2.0813,4.1218,0.02041
 C,0,-0.21299,2.62787,0.55846
 H,0,1.3059,1.16497,0.98612
 C,0,2.18111,-1.17762,0.27056
 O,0,0.78123,-2.92931,1.04139
 C,0,-1.30136,5.22228,0.47178
 H,0,0.4133,3.44655,0.90741
 C,0,2.42848,-0.43249,-0.89161
 C,0,3.23318,-1.43231,1.16129
 H,0,-0.37921,5.33732,-0.12303
 H,0,-1.93066,6.10974,0.33935
 H,0,-1.03481,5.1201,1.53735
 H,0,1.6186,-0.24013,-1.59594
 C,0,3.70308,0.05943,-1.15841
 H,0,3.03751,-2.03841,2.04662
 C,0,4.50554,-0.92397,0.91981
 H,0,3.90567,0.62691,-2.06616
 C,0,4.73075,-0.18088,-0.24264
 H,0,5.32364,-1.10339,1.61674
 Cl,0,6.31931,0.44898,-0.55892
 Recover connectivity data from disk.
                    Distance matrix (angstroms):
                    1          2          3          4          5
     1  H    0.000000
     2  O    0.975840   0.000000
     3  C    1.928717   1.370244   0.000000
     4  C    2.380191   2.444619   1.534671   0.000000
     5  O    3.022435   2.232631   1.203817   2.437182   0.000000
     6  C    3.820772   3.744042   2.536308   1.489305   2.882457
     7  H    2.572646   2.773596   2.126002   1.104081   3.014116
     8  H    2.198567   2.604019   2.165980   1.103304   3.219834
     9  C    4.650358   4.602786   3.487751   2.599108   3.728196
    10  C    4.873581   4.691533   3.395273   2.560865   3.408842
    11  C    4.747823   4.792217   3.954797   3.241391   4.312735
    12  C    5.951605   5.824322   4.585373   3.743848   4.571043
    13  N    6.052133   5.862250   4.537350   3.715400   4.414899
    14  C    5.209907   4.981569   3.796633   3.190252   3.730090
    15  H    4.051962   4.199457   3.644716   3.067885   4.201473
    16  C    6.091454   6.107792   5.272497   4.624190   5.484821
    17  C    7.070609   6.942371   5.756205   4.996717   5.678603
    18  C    7.330068   7.083959   5.735112   5.008121   5.454655
    19  H    4.499189   4.348855   3.356886   2.780549   3.519755
    20  H    6.122811   5.982780   4.838960   4.062733   4.827874
    21  H    5.624748   5.215976   4.014976   3.805466   3.623190
    22  O    6.538317   6.621610   6.015844   5.487912   6.305960
    23  C    7.119736   7.054643   6.035054   5.341402   6.064186
    24  H    8.057243   7.888537   6.648282   5.910856   6.464442
    25  C    8.501762   8.336060   7.007764   6.139138   6.802226
    26  O    7.626701   7.282475   5.939533   5.417304   5.504697
    27  C    7.948537   8.000820   7.365793   6.857789   7.557976
    28  H    8.139321   8.068620   7.075409   6.422498   7.059285
    29  C    8.617268   8.604887   7.354953   6.259604   7.364226
    30  C    9.733970   9.490543   8.135573   7.399498   7.784832
    31  H    8.526267   8.638971   7.933622   7.242170   8.168384
    32  H    8.276534   8.375410   7.897356   7.460791   8.152784
    33  H    8.334847   8.260723   7.546057   7.184170   7.563183
    34  H    7.818561   7.899615   6.720422   5.497574   6.888649
    35  C    9.914258   9.937836   8.706574   7.579164   8.727801
    36  H    9.864751   9.520964   8.151410   7.596459   7.653336
    37  C   10.900279  10.713553   9.374473   8.546950   9.082158
    38  H   10.211259  10.331573   9.170315   7.936889   9.315239
    39  C   10.969298  10.902639   9.615518   8.612804   9.489434
    40  H   11.856013  11.621642  10.268479   9.518366   9.895170
    41  Cl  12.575067  12.550020  11.284387  10.236690  11.189028
                    6          7          8          9         10
     6  C    0.000000
     7  H    2.149644   0.000000
     8  H    2.133987   1.762597   0.000000
     9  C    1.440938   3.443856   2.756150   0.000000
    10  C    1.374053   2.785572   3.395214   2.280254   0.000000
    11  C    2.595711   4.214342   2.950822   1.396415   3.654674
    12  C    2.304262   4.411748   4.080894   1.418851   2.293729
    13  N    2.265738   4.098486   4.355821   2.279692   1.412274
    14  C    2.575932   2.934876   4.178680   3.737070   1.486314
    15  H    2.950689   4.060691   2.489757   2.181723   4.221068
    16  C    3.807630   5.579807   4.331974   2.407063   4.628920
    17  C    3.627967   5.739451   5.180498   2.444396   3.662678
    18  C    3.618652   5.250082   5.720385   3.654341   2.493872
    19  H    2.715056   2.210235   3.761791   4.087206   2.121967
    20  H    3.354358   3.683119   4.951554   4.361830   2.155214
    21  H    3.224277   3.659322   4.871731   4.298556   2.145537
    22  O    4.934365   6.471144   4.987829   3.626523   5.898227
    23  C    4.202207   6.216459   5.267939   2.787901   4.628227
    24  H    4.475570   6.578005   6.181061   3.442667   4.229021
    25  C    4.691862   6.409573   6.690388   4.386103   3.752634
    26  O    4.189826   5.529906   6.282902   4.522152   2.895076
    27  C    6.179912   7.836090   6.396541   4.794610   7.005259
    28  H    5.287006   7.302880   6.313788   3.876020   5.652406
    29  C    4.861434   6.505499   6.613552   4.399410   4.164615
    30  C    5.948917   7.683564   8.000658   5.612163   4.950760
    31  H    6.447536   8.143994   6.784570   5.034491   7.162225
    32  H    6.952461   8.445486   6.887372   5.628370   7.886035
    33  H    6.406400   8.202943   6.863976   5.014846   7.115747
    34  H    4.187178   5.713543   5.751656   3.759614   3.676378
    35  C    6.196575   7.824628   7.852180   5.614338   5.554091
    36  H    6.187339   7.881444   8.303195   5.970090   5.107974
    37  C    7.082739   8.834014   9.053443   6.604490   6.168262
    38  H    6.635258   8.157952   8.079205   6.000175   6.141150
    39  C    7.175264   8.883050   8.975958   6.592943   6.406701
    40  H    8.052003   9.814263  10.059125   7.574267   7.103399
    41  Cl   8.815478  10.505694  10.523273   8.148893   8.107227
                   11         12         13         14         15
    11  C    0.000000
    12  C    2.441176   0.000000
    13  N    3.604091   1.414629   0.000000
    14  C    5.079916   3.716990   2.544430   0.000000
    15  H    1.090940   3.444274   4.460580   5.525592   0.000000
    16  C    1.398527   2.787276   4.176728   6.109713   2.150169
    17  C    2.836430   1.391826   2.562184   5.039558   3.926563
    18  C    4.916417   2.530807   1.410833   3.009956   5.830421
    19  H    5.308504   4.400365   3.422411   1.097843   5.548598
    20  H    5.732937   4.102408   2.800117   1.098813   6.262492
    21  H    5.620186   4.175043   2.969976   1.098473   6.082199
    22  O    2.343765   4.155906   5.537730   7.361637   2.535996
    23  C    2.436772   2.398261   3.771706   6.089328   3.416843
    24  H    3.923918   2.174980   2.916964   5.455698   5.013559
    25  C    5.450897   3.051902   2.474388   4.369908   6.464673
    26  O    5.840372   3.569969   2.300585   2.840567   6.675745
    27  C    3.646219   5.015820   6.429490   8.488770   3.954822
    28  H    3.423882   3.379108   4.684658   7.091493   4.313886
    29  C    5.297123   3.184936   2.974959   4.929084   6.292197
    30  C    6.615723   4.227979   3.687295   5.413672   7.659607
    31  H    4.030985   5.063745   6.458766   8.643258   4.478238
    32  H    4.362111   6.004612   7.414251   9.358559   4.429836
    33  H    4.008649   5.062418   6.441037   8.584205   4.435813
    34  H    4.632960   2.789996   2.704923   4.540680   5.551028
    35  C    6.342245   4.403233   4.349689   6.286549   7.347272
    36  H    7.025253   4.634596   3.955919   5.412720   8.042062
    37  C    7.473029   5.202777   4.864429   6.679900   8.542742
    38  H    6.585623   4.939106   5.036278   6.918090   7.531701
    39  C    7.342127   5.261888   5.116918   7.038845   8.393272
    40  H    8.422924   6.160315   5.809435   7.544535   9.500902
    41  Cl   8.763572   6.854033   6.822694   8.742164   9.803974
                   16         17         18         19         20
    16  C    0.000000
    17  C    2.442061   0.000000
    18  C    5.280687   3.197200   0.000000
    19  H    6.492349   5.778990   4.067442   0.000000
    20  H    6.660281   5.332923   2.873350   1.784638   0.000000
    21  H    6.591452   5.409620   3.171596   1.780158   1.764654
    22  O    1.370113   3.717208   6.649066   7.647886   7.952333
    23  C    1.408633   1.398177   4.574433   6.685557   6.490615
    24  H    3.420860   1.087994   3.050230   6.320964   5.597370
    25  C    5.489719   3.149841   1.490610   5.383255   4.040001
    26  O    6.315141   4.307463   1.223939   3.933314   2.633185
    27  C    2.388378   4.212778   7.365752   8.876837   9.011777
    28  H    2.174044   2.142990   5.297340   7.734465   7.439846
    29  C    5.241363   3.138436   2.531501   5.801006   4.534586
    30  C    6.501811   4.065713   2.483756   6.480852   5.041158
    31  H    2.721235   4.129990   7.292230   9.082910   9.042127
    32  H    3.270810   5.283128   8.407774   9.666270   9.923513
    33  H    2.715437   4.127971   7.262762   9.059696   9.131856
    34  H    4.730459   3.003035   2.756792   5.271367   4.209994
    35  C    6.061241   4.033879   3.803356   7.149826   5.810096
    36  H    6.980276   4.573013   2.659605   6.508612   5.109941
    37  C    7.169519   4.779867   3.772268   7.719489   6.224233
    38  H    6.253773   4.537603   4.691197   7.684893   6.427936
    39  C    6.963548   4.754385   4.272852   7.996604   6.537774
    40  H    8.060169   5.671512   4.647282   8.607453   7.084499
    41  Cl   8.229449   6.190900   6.010434   9.677197   8.192936
                   21         22         23         24         25
    21  H    0.000000
    22  O    7.847568   0.000000
    23  C    6.498103   2.451919   0.000000
    24  H    5.732439   4.598757   2.151743   0.000000
    25  C    4.629345   6.805481   4.505148   2.601105   0.000000
    26  O    2.640692   7.678192   5.666034   4.128131   2.371131
    27  C    8.930572   1.422356   2.814787   4.850166   7.288814
    28  H    7.459403   2.732354   1.088229   2.451232   4.991360
    29  C    5.447522   6.473906   4.294866   2.708862   1.402516
    30  C    5.458887   7.771322   5.359529   3.238975   1.401827
    31  H    9.155081   2.096467   2.798781   4.634470   7.011034
    32  H    9.814026   2.018990   3.888678   5.945114   8.367616
    33  H    8.901302   2.095913   2.800861   4.628805   7.183883
    34  H    5.239199   5.943760   4.027603   2.956200   2.163129
    35  C    6.789022   7.165997   4.987999   3.401132   2.426652
    36  H    5.237449   8.261715   5.878311   3.792727   2.151458
    37  C    6.802149   8.345968   5.916981   3.821749   2.426693
    38  H    7.536282   7.239602   5.277862   4.045334   3.419166
    39  C    7.364355   8.061407   5.742073   3.879531   2.785234
    40  H    7.559415   9.202392   6.759921   4.656756   3.419533
    41  Cl   9.087470   9.186701   6.976177   5.294721   4.523114
                   26         27         28         29         30
    26  O    0.000000
    27  C    8.432678   0.000000
    28  H    6.387872   2.506601   0.000000
    29  C    3.561465   6.909918   4.726984   0.000000
    30  C    2.875316   8.082144   5.640873   2.421070   0.000000
    31  H    8.428503   1.103356   2.294535   6.462549   7.779893
    32  H    9.463172   1.095966   3.592968   7.957269   9.177328
    33  H    8.266618   1.103145   2.301003   6.980364   7.828872
    34  H    3.858547   6.529897   4.616397   1.090408   3.410349
    35  C    4.723229   7.372717   5.153916   1.392039   2.797696
    36  H    2.625831   8.603693   6.186199   3.403394   1.090621
    37  C    4.231626   8.467420   5.987322   2.799459   1.391266
    38  H    5.662658   7.394033   5.384156   2.164252   3.887038
    39  C    4.980091   8.129630   5.755105   2.405185   2.404124
    40  H    4.929351   9.231233   6.731756   3.888943   2.164635
    41  Cl   6.681629   9.051041   6.783547   4.003277   4.002821
                   31         32         33         34         35
    31  H    0.000000
    32  H    1.793718   0.000000
    33  H    1.798293   1.793638   0.000000
    34  H    6.104806   7.527512   6.752048   0.000000
    35  C    6.752276   8.401700   7.438085   2.150866   0.000000
    36  H    8.413248   9.694835   8.251510   4.302948   3.887947
    37  C    8.009498   9.551685   8.222385   3.889866   2.435162
    38  H    6.657621   8.361259   7.588306   2.490694   1.089535
    39  C    7.521737   9.180686   8.031839   3.394173   1.397315
    40  H    8.776790  10.309502   8.897641   4.979343   3.417576
    41  Cl   8.303977  10.045551   8.960848   4.862814   2.712157
                   36         37         38         39         40
    36  H    0.000000
    37  C    2.160275   0.000000
    38  H    4.977207   3.417761   0.000000
    39  C    3.399734   1.397924   2.158357   0.000000
    40  H    2.507080   1.089583   4.309098   2.158666   0.000000
    41  Cl   4.873003   2.713189   2.851156   1.737895   2.852141
                   41
    41  Cl   0.000000
 Framework group  C1[X(C19H16ClNO4)]
 Deg. of freedom   117
                         Standard orientation:                         
 ---------------------------------------------------------------------
 Center     Atomic      Atomic             Coordinates (Angstroms)
 Number     Number       Type             X           Y           Z
 ---------------------------------------------------------------------
      1          1           0       -6.172101   -0.812960   -1.269200
      2          8           0       -6.132341   -1.103710   -0.338530
      3          6           0       -4.822751   -1.233041    0.043330
      4          6           0       -3.805141   -0.971811   -1.075350
      5          8           0       -4.550501   -1.566081    1.167670
      6          6           0       -2.412351   -0.763351   -0.590880
      7          1           0       -3.863971   -1.840411   -1.754370
      8          1           0       -4.130901   -0.100271   -1.668290
      9          6           0       -1.824891    0.517789   -0.291090
     10          6           0       -1.483791   -1.736721   -0.310970
     11          6           0       -2.333610    1.817739   -0.327270
     12          6           0       -0.496201    0.282149    0.147310
     13          7           0       -0.287411   -1.116531    0.111590
     14          6           0       -1.619461   -3.210211   -0.450790
     15          1           0       -3.355650    2.032009   -0.642980
     16          6           0       -1.517780    2.874799    0.088570
     17          6           0        0.301860    1.328609    0.600300
     18          6           0        0.861289   -1.818561    0.533600
     19          1           0       -2.529301   -3.441751   -1.019860
     20          1           0       -0.758531   -3.657361   -0.966780
     21          1           0       -1.692321   -3.699541    0.529970
     22          8           0       -2.081300    4.121799    0.020410
     23          6           0       -0.212990    2.627869    0.558460
     24          1           0        1.305900    1.164969    0.986120
     25          6           0        2.181109   -1.177621    0.270560
     26          8           0        0.781229   -2.929311    1.041390
     27          6           0       -1.301360    5.222279    0.471780
     28          1           0        0.413300    3.446549    0.907410
     29          6           0        2.428479   -0.432491   -0.891610
     30          6           0        3.233179   -1.432311    1.161290
     31          1           0       -0.379210    5.337319   -0.123030
     32          1           0       -1.930660    6.109739    0.339350
     33          1           0       -1.034810    5.120099    1.537350
     34          1           0        1.618599   -0.240131   -1.595940
     35          6           0        3.703079    0.059429   -1.158410
     36          1           0        3.037509   -2.038411    2.046620
     37          6           0        4.505539   -0.923971    0.919810
     38          1           0        3.905669    0.626909   -2.066160
     39          6           0        4.730749   -0.180881   -0.242640
     40          1           0        5.323639   -1.103392    1.616740
     41         17           0        6.319309    0.448978   -0.558920
 ---------------------------------------------------------------------
 Rotational constants (GHZ):           0.2993494           0.1145241           0.0877825
 ======================================================================================================
                                       Pseudopotential Parameters
 ======================================================================================================
  Center     Atomic      Valence      Angular      Power
  Number     Number     Electrons     Momentum     of R      Exponent        Coefficient   SO-Coeffient
 ======================================================================================================
    1          1            1
                                      F and up 
                                                     0        0.0000010        0.00072061    0.00000000
                                                     2        0.1200000        0.03832357    0.00000000
                                                     2        0.1400000       -0.08683256    0.00000000
                                                     2        0.1800000        0.09312970    0.00000000
                                                     2        0.2800000       -0.02532572    0.00000000
                                                     2        0.4000000       -0.09430787    0.00000000
                                                     2        0.7000000        0.42710831    0.00000000
                                                     2        1.2000000       -2.11746981    0.00000000
                                      S - F
                                                     0        0.0000010        0.14449603    0.00000000
                                                     2        0.1200000       -0.56378993    0.00000000
                                                     2        0.1400000        0.63941249    0.00000000
                                                     2        0.2600000       -0.58461015    0.00000000
                                                     2        0.5000000        1.00157293    0.00000000
                                                     2        1.8000000       -0.14135838    0.00000000
                                      P - F
                                                     0        0.0000010       -0.09353646    0.00000000
                                                     2        0.1200000        0.31768975    0.00000000
                                                     2        0.2000000       -0.71747951    0.00000000
                                                     2        0.4000000        0.65752308    0.00000000
                                                     2        1.7000000        2.94052587    0.00000000
                                      D - F
                                                     0        0.0000010       -0.04491202    0.00000000
                                                     2        0.1200000       -0.02862031    0.00000000
                                                     2        0.1800000       -0.21515263    0.00000000
                                                     2        0.3000000        0.80560647    0.00000000
                                                     2        0.4000000        0.47351754    0.00000000
                                                     2        0.7000000       -4.57051794    0.00000000
                                                     2        1.6000000       18.53737826    0.00000000
    2          8            8
                                      G and up 
                                                     0        0.0000010       -0.00165251    0.00000000
                                                     2        0.1200000       -0.10937202    0.00000000
                                                     2        0.1400000        0.35668905    0.00000000
                                                     2        0.1800000       -0.51696033    0.00000000
                                                     2        0.2400000        0.52446472    0.00000000
                                                     2        0.4000000       -0.07754493    0.00000000
                                                     2        0.8000000       -1.90560988    0.00000000
                                                     2        1.7000000        0.19857963    0.00000000
                                      S - G
                                                     0        0.0000010       -0.03845181    0.00000000
                                                     2        0.1400000        0.42024558    0.00000000
                                                     2        0.4000000       -4.10467779    0.00000000
                                                     2        1.3000000        9.99571838    0.00000000
                                      P - G
                                                     0        0.0000010        0.33206183    0.00000000
                                                     2        0.1200000       -0.18708141    0.00000000
                                                     2        0.2800000       -0.18179081    0.00000000
                                                     2        0.7000000        1.18820394    0.00000000
                                      D - G
                                                     0        0.0000010       -0.57891674    0.00000000
                                                     2        0.1200000        0.60487490    0.00000000
                                                     2        0.2400000       -0.24931464    0.00000000
                                                     2        0.3000000       -2.75054612    0.00000000
                                                     2        1.0000000       15.96776040    0.00000000
                                      F - G
                                                     0        0.0000010        0.37449041    0.00000000
                                                     2        0.1200000       -0.63373642    0.00000000
                                                     2        0.1400000       -0.08412804    0.00000000
                                                     2        0.2800000        2.62321406    0.00000000
                                                     2        0.6000000       -2.68223623    0.00000000
    3          6            6
                                      G and up 
                                                     0        0.0000010       -0.00286759    0.00000000
                                                     2        0.1200000        0.03193960    0.00000000
                                                     2        0.1600000       -0.04027782    0.00000000
                                                     2        0.2600000        0.24782456    0.00000000
                                                     2        0.4000000       -0.62266671    0.00000000
                                                     2        0.7000000        0.35695227    0.00000000
                                      S - G
                                                     0        0.0000010       -0.06602313    0.00000000
                                                     2        0.1200000        1.47277455    0.00000000
                                                     2        0.1600000       -4.06924166    0.00000000
                                                     2        0.3000000        5.02952802    0.00000000
                                                     2        0.7000000       -5.65856978    0.00000000
                                                     2        1.7000000        8.57604414    0.00000000
                                      P - G
                                                     0        0.0000010        0.49434425    0.00000000
                                                     2        0.1200000       -1.37391547    0.00000000
                                                     2        0.1600000        3.65411806    0.00000000
                                                     2        0.2800000       -7.36479843    0.00000000
                                                     2        0.6000000       17.22091285    0.00000000
[...]
 LDataN:  DoStor=T MaxTD1= 6 Len=  172
 Initial guess from the checkpoint file:  "37Conf8_Indometacin_7_mol1.chk"
 B after Tr=    -0.000001   -0.000002    0.000000
         Rot=    1.000000   -0.000000   -0.000000    0.000000 Ang=   0.00 deg.
 >>>>>>>>>> Convergence criterion not met.
 SCF Done:  E(RHF) =  -1547.54156778     A.U. after    2 cycles
            NFock=  1  Conv=0.42D+01     -V/T= 2.0050

 **********************************************************************

            Population analysis using the SCF Density.

 **********************************************************************

 Orbital symmetries:
       Occupied  (A) (A) (A) (A) (A) (A) (A) (A) (A) (A) (A) (A)
                 (A) (A) (A) (A) (A) (A) (A) (A) (A) (A) (A) (A)
                 (A) (A) (A) (A) (A) (A) (A) (A) (A) (A) (A) (A)
                 (A) (A) (A) (A) (A) (A) (A) (A) (A) (A) (A) (A)
                 (A) (A) (A) (A) (A) (A) (A) (A) (A) (A) (A) (A)
                 (A) (A) (A) (A) (A) (A) (A) (A) (A) (A) (A) (A)
                 (A) (A) (A) (A) (A) (A) (A) (A) (A) (A) (A) (A)
                 (A) (A) (A) (A) (A) (A) (A) (A) (A)
       Virtual   (A) (A) (A) (A) (A) (A) (A) (A) (A) (A) (A) (A)
                 (A) (A) (A) (A) (A) (A) (A) (A) (A) (A) (A) (A)
                 (A) (A) (A) (A) (A) (A) (A) (A) (A) (A) (A) (A)
                 (A) (A) (A) (A) (A) (A) (A) (A) (A) (A) (A) (A)
                 (A) (A) (A) (A) (A) (A) (A) (A) (A) (A) (A) (A)
                 (A) (A) (A) (A) (A) (A) (A) (A) (A) (A) (A) (A)
                 (A) (A) (A) (A) (A) (A) (A) (A) (A) (A) (A) (A)
                 (A) (A) (A) (A) (A) (A) (A) (A) (A) (A) (A) (A)
                 (A) (A) (A) (A) (A) (A) (A) (A) (A) (A) (A) (A)
                 (A) (A) (A) (A) (A) (A) (A) (A) (A) (A) (A) (A)
                 (A) (A) (A) (A) (A) (A) (A) (A) (A) (A) (A) (A)
                 (A) (A) (A) (A) (A) (A) (A) (A) (A) (A) (A) (A)
                 (A) (A) (A) (A) (A) (A) (A) (A) (A) (A) (A) (A)
                 (A) (A) (A) (A) (A) (A) (A) (A) (A) (A) (A) (A)
                 (A) (A) (A) (A) (A) (A) (A) (A) (A) (A) (A) (A)
                 (A) (A) (A) (A) (A) (A) (A) (A) (A) (A) (A) (A)
                 (A) (A) (A) (A) (A) (A) (A) (A) (A) (A) (A) (A)
                 (A) (A) (A) (A) (A) (A) (A) (A) (A) (A) (A) (A)
                 (A) (A) (A) (A) (A) (A) (A) (A) (A) (A) (A) (A)
                 (A) (A) (A) (A) (A) (A) (A) (A) (A) (A) (A) (A)
                 (A) (A) (A) (A) (A) (A) (A) (A) (A) (A) (A) (A)
                 (A) (A) (A) (A) (A) (A) (A) (A) (A) (A) (A) (A)
                 (A) (A) (A) (A) (A) (A) (A) (A) (A) (A) (A) (A)
                 (A) (A) (A) (A) (A) (A) (A) (A) (A) (A) (A) (A)
                 (A) (A) (A) (A) (A) (A) (A) (A) (A) (A) (A) (A)
                 (A) (A) (A) (A) (A) (A) (A) (A) (A) (A) (A) (A)
                 (A) (A) (A) (A) (A) (A) (A) (A) (A) (A) (A) (A)
                 (A) (A) (A) (A) (A) (A) (A) (A) (A) (A) (A) (A)
                 (A) (A) (A) (A) (A) (A) (A) (A) (A) (A) (A) (A)
                 (A) (A) (A) (A) (A) (A) (A) (A) (A) (A) (A) (A)
                 (A) (A) (A) (A) (A) (A) (A) (A) (A) (A) (A) (A)
                 (A) (A) (A) (A) (A) (A) (A) (A) (A) (A) (A) (A)
                 (A) (A) (A) (A) (A) (A) (A) (A) (A) (A) (A) (A)
                 (A) (A) (A) (A) (A) (A) (A) (A) (A) (A) (A) (A)
                 (A) (A) (A) (A) (A) (A) (A) (A) (A) (A) (A) (A)
                 (A) (A) (A) (A) (A) (A) (A) (A) (A) (A) (A) (A)
                 (A) (A) (A) (A) (A) (A) (A) (A) (A) (A) (A) (A)
                 (A) (A) (A) (A) (A) (A) (A) (A) (A) (A) (A) (A)
                 (A) (A) (A) (A) (A) (A) (A) (A) (A) (A) (A) (A)
                 (A) (A) (A) (A) (A) (A) (A) (A) (A) (A) (A) (A)
                 (A) (A) (A) (A) (A) (A) (A) (A) (A) (A) (A) (A)
                 (A) (A) (A) (A) (A) (A) (A) (A) (A) (A) (A) (A)
                 (A) (A) (A) (A) (A) (A) (A) (A) (A) (A) (A) (A)
                 (A) (A) (A) (A) (A) (A) (A) (A) (A) (A) (A) (A)
                 (A) (A) (A) (A) (A) (A) (A) (A) (A) (A) (A) (A)
                 (A) (A) (A) (A) (A) (A) (A) (A) (A) (A) (A) (A)
                 (A) (A) (A) (A) (A) (A) (A) (A) (A) (A) (A) (A)
                 (A) (A) (A) (A) (A) (A) (A) (A) (A) (A) (A) (A)
                 (A) (A) (A) (A) (A) (A) (A) (A) (A) (A) (A) (A)
                 (A) (A) (A) (A) (A) (A) (A) (A) (A) (A) (A) (A)
                 (A) (A) (A) (A) (A) (A) (A) (A) (A) (A) (A) (A)
                 (A) (A) (A) (A) (A) (A) (A) (A) (A) (A) (A) (A)
                 (A) (A) (A) (A)
 The electronic state is 1-A.
 Alpha  occ. eigenvalues --  -99.91045 -21.12487 -21.07537 -21.05905 -21.05202
 Alpha  occ. eigenvalues --  -15.78818 -11.56137 -11.55596 -11.55012 -11.54231
 Alpha  occ. eigenvalues --  -11.50890 -11.48791 -11.48460 -11.48039 -11.47631
 Alpha  occ. eigenvalues --  -11.46978 -11.46582 -11.46218 -11.44737 -11.44499
 Alpha  occ. eigenvalues --  -11.42264 -11.41859 -11.40939 -11.40350 -11.38679
 Alpha  occ. eigenvalues --  -10.48450  -9.68490  -9.67571  -9.67382  -1.81584
 Alpha  occ. eigenvalues --   -1.78608  -1.73373  -1.65109  -1.53102  -1.41885
 Alpha  occ. eigenvalues --   -1.30622  -1.28823  -1.23369  -1.13145  -1.12657
 Alpha  occ. eigenvalues --   -1.11948  -1.10890  -1.07945  -1.00104  -0.98876
 Alpha  occ. eigenvalues --   -0.93040  -0.90697  -0.87733  -0.85590  -0.82154
 Alpha  occ. eigenvalues --   -0.78829  -0.75672  -0.74057  -0.70613  -0.68745
 Alpha  occ. eigenvalues --   -0.68061  -0.66171  -0.64995  -0.64521  -0.64122
 Alpha  occ. eigenvalues --   -0.62446  -0.61708  -0.61203  -0.61076  -0.59454
 Alpha  occ. eigenvalues --   -0.58767  -0.58317  -0.56540  -0.56207  -0.54679
 Alpha  occ. eigenvalues --   -0.54073  -0.53554  -0.51763  -0.51112  -0.50538
 Alpha  occ. eigenvalues --   -0.50021  -0.49742  -0.49027  -0.47956  -0.46724
 Alpha  occ. eigenvalues --   -0.45077  -0.44679  -0.43365  -0.39634  -0.39210
 Alpha  occ. eigenvalues --   -0.36814  -0.36104  -0.34128  -0.33803  -0.30866
 Alpha  occ. eigenvalues --   -0.30087  -0.27679  -0.24835
 Alpha virt. eigenvalues --    0.02753   0.03899   0.04164   0.04569   0.04748
 Alpha virt. eigenvalues --    0.05189   0.05607   0.05984   0.06287   0.06446
 Alpha virt. eigenvalues --    0.06837   0.07087   0.07253   0.07575   0.07854
 Alpha virt. eigenvalues --    0.08335   0.08434   0.09124   0.09216   0.09736
 Alpha virt. eigenvalues --    0.10493   0.10617   0.10863   0.11145   0.11165
 Alpha virt. eigenvalues --    0.11548   0.12076   0.12534   0.12657   0.12905
 Alpha virt. eigenvalues --    0.13426   0.13584   0.13712   0.13831   0.14328
 Alpha virt. eigenvalues --    0.14383   0.14644   0.15073   0.15259   0.15940
 Alpha virt. eigenvalues --    0.16244   0.16367   0.16503   0.16694   0.16845
 Alpha virt. eigenvalues --    0.17029   0.17209   0.17487   0.17992   0.18286
 Alpha virt. eigenvalues --    0.18420   0.18840   0.19024   0.19106   0.19564
 Alpha virt. eigenvalues --    0.19795   0.19924   0.20186   0.20799   0.20903
 Alpha virt. eigenvalues --    0.21025   0.21470   0.21753   0.22046   0.22086
 Alpha virt. eigenvalues --    0.22637   0.22852   0.23155   0.23401   0.23747
 Alpha virt. eigenvalues --    0.24038   0.24328   0.24826   0.25015   0.25391
 Alpha virt. eigenvalues --    0.25582   0.26065   0.26300   0.26492   0.26782
 Alpha virt. eigenvalues --    0.27374   0.27827   0.27892   0.28354   0.28458
 Alpha virt. eigenvalues --    0.29208   0.29584   0.29875   0.30021   0.30375
 Alpha virt. eigenvalues --    0.30571   0.30885   0.31195   0.31715   0.31853
 Alpha virt. eigenvalues --    0.31909   0.32427   0.32610   0.32806   0.33046
 Alpha virt. eigenvalues --    0.33567   0.33828   0.34035   0.34154   0.34361
 Alpha virt. eigenvalues --    0.34805   0.34900   0.35494   0.35950   0.35974
 Alpha virt. eigenvalues --    0.36414   0.36833   0.37035   0.37302   0.37575
 Alpha virt. eigenvalues --    0.37694   0.37921   0.38506   0.38659   0.38874
 Alpha virt. eigenvalues --    0.39123   0.39210   0.39543   0.39757   0.39893
 Alpha virt. eigenvalues --    0.40191   0.40575   0.40676   0.41112   0.41233
 Alpha virt. eigenvalues --    0.41359   0.41782   0.42104   0.42458   0.42800
 Alpha virt. eigenvalues --    0.43696   0.43788   0.44174   0.44555   0.44846
 Alpha virt. eigenvalues --    0.45636   0.45665   0.45968   0.46356   0.46704
 Alpha virt. eigenvalues --    0.46971   0.47481   0.47719   0.48076   0.48274
 Alpha virt. eigenvalues --    0.48649   0.49156   0.49370   0.49644   0.50274
 Alpha virt. eigenvalues --    0.50479   0.50678   0.50928   0.51161   0.51784
 Alpha virt. eigenvalues --    0.52124   0.52791   0.53219   0.54185   0.54481
 Alpha virt. eigenvalues --    0.54574   0.55127   0.55564   0.56065   0.56598
 Alpha virt. eigenvalues --    0.56960   0.57038   0.57390   0.57656   0.58276
 Alpha virt. eigenvalues --    0.58673   0.59053   0.59402   0.60107   0.60858
 Alpha virt. eigenvalues --    0.60890   0.61879   0.61935   0.62185   0.62704
 Alpha virt. eigenvalues --    0.63277   0.63432   0.64107   0.64465   0.64498
 Alpha virt. eigenvalues --    0.64761   0.65053   0.65358   0.65526   0.65871
 Alpha virt. eigenvalues --    0.66071   0.66336   0.66902   0.67669   0.67769
 Alpha virt. eigenvalues --    0.68180   0.68251   0.68565   0.68861   0.69420
 Alpha virt. eigenvalues --    0.69588   0.70098   0.70163   0.70714   0.70961
 Alpha virt. eigenvalues --    0.71393   0.71646   0.71994   0.72130   0.72670
 Alpha virt. eigenvalues --    0.73130   0.73207   0.73633   0.73928   0.74564
 Alpha virt. eigenvalues --    0.74729   0.75300   0.75596   0.75727   0.76110
 Alpha virt. eigenvalues --    0.76385   0.76782   0.76957   0.77489   0.77960
 Alpha virt. eigenvalues --    0.78521   0.78737   0.79223   0.79335   0.79802
 Alpha virt. eigenvalues --    0.80682   0.81086   0.81227   0.81935   0.82169
 Alpha virt. eigenvalues --    0.82363   0.82781   0.83152   0.83325   0.83396
 Alpha virt. eigenvalues --    0.83800   0.84879   0.85212   0.85682   0.86318
 Alpha virt. eigenvalues --    0.86707   0.87203   0.87456   0.88098   0.88279
 Alpha virt. eigenvalues --    0.88534   0.89319   0.89797   0.90445   0.90798
 Alpha virt. eigenvalues --    0.91459   0.91991   0.92314   0.92869   0.93346
 Alpha virt. eigenvalues --    0.93988   0.94337   0.94671   0.95282   0.95788
 Alpha virt. eigenvalues --    0.96422   0.96730   0.97360   0.97992   0.98125
 Alpha virt. eigenvalues --    0.98517   0.98876   0.99811   0.99972   1.00432
 Alpha virt. eigenvalues --    1.00896   1.01410   1.01641   1.02471   1.02589
 Alpha virt. eigenvalues --    1.03057   1.04238   1.04614   1.05549   1.05919
 Alpha virt. eigenvalues --    1.06462   1.07036   1.07239   1.08241   1.09248
 Alpha virt. eigenvalues --    1.09420   1.09629   1.10653   1.11113   1.11448
 Alpha virt. eigenvalues --    1.12250   1.12584   1.13036   1.13581   1.14260
 Alpha virt. eigenvalues --    1.14597   1.15018   1.16114   1.16201   1.17085
 Alpha virt. eigenvalues --    1.17933   1.18511   1.19011   1.19679   1.19978
 Alpha virt. eigenvalues --    1.20367   1.21163   1.22268   1.22340   1.23035
 Alpha virt. eigenvalues --    1.23243   1.24508   1.24571   1.25389   1.26138
 Alpha virt. eigenvalues --    1.26528   1.27355   1.27813   1.29030   1.29310
 Alpha virt. eigenvalues --    1.29808   1.30405   1.31082   1.31241   1.32317
 Alpha virt. eigenvalues --    1.32809   1.33901   1.34751   1.34959   1.35519
 Alpha virt. eigenvalues --    1.36046   1.36343   1.37162   1.37535   1.39060
 Alpha virt. eigenvalues --    1.40181   1.42160   1.42637   1.42932   1.43752
 Alpha virt. eigenvalues --    1.44112   1.45851   1.46866   1.47819   1.49202
 Alpha virt. eigenvalues --    1.50628   1.51994   1.52708   1.53154   1.54631
 Alpha virt. eigenvalues --    1.54849   1.55679   1.57068   1.57604   1.59351
 Alpha virt. eigenvalues --    1.60413   1.60600   1.62234   1.62957   1.64482
 Alpha virt. eigenvalues --    1.65318   1.65775   1.67102   1.67516   1.69327
 Alpha virt. eigenvalues --    1.71302   1.71748   1.72201   1.73554   1.74493
 Alpha virt. eigenvalues --    1.75526   1.76097   1.76966   1.78146   1.78638
 Alpha virt. eigenvalues --    1.79840   1.80292   1.81317   1.82623   1.83083
 Alpha virt. eigenvalues --    1.83692   1.84285   1.84924   1.85810   1.86287
 Alpha virt. eigenvalues --    1.86862   1.87538   1.88085   1.89031   1.89787
 Alpha virt. eigenvalues --    1.90720   1.90865   1.91845   1.92245   1.92348
 Alpha virt. eigenvalues --    1.93291   1.94093   1.94744   1.95157   1.95475
 Alpha virt. eigenvalues --    1.95988   1.96901   1.97511   1.97914   1.98526
 Alpha virt. eigenvalues --    1.98617   1.99425   2.00296   2.01174   2.01540
 Alpha virt. eigenvalues --    2.02894   2.03115   2.03717   2.04522   2.05347
 Alpha virt. eigenvalues --    2.05687   2.06210   2.07198   2.07752   2.08153
 Alpha virt. eigenvalues --    2.08777   2.09882   2.10036   2.10528   2.11486
 Alpha virt. eigenvalues --    2.11940   2.13069   2.13770   2.14363   2.15086
 Alpha virt. eigenvalues --    2.16214   2.16481   2.17206   2.18308   2.18607
 Alpha virt. eigenvalues --    2.19254   2.19432   2.20542   2.21774   2.22463
 Alpha virt. eigenvalues --    2.22857   2.23275   2.23948   2.24797   2.25140
 Alpha virt. eigenvalues --    2.25806   2.27007   2.27688   2.28364   2.29628
 Alpha virt. eigenvalues --    2.29816   2.30329   2.30479   2.31199   2.33146
 Alpha virt. eigenvalues --    2.33794   2.34560   2.35191   2.35883   2.36034
 Alpha virt. eigenvalues --    2.36649   2.37497   2.38660   2.40187   2.40368
 Alpha virt. eigenvalues --    2.40986   2.41877   2.42849   2.43144   2.44704
 Alpha virt. eigenvalues --    2.45491   2.45765   2.46765   2.47250   2.47407
 Alpha virt. eigenvalues --    2.48027   2.49466   2.49612   2.51088   2.51600
 Alpha virt. eigenvalues --    2.52764   2.52984   2.53701   2.54051   2.54760
 Alpha virt. eigenvalues --    2.55322   2.56094   2.57418   2.58332   2.59368
 Alpha virt. eigenvalues --    2.60141   2.61022   2.61418   2.61887   2.63190
 Alpha virt. eigenvalues --    2.63734   2.64623   2.65761   2.66719   2.67979
 Alpha virt. eigenvalues --    2.68429   2.69869   2.70416   2.70753   2.70943
 Alpha virt. eigenvalues --    2.72844   2.73453   2.75282   2.75630   2.76776
 Alpha virt. eigenvalues --    2.76852   2.77850   2.79607   2.80236   2.80632
 Alpha virt. eigenvalues --    2.82237   2.83443   2.84504   2.85719   2.86605
 Alpha virt. eigenvalues --    2.86877   2.89683   2.90174   2.91649   2.92914
 Alpha virt. eigenvalues --    2.93522   2.95004   2.95959   2.96659   2.98390
 Alpha virt. eigenvalues --    2.99569   3.01917   3.02128   3.04711   3.04923
 Alpha virt. eigenvalues --    3.06700   3.08574   3.09573   3.09698   3.11715
 Alpha virt. eigenvalues --    3.13570   3.14900   3.16670   3.17705   3.19645
 Alpha virt. eigenvalues --    3.23155   3.23565   3.25303   3.27093   3.29234
 Alpha virt. eigenvalues --    3.30449   3.32547   3.35553   3.37388   3.39180
 Alpha virt. eigenvalues --    3.39593   3.41390   3.43300   3.44242   3.47232
 Alpha virt. eigenvalues --    3.49856   3.52691   3.54372   3.59410   3.59673
 Alpha virt. eigenvalues --    3.60279   3.61373   3.61754   3.64410   3.66511
 Alpha virt. eigenvalues --    3.67825   3.69315   3.70940   3.71745   3.74965
 Alpha virt. eigenvalues --    3.78773   3.81103   3.81667   3.83115   3.84242
 Alpha virt. eigenvalues --    3.86027   3.90749   3.91830   3.95614   3.98495
 Alpha virt. eigenvalues --    4.00727   4.03829   4.07486   4.08784   4.11309
 Alpha virt. eigenvalues --    4.12603   4.26518   4.33039   4.34347   4.37849
 Alpha virt. eigenvalues --    4.57703   4.76392   5.00251   6.00417   6.04196
 Alpha virt. eigenvalues --    6.07870   6.08853   6.09649   6.11536   6.12505
 Alpha virt. eigenvalues --    6.13295   6.16515   6.17984   6.21535   6.22187
 Alpha virt. eigenvalues --    6.25708   6.30801   6.30954   6.43246   6.50781
 Alpha virt. eigenvalues --    6.51954   6.54402   6.85020
          Condensed to atoms (all electrons):
 Mulliken charges:
               1
     1  H    1.063545
     2  O   -3.234023
     3  C    5.493834
     4  C   -3.421982
     5  O   -3.099825
     6  C    0.196166
     7  H    1.362674
     8  H    1.244469
     9  C    2.829113
    10  C    2.814943
    11  C   -0.088667
    12  C    1.689684
    13  N   -6.174862
    14  C   -5.277171
    15  H    2.065315
    16  C    5.988494
    17  C   -2.852413
    18  C    4.560167
    19  H    1.045931
    20  H    1.006376
    21  H    1.190662
    22  O   -5.113338
    23  C   -5.103698
    24  H    2.780604
    25  C    3.107797
    26  O   -3.754852
    27  C   -4.024337
    28  H    1.839380
    29  C   -1.458254
    30  C   -1.944860
    31  H    1.415902
    32  H    1.523294
    33  H    1.416758
    34  H    2.513928
    35  C   -1.901386
    36  H    1.786010
    37  C   -1.280891
    38  H    1.785968
    39  C   -2.905689
    40  H    1.797365
    41  Cl  -0.882131
 Sum of Mulliken charges =  -0.00000
 Mulliken charges with hydrogens summed into heavy atoms:
               1
     2  O   -2.170478
     3  C    5.493834
     4  C   -0.814839
     5  O   -3.099825
     6  C    0.196166
     9  C    2.829113
    10  C    2.814943
    11  C    1.976648
    12  C    1.689684
    13  N   -6.174862
    14  C   -2.034201
    16  C    5.988494
    17  C   -0.071808
    18  C    4.560167
    22  O   -5.113338
    23  C   -3.264319
    25  C    3.107797
    26  O   -3.754852
    27  C    0.331617
    29  C    1.055675
    30  C   -0.158850
    35  C   -0.115418
    37  C    0.516474
    39  C   -2.905689
    41  Cl  -0.882131
 Electronic spatial extent (au):  <R**2>=          11530.6929
 Charge=              0.0000 electrons
 Dipole moment (field-independent basis, Debye):
    X=             -0.1826    Y=              0.4763    Z=             -1.2835  Tot=              1.3812

 Test job not archived.
 1\1\GINC-SE159\SP\RHF\Aug-CC-pVDZ\C19H16Cl1N1O4\OHZDE\08-Apr-2025\0\\#
 t hf aug-cc-pvdz iop(5/13=1,5/36=2,99/5=2) pseudo=read geom=check gues
 s=(read,tcheck) scf=(maxcycle=1)\\title\\0,1\H,0,-6.1721,-0.81296,-1.2
 692\O,0,-6.13234,-1.10371,-0.33853\C,0,-4.82275,-1.23304,0.04333\C,0,-
 3.80514,-0.97181,-1.07535\O,0,-4.5505,-1.56608,1.16767\C,0,-2.41235,-0
 .76335,-0.59088\H,0,-3.86397,-1.84041,-1.75437\H,0,-4.1309,-0.10027,-1
 .66829\C,0,-1.82489,0.51779,-0.29109\C,0,-1.48379,-1.73672,-0.31097\C,
 0,-2.33361,1.81774,-0.32727\C,0,-0.4962,0.28215,0.14731\N,0,-0.28741,-
 1.11653,0.11159\C,0,-1.61946,-3.21021,-0.45079\H,0,-3.35565,2.03201,-0
 .64298\C,0,-1.51778,2.8748,0.08857\C,0,0.30186,1.32861,0.6003\C,0,0.86
 129,-1.81856,0.5336\H,0,-2.5293,-3.44175,-1.01986\H,0,-0.75853,-3.6573
 6,-0.96678\H,0,-1.69232,-3.69954,0.52997\O,0,-2.0813,4.1218,0.02041\C,
 0,-0.21299,2.62787,0.55846\H,0,1.3059,1.16497,0.98612\C,0,2.18111,-1.1
 7762,0.27056\O,0,0.78123,-2.92931,1.04139\C,0,-1.30136,5.22228,0.47178
 \H,0,0.4133,3.44655,0.90741\C,0,2.42848,-0.43249,-0.89161\C,0,3.23318,
 -1.43231,1.16129\H,0,-0.37921,5.33732,-0.12303\H,0,-1.93066,6.10974,0.
 33935\H,0,-1.03481,5.1201,1.53735\H,0,1.6186,-0.24013,-1.59594\C,0,3.7
 0308,0.05943,-1.15841\H,0,3.03751,-2.03841,2.04662\C,0,4.50554,-0.9239
 7,0.91981\H,0,3.90567,0.62691,-2.06616\C,0,4.73075,-0.18088,-0.24264\H
 ,0,5.32364,-1.10339,1.61674\Cl,0,6.31931,0.44898,-0.55892\\Version=ES6
 4L-G16RevC.01\State=1-A\HF=-1547.5415678\RMSD=4.196e+00\Dipole=-0.0718
 231,0.1873902,-0.5049786\Quadrupole=-8.0602983,6.2623994,1.797899,-2.8
 742668,11.0876327,2.1500146\PG=C01 [X(C19H16Cl1N1O4)]\\@


 SEEN ON A WALL AT THE UNIVERSITY OF ILLINOIS AT CHICAGO CIRCLE:

 TO DO IS TO BE  -- SOCRATES
 TO BE IS TO DO  -- SARTRE
 OO BE DO BE DO  -- SINATRA
 Job cpu time:       0 days  0 hours 29 minutes 40.1 seconds.
 Elapsed time:       0 days  0 hours  2 minutes  1.3 seconds.
 File lengths (MBytes):  RWF=     71 Int=      0 D2E=      0 Chk=     67 Scr=      1
 Normal termination of Gaussian 16 at Tue Apr  8 19:04:14 2025.
