 Entering Gaussian System, Link 0=g16
 Input=3B-69_01c_water_trimer_mol1.gjf
 Output=3B-69_01c_water_trimer_mol1.log
 Initial command:
 /arc/software/Gaussian/g16.c01/l1.exe "/tmp/slurm/4832723/Gau-417432.inp" -scrdir="/tmp/slurm/4832723/"
 Entering Link 1 = /arc/software/Gaussian/g16.c01/l1.exe PID=    417433.
  
 Copyright (c) 1988-2019, Gaussian, Inc.  All Rights Reserved.
  
 This is part of the Gaussian(R) 16 program.  It is based on
 the Gaussian(R) 09 system (copyright 2009, Gaussian, Inc.),
 the Gaussian(R) 03 system (copyright 2003, Gaussian, Inc.),
 the Gaussian(R) 98 system (copyright 1998, Gaussian, Inc.),
 the Gaussian(R) 94 system (copyright 1995, Gaussian, Inc.),
 the Gaussian 92(TM) system (copyright 1992, Gaussian, Inc.),
 the Gaussian 90(TM) system (copyright 1990, Gaussian, Inc.),
 the Gaussian 88(TM) system (copyright 1988, Gaussian, Inc.),
 the Gaussian 86(TM) system (copyright 1986, Carnegie Mellon
 University), and the Gaussian 82(TM) system (copyright 1983,
 Carnegie Mellon University). Gaussian is a federally registered
 trademark of Gaussian, Inc.
  
 This software contains proprietary and confidential information,
 including trade secrets, belonging to Gaussian, Inc.
  
 This software is provided under written license and may be
 used, copied, transmitted, or stored only in accord with that
 written license.
  
 The following legend is applicable only to US Government
 contracts under FAR:
  
                    RESTRICTED RIGHTS LEGEND
  
 Use, reproduction and disclosure by the US Government is
 subject to restrictions as set forth in subparagraphs (a)
 and (c) of the Commercial Computer Software - Restricted
 Rights clause in FAR 52.227-19.
  
 Gaussian, Inc.
 340 Quinnipiac St., Bldg. 40, Wallingford CT 06492
  
  
 ---------------------------------------------------------------
 Warning -- This program may not be used in any manner that
 competes with the business of Gaussian, Inc. or will provide
 assistance to any competitor of Gaussian, Inc.  The licensee
 of this program is prohibited from giving any competitor of
 Gaussian, Inc. access to this program.  By using this program,
 the user acknowledges that Gaussian, Inc. is engaged in the
 business of creating and licensing software in the field of
 computational chemistry and represents and warrants to the
 licensee that it is not a competitor of Gaussian, Inc. and that
 it will not use this program in any manner prohibited above.
 ---------------------------------------------------------------
  

 Cite this work as:
 Gaussian 16, Revision C.01,
 M. J. Frisch, G. W. Trucks, H. B. Schlegel, G. E. Scuseria, 
 M. A. Robb, J. R. Cheeseman, G. Scalmani, V. Barone, 
 G. A. Petersson, H. Nakatsuji, X. Li, M. Caricato, A. V. Marenich, 
 J. Bloino, B. G. Janesko, R. Gomperts, B. Mennucci, H. P. Hratchian, 
 J. V. Ortiz, A. F. Izmaylov, J. L. Sonnenberg, D. Williams-Young, 
 F. Ding, F. Lipparini, F. Egidi, J. Goings, B. Peng, A. Petrone, 
 T. Henderson, D. Ranasinghe, V. G. Zakrzewski, J. Gao, N. Rega, 
 G. Zheng, W. Liang, M. Hada, M. Ehara, K. Toyota, R. Fukuda, 
 J. Hasegawa, M. Ishida, T. Nakajima, Y. Honda, O. Kitao, H. Nakai, 
 T. Vreven, K. Throssell, J. A. Montgomery, Jr., J. E. Peralta, 
 F. Ogliaro, M. J. Bearpark, J. J. Heyd, E. N. Brothers, K. N. Kudin, 
 V. N. Staroverov, T. A. Keith, R. Kobayashi, J. Normand, 
 K. Raghavachari, A. P. Rendell, J. C. Burant, S. S. Iyengar, 
 J. Tomasi, M. Cossi, J. M. Millam, M. Klene, C. Adamo, R. Cammi, 
 J. W. Ochterski, R. L. Martin, K. Morokuma, O. Farkas, 
 J. B. Foresman, and D. J. Fox, Gaussian, Inc., Wallingford CT, 2019.
 
 ******************************************
 Gaussian 16:  ES64L-G16RevC.01  3-Jul-2019
                 8-Apr-2025 
 ******************************************
 %nprocs=16
 Will use up to   16 processors via shared memory.
 %mem=30GB
 %chk=3B-69_01c_water_trimer_mol1.chk
 ----------------------------------------------------------------------
 #t hf aug-cc-pvdz symm=none int=(grid=ultrafine) guess=(read,tcheck) s
 table=(opt,rrhf)
 ----------------------------------------------------------------------
 -----
 title
 -----
 Symbolic Z-matrix:
 Charge =  0 Multiplicity = 1
 O                    -1.20611   0.89331   0.06609 
 H                    -1.87204   1.14795  -0.57962 
 H                    -1.07058  -0.07258  -0.02408 
 O                    -0.01444  -1.61472  -0.00994 
 H                    -0.02704  -2.10102   0.82061 
 H                     0.81037  -1.09172  -0.02682 
 O                     1.60208   0.67987   0.03117 
 H                     2.06456   1.06575  -0.71944 
 H                     0.7193    1.09766   0.05393 
 
                    Distance matrix (angstroms):
                    1          2          3          4          5
     1  O    0.000000
     2  H    0.961900   0.000000
     3  H    0.979510   1.562255   0.000000
     4  O    2.777781   3.377506   1.869180   0.000000
     5  H    3.305375   3.990045   2.432501   0.962524   0.000000
     6  H    2.831109   3.537945   2.139309   0.976794   1.561430
     7  O    2.816507   3.558329   2.777114   2.807132   3.318221
     8  H    3.368098   3.939945   3.407114   3.465624   4.095723
     9  H    1.936257   2.668138   2.139905   2.810592   3.372880
                    6          7          8          9
     6  H    0.000000
     7  O    1.941317   0.000000
     8  H    2.589864   0.962395   0.000000
     9  H    2.192758   0.976919   1.552050   0.000000
 Symmetry turned off by external request.
 Rotational constants (GHZ):           6.9625494           6.6985232           3.4878753
   123 basis functions,   195 primitive gaussians,   129 cartesian basis functions
    15 alpha electrons       15 beta electrons
       nuclear repulsion energy        84.3379047161 Hartrees.
 NAtoms=    9 NActive=    9 NUniq=    9 SFac= 1.00D+00 NAtFMM=   60 NAOKFM=F Big=F
 ExpMin= 2.97D-02 ExpMax= 1.17D+04 ExpMxC= 4.01D+02 IAcc=3 IRadAn=         5 AccDes= 0.00D+00
 Harris functional with IExCor=  205 and IRadAn=       5 diagonalized for initial guess.
 HarFok:  IExCor=  205 AccDes= 0.00D+00 IRadAn=         5 IDoV= 1 UseB2=F ITyADJ=14
 ICtDFT=  3500011 ScaDFX=  1.000000  1.000000  1.000000  1.000000
 FoFCou: FMM=F IPFlag=           0 FMFlag=      100000 FMFlg1=           0
         NFxFlg=           0 DoJE=T BraDBF=F KetDBF=T FulRan=T
         wScrn=  0.000000 ICntrl=       500 IOpCl=  0 I1Cent=   200000004 NGrid=           0
         NMat0=    1 NMatS0=      1 NMatT0=    0 NMatD0=    1 NMtDS0=    0 NMtDT0=    0
 Symmetry not used in FoFCou.
 SCF Done:  E(RHF) =  -228.139379561     A.U. after   11 cycles
            NFock= 11  Conv=0.49D-08     -V/T= 2.0018

 **********************************************************************

            Population analysis using the SCF Density.

 **********************************************************************

 Alpha  occ. eigenvalues --  -20.57431 -20.57277 -20.56916  -1.36236  -1.34476
 Alpha  occ. eigenvalues --   -1.34109  -0.73967  -0.71484  -0.70722  -0.59702
 Alpha  occ. eigenvalues --   -0.59214  -0.56178  -0.51508  -0.50512  -0.49831
 Alpha virt. eigenvalues --    0.03292   0.05113   0.05274   0.07616   0.08425
 Alpha virt. eigenvalues --    0.09861   0.16767   0.18377   0.19477   0.21642
 Alpha virt. eigenvalues --    0.21681   0.22385   0.24034   0.26284   0.26912
 Alpha virt. eigenvalues --    0.27923   0.28967   0.30345   0.31800   0.34020
 Alpha virt. eigenvalues --    0.34789   0.38746   0.41960   0.42237   0.45833
 Alpha virt. eigenvalues --    0.46362   0.47176   0.50147   0.51684   0.53531
 Alpha virt. eigenvalues --    0.54387   0.57519   0.59262   0.61009   0.61624
 Alpha virt. eigenvalues --    0.65002   0.66723   0.67515   0.69704   0.74323
 Alpha virt. eigenvalues --    0.78169   0.80194   0.88235   0.90906   0.93694
 Alpha virt. eigenvalues --    0.99900   1.03201   1.04861   1.13516   1.15256
 Alpha virt. eigenvalues --    1.19280   1.21157   1.21590   1.23006   1.24372
 Alpha virt. eigenvalues --    1.29652   1.32172   1.41076   1.42012   1.42928
 Alpha virt. eigenvalues --    1.49525   1.53549   1.55439   1.61526   1.62718
 Alpha virt. eigenvalues --    1.68451   1.81369   1.84643   1.87413   2.01976
 Alpha virt. eigenvalues --    2.02984   2.04843   2.12472   2.15184   2.18051
 Alpha virt. eigenvalues --    2.24916   2.28685   2.32105   2.40291   2.44276
 Alpha virt. eigenvalues --    2.50606   2.52640   2.55114   2.59962   2.71306
 Alpha virt. eigenvalues --    2.74449   2.78768   2.81023   2.81802   2.90986
 Alpha virt. eigenvalues --    3.05982   3.09839   3.15357   3.68175   3.71933
 Alpha virt. eigenvalues --    3.73852   3.74664   3.75923   3.77478   3.83938
 Alpha virt. eigenvalues --    3.86504   3.88767   4.11542   4.14992   4.15994
 Alpha virt. eigenvalues --    4.33344   4.37074   4.40097
          Condensed to atoms (all electrons):
 Mulliken charges:
               1
     1  O   -0.448131
     2  H    0.187622
     3  H    0.268056
     4  O   -0.457825
     5  H    0.173548
     6  H    0.269574
     7  O   -0.451346
     8  H    0.182679
     9  H    0.275823
 Sum of Mulliken charges =   0.00000
 Mulliken charges with hydrogens summed into heavy atoms:
               1
     1  O    0.007547
     4  O   -0.014703
     7  O    0.007156
 Electronic spatial extent (au):  <R**2>=            340.4447
 Charge=              0.0000 electrons
 Dipole moment (field-independent basis, Debye):
    X=             -0.1922    Y=              0.1471    Z=             -1.0896  Tot=              1.1162
 NROrb=    123 NOA=    15 NOB=    15 NVA=   108 NVB=   108
    12 initial guesses have been made.
 Iteration     1 Dimension    12 NMult     0 NNew     12
 Iteration     2 Dimension    24 NMult    12 NNew     12
 Iteration     3 Dimension    27 NMult    24 NNew      3
 Iteration     4 Dimension    30 NMult    27 NNew      3
 Iteration     5 Dimension    33 NMult    30 NNew      3
 Iteration     6 Dimension    36 NMult    33 NNew      3
 ***********************************************************************
 Stability analysis using <AA,BB:AA,BB> singles matrix:
 ***********************************************************************
 Ground to excited state transition densities written to RWF  633

 Eigenvectors of the stability matrix:
 
 Excited state symmetry could not be determined.
 Eigenvector   1:      Singlet-?Sym  Eigenvalue= 0.3375502  <S**2>=0.000
      13 -> 18        -0.20052
      13 -> 26         0.12653
      14 -> 18        -0.18268
      14 -> 26         0.10341
      15 -> 16         0.48086
      15 -> 17        -0.11079
      15 -> 18         0.11480
      15 -> 21         0.13105
      15 -> 23         0.19371
      15 -> 25         0.11638
 The wavefunction is stable under the perturbations considered.
 The wavefunction is already stable.

 **********************************************************************

            Population analysis using the SCF Density.

 **********************************************************************

 Alpha  occ. eigenvalues --  -20.57431 -20.57277 -20.56916  -1.36236  -1.34476
 Alpha  occ. eigenvalues --   -1.34109  -0.73967  -0.71484  -0.70722  -0.59702
 Alpha  occ. eigenvalues --   -0.59214  -0.56178  -0.51508  -0.50512  -0.49831
 Alpha virt. eigenvalues --    0.03292   0.05113   0.05274   0.07616   0.08425
 Alpha virt. eigenvalues --    0.09861   0.16767   0.18377   0.19477   0.21642
 Alpha virt. eigenvalues --    0.21681   0.22385   0.24034   0.26284   0.26912
 Alpha virt. eigenvalues --    0.27923   0.28967   0.30345   0.31800   0.34020
 Alpha virt. eigenvalues --    0.34789   0.38746   0.41960   0.42237   0.45833
 Alpha virt. eigenvalues --    0.46362   0.47176   0.50147   0.51684   0.53531
 Alpha virt. eigenvalues --    0.54387   0.57519   0.59262   0.61009   0.61624
 Alpha virt. eigenvalues --    0.65002   0.66723   0.67515   0.69704   0.74323
 Alpha virt. eigenvalues --    0.78169   0.80194   0.88235   0.90906   0.93694
 Alpha virt. eigenvalues --    0.99900   1.03201   1.04861   1.13516   1.15256
 Alpha virt. eigenvalues --    1.19280   1.21157   1.21590   1.23006   1.24372
 Alpha virt. eigenvalues --    1.29652   1.32172   1.41076   1.42012   1.42928
 Alpha virt. eigenvalues --    1.49525   1.53549   1.55439   1.61526   1.62718
 Alpha virt. eigenvalues --    1.68451   1.81369   1.84643   1.87413   2.01976
 Alpha virt. eigenvalues --    2.02984   2.04843   2.12472   2.15184   2.18051
 Alpha virt. eigenvalues --    2.24916   2.28685   2.32105   2.40291   2.44276
 Alpha virt. eigenvalues --    2.50606   2.52640   2.55114   2.59962   2.71306
 Alpha virt. eigenvalues --    2.74449   2.78768   2.81023   2.81802   2.90986
 Alpha virt. eigenvalues --    3.05982   3.09839   3.15357   3.68175   3.71933
 Alpha virt. eigenvalues --    3.73852   3.74664   3.75923   3.77478   3.83938
 Alpha virt. eigenvalues --    3.86504   3.88767   4.11542   4.14992   4.15994
 Alpha virt. eigenvalues --    4.33344   4.37074   4.40097
          Condensed to atoms (all electrons):
 Mulliken charges:
               1
     1  O   -0.448131
     2  H    0.187622
     3  H    0.268056
     4  O   -0.457825
     5  H    0.173548
     6  H    0.269574
     7  O   -0.451346
     8  H    0.182679
     9  H    0.275823
 Sum of Mulliken charges =   0.00000
 Mulliken charges with hydrogens summed into heavy atoms:
               1
     1  O    0.007547
     4  O   -0.014703
     7  O    0.007156
 Electronic spatial extent (au):  <R**2>=            340.4447
 Charge=              0.0000 electrons
 Dipole moment (field-independent basis, Debye):
    X=             -0.1922    Y=              0.1471    Z=             -1.0896  Tot=              1.1162
 Unable to Open any file for archive entry.
 1\1\GINC-SE219\Stability\RHF\Aug-CC-pVDZ\H6O3\OHZDE\08-Apr-2025\0\\#t 
 hf aug-cc-pvdz symm=none int=(grid=ultrafine) guess=(read,tcheck) stab
 le=(opt,rrhf)\\title\\0,1\O,0,-1.206108,0.893312,0.066093\H,0,-1.87204
 3,1.147949,-0.579618\H,0,-1.070581,-0.072576,-0.024084\O,0,-0.014443,-
 1.614719,-0.009938\H,0,-0.027039,-2.101017,0.820609\H,0,0.81037,-1.091
 722,-0.026818\O,0,1.602083,0.679871,0.031168\H,0,2.064562,1.065746,-0.
 719443\H,0,0.719298,1.097655,0.05393\\Version=ES64L-G16RevC.01\HF=-228
 .1393796\RMSD=4.893e-09\Dipole=-0.0756157,0.0578786,-0.4286922\Quadrup
 ole=0.5508279,-0.2672458,-0.2835821,0.010382,-0.4763924,-4.8756981\PG=
 Unknown\\@
 The archive entry for this job was punched.


 THOUGH I SPEAK WITH THE TONGUES OF MEN AND OF ANGELS, 
 AND HAVE NOT LOVE,
 I AM BECOME AS SOUNDING BRASS, A TINKLING CYMBAL.
 AND THOUGH I HAVE THE GIFT OF PROPHECY,
 AND UNDERSTAND ALL MYSTERIES, AND ALL KNOWLEDGE.
 AND THOUGH I HAVE ALL FAITH, SO THAT I COULD REMOVE MOUNTAINS,
 AND HAVE NOT LOVE, I AM NOTHING.
 AND THOUGH I BESTOW ALL MY GOODS TO FEED THE POOR,
 AND THOUGH I GIVE MY BODY TO BE BURNED,
 AND HAVE NOT LOVE IT PROFITETH ME NOTHING.
 LOVE SUFFERETH LONG, AND IS KIND,
 LOVE ENVIETH NOT,
 LOVE VAUNTETH NOT ITSELF, IS NOT PUFFED UP,
 DOTH NOT BEHAVE ITSELF UNSEEMLY, SEEKETH NOT HER OWN,
 IS NOT EASILY PROVOKED, THINKETH NO EVIL,
 REJOICETH NOT IN INIQUITY, BUT REJOICETH IN THE TRUTH,
 BEARETH ALL THINGS, BELIEVETH ALL THINGS,
 HOPETH ALL THINGS, ENDURETH ALL THINGS.
 LOVE NEVER FAILETH, BUT WHETHER THERE BE PROPHECIES, THEY SHALL FAIL, 
 WHETHER THERE BE TONGUES, THEY SHALL CEASE,
 WHETHER THERE BE KNOWLEDGE, IT SHALL VANISH AWAY.
 FOR WE KNOW IN PART, AND WE PROPHESY IN PART.
 BUT WHEN THAT WHICH IS PERFECT IS COME, THEN THAT WHICH IS IN PART 
 SHALL BE DONE AWAY. 
 WHEN I WAS A CHILD, I SPAKE AS A CHILD, I UNDERSTOOD AS A CHILD, 
 I THOUGHT AS A CHILD.
 BUT WHEN I BECAME A MAN, I PUT AWAY CHILDISH THINGS.
 FOR NOW WE SEE THROUGH A GLASS, DARKLY, BUT THEN FACE TO FACE.
 NOW I KNOW IN PART. BUT THEN SHALL I KNOW EVEN AS ALSO I AM KNOWN.
 AND NOW ABIDETH FAITH, HOPE AND LOVE, THESE THREE.
 BUT THE GREATEST OF THESE IS LOVE.

                     I CORINTHIANS 13
 Job cpu time:       0 days  0 hours  0 minutes 28.3 seconds.
 Elapsed time:       0 days  0 hours  0 minutes  3.3 seconds.
 File lengths (MBytes):  RWF=     95 Int=      0 D2E=      0 Chk=      3 Scr=      1
 Normal termination of Gaussian 16 at Tue Apr  8 19:00:39 2025.
 Initial command:
 /arc/software/Gaussian/g16.c01/l1.exe "/tmp/slurm/4832723/Gau-417432.inp" -scrdir="/tmp/slurm/4832723/"
 Entering Link 1 = /arc/software/Gaussian/g16.c01/l1.exe PID=    417645.
  
 Copyright (c) 1988-2019, Gaussian, Inc.  All Rights Reserved.
  
 This is part of the Gaussian(R) 16 program.  It is based on
 the Gaussian(R) 09 system (copyright 2009, Gaussian, Inc.),
 the Gaussian(R) 03 system (copyright 2003, Gaussian, Inc.),
 the Gaussian(R) 98 system (copyright 1998, Gaussian, Inc.),
 the Gaussian(R) 94 system (copyright 1995, Gaussian, Inc.),
 the Gaussian 92(TM) system (copyright 1992, Gaussian, Inc.),
 the Gaussian 90(TM) system (copyright 1990, Gaussian, Inc.),
 the Gaussian 88(TM) system (copyright 1988, Gaussian, Inc.),
 the Gaussian 86(TM) system (copyright 1986, Carnegie Mellon
 University), and the Gaussian 82(TM) system (copyright 1983,
 Carnegie Mellon University). Gaussian is a federally registered
 trademark of Gaussian, Inc.
  
 This software contains proprietary and confidential information,
 including trade secrets, belonging to Gaussian, Inc.
  
 This software is provided under written license and may be
 used, copied, transmitted, or stored only in accord with that
 written license.
  
 The following legend is applicable only to US Government
 contracts under FAR:
  
                    RESTRICTED RIGHTS LEGEND
  
 Use, reproduction and disclosure by the US Government is
 subject to restrictions as set forth in subparagraphs (a)
 and (c) of the Commercial Computer Software - Restricted
 Rights clause in FAR 52.227-19.
  
 Gaussian, Inc.
 340 Quinnipiac St., Bldg. 40, Wallingford CT 06492
  
  
 ---------------------------------------------------------------
 Warning -- This program may not be used in any manner that
 competes with the business of Gaussian, Inc. or will provide
 assistance to any competitor of Gaussian, Inc.  The licensee
 of this program is prohibited from giving any competitor of
 Gaussian, Inc. access to this program.  By using this program,
 the user acknowledges that Gaussian, Inc. is engaged in the
 business of creating and licensing software in the field of
 computational chemistry and represents and warrants to the
 licensee that it is not a competitor of Gaussian, Inc. and that
 it will not use this program in any manner prohibited above.
 ---------------------------------------------------------------
  

 Cite this work as:
 Gaussian 16, Revision C.01,
 M. J. Frisch, G. W. Trucks, H. B. Schlegel, G. E. Scuseria, 
 M. A. Robb, J. R. Cheeseman, G. Scalmani, V. Barone, 
 G. A. Petersson, H. Nakatsuji, X. Li, M. Caricato, A. V. Marenich, 
 J. Bloino, B. G. Janesko, R. Gomperts, B. Mennucci, H. P. Hratchian, 
 J. V. Ortiz, A. F. Izmaylov, J. L. Sonnenberg, D. Williams-Young, 
 F. Ding, F. Lipparini, F. Egidi, J. Goings, B. Peng, A. Petrone, 
 T. Henderson, D. Ranasinghe, V. G. Zakrzewski, J. Gao, N. Rega, 
 G. Zheng, W. Liang, M. Hada, M. Ehara, K. Toyota, R. Fukuda, 
 J. Hasegawa, M. Ishida, T. Nakajima, Y. Honda, O. Kitao, H. Nakai, 
 T. Vreven, K. Throssell, J. A. Montgomery, Jr., J. E. Peralta, 
 F. Ogliaro, M. J. Bearpark, J. J. Heyd, E. N. Brothers, K. N. Kudin, 
 V. N. Staroverov, T. A. Keith, R. Kobayashi, J. Normand, 
 K. Raghavachari, A. P. Rendell, J. C. Burant, S. S. Iyengar, 
 J. Tomasi, M. Cossi, J. M. Millam, M. Klene, C. Adamo, R. Cammi, 
 J. W. Ochterski, R. L. Martin, K. Morokuma, O. Farkas, 
 J. B. Foresman, and D. J. Fox, Gaussian, Inc., Wallingford CT, 2019.
 
 ******************************************
 Gaussian 16:  ES64L-G16RevC.01  3-Jul-2019
                 8-Apr-2025 
 ******************************************
 %nprocs=16
 Will use up to   16 processors via shared memory.
 %mem=30GB
 %chk=3B-69_01c_water_trimer_mol1.chk
 ----------------------------------------------------------------------
 #t hf aug-cc-pvdz iop(5/13=1,5/36=2,99/5=2) pseudo=read geom=check gue
 ss=(read,tcheck) scf=(maxcycle=1)
 ----------------------------------------------------------------------
 -----
 title
 -----
 Structure from the checkpoint file:  "3B-69_01c_water_trimer_mol1.chk"
 Charge =  0 Multiplicity = 1
 Z-Matrix found in chk file.
 O,0,-1.206108,0.893312,0.066093
 H,0,-1.872043,1.147949,-0.579618
 H,0,-1.070581,-0.072576,-0.024084
 O,0,-0.014443,-1.614719,-0.009938
 H,0,-0.027039,-2.101017,0.820609
 H,0,0.81037,-1.091722,-0.026818
 O,0,1.602083,0.679871,0.031168
 H,0,2.064562,1.065746,-0.719443
 H,0,0.719298,1.097655,0.05393
 Recover connectivity data from disk.
                    Distance matrix (angstroms):
                    1          2          3          4          5
     1  O    0.000000
     2  H    0.961900   0.000000
     3  H    0.979510   1.562255   0.000000
     4  O    2.777781   3.377506   1.869180   0.000000
     5  H    3.305375   3.990045   2.432501   0.962524   0.000000
     6  H    2.831109   3.537945   2.139309   0.976794   1.561430
     7  O    2.816507   3.558329   2.777114   2.807132   3.318221
     8  H    3.368098   3.939945   3.407114   3.465624   4.095723
     9  H    1.936257   2.668138   2.139905   2.810592   3.372880
                    6          7          8          9
     6  H    0.000000
     7  O    1.941317   0.000000
     8  H    2.589864   0.962395   0.000000
     9  H    2.192758   0.976919   1.552050   0.000000
 Framework group  C1[X(H6O3)]
 Deg. of freedom    21
                         Standard orientation:                         
 ---------------------------------------------------------------------
 Center     Atomic      Atomic             Coordinates (Angstroms)
 Number     Number       Type             X           Y           Z
 ---------------------------------------------------------------------
      1          8           0       -1.041725   -1.220825   -0.091337
      2          1           0       -1.595905   -1.677861    0.548393
      3          1           0       -1.165374   -0.260001    0.053463
      4          8           0       -0.558529    1.506893    0.113950
      5          1           0       -0.725366    2.015148   -0.686235
      6          1           0        0.375818    1.223314    0.087365
      7          8           0        1.608181   -0.266521   -0.086951
      8          1           0        2.179315   -0.553667    0.632462
      9          1           0        0.868096   -0.903313   -0.120738
 ---------------------------------------------------------------------
 Rotational constants (GHZ):           6.9625494           6.6985232           3.4878753
 ======================================================================================================
                                       Pseudopotential Parameters
 ======================================================================================================
  Center     Atomic      Valence      Angular      Power
  Number     Number     Electrons     Momentum     of R      Exponent        Coefficient   SO-Coeffient
 ======================================================================================================
    1          8            8
                                      G and up 
                                                     0        0.0000010       -0.00165251    0.00000000
                                                     2        0.1200000       -0.10937202    0.00000000
                                                     2        0.1400000        0.35668905    0.00000000
                                                     2        0.1800000       -0.51696033    0.00000000
                                                     2        0.2400000        0.52446472    0.00000000
                                                     2        0.4000000       -0.07754493    0.00000000
                                                     2        0.8000000       -1.90560988    0.00000000
                                                     2        1.7000000        0.19857963    0.00000000
                                      S - G
                                                     0        0.0000010       -0.03845181    0.00000000
                                                     2        0.1400000        0.42024558    0.00000000
                                                     2        0.4000000       -4.10467779    0.00000000
                                                     2        1.3000000        9.99571838    0.00000000
                                      P - G
                                                     0        0.0000010        0.33206183    0.00000000
                                                     2        0.1200000       -0.18708141    0.00000000
                                                     2        0.2800000       -0.18179081    0.00000000
                                                     2        0.7000000        1.18820394    0.00000000
                                      D - G
                                                     0        0.0000010       -0.57891674    0.00000000
                                                     2        0.1200000        0.60487490    0.00000000
                                                     2        0.2400000       -0.24931464    0.00000000
                                                     2        0.3000000       -2.75054612    0.00000000
                                                     2        1.0000000       15.96776040    0.00000000
                                      F - G
                                                     0        0.0000010        0.37449041    0.00000000
                                                     2        0.1200000       -0.63373642    0.00000000
                                                     2        0.1400000       -0.08412804    0.00000000
                                                     2        0.2800000        2.62321406    0.00000000
                                                     2        0.6000000       -2.68223623    0.00000000
    2          1            1
                                      F and up 
                                                     0        0.0000010        0.00072061    0.00000000
                                                     2        0.1200000        0.03832357    0.00000000
                                                     2        0.1400000       -0.08683256    0.00000000
                                                     2        0.1800000        0.09312970    0.00000000
                                                     2        0.2800000       -0.02532572    0.00000000
                                                     2        0.4000000       -0.09430787    0.00000000
                                                     2        0.7000000        0.42710831    0.00000000
                                                     2        1.2000000       -2.11746981    0.00000000
                                      S - F
                                                     0        0.0000010        0.14449603    0.00000000
                                                     2        0.1200000       -0.56378993    0.00000000
                                                     2        0.1400000        0.63941249    0.00000000
                                                     2        0.2600000       -0.58461015    0.00000000
                                                     2        0.5000000        1.00157293    0.00000000
                                                     2        1.8000000       -0.14135838    0.00000000
                                      P - F
                                                     0        0.0000010       -0.09353646    0.00000000
                                                     2        0.1200000        0.31768975    0.00000000
                                                     2        0.2000000       -0.71747951    0.00000000
                                                     2        0.4000000        0.65752308    0.00000000
                                                     2        1.7000000        2.94052587    0.00000000
                                      D - F
                                                     0        0.0000010       -0.04491202    0.00000000
                                                     2        0.1200000       -0.02862031    0.00000000
                                                     2        0.1800000       -0.21515263    0.00000000
                                                     2        0.3000000        0.80560647    0.00000000
                                                     2        0.4000000        0.47351754    0.00000000
                                                     2        0.7000000       -4.57051794    0.00000000
                                                     2        1.6000000       18.53737826    0.00000000
    3          1            1
                                      F and up 
                                                     0        0.0000010        0.00072061    0.00000000
                                                     2        0.1200000        0.03832357    0.00000000
                                                     2        0.1400000       -0.08683256    0.00000000
                                                     2        0.1800000        0.09312970    0.00000000
                                                     2        0.2800000       -0.02532572    0.00000000
                                                     2        0.4000000       -0.09430787    0.00000000
                                                     2        0.7000000        0.42710831    0.00000000
                                                     2        1.2000000       -2.11746981    0.00000000
                                      S - F
                                                     0        0.0000010        0.14449603    0.00000000
                                                     2        0.1200000       -0.56378993    0.00000000
                                                     2        0.1400000        0.63941249    0.00000000
                                                     2        0.2600000       -0.58461015    0.00000000
                                                     2        0.5000000        1.00157293    0.00000000
                                                     2        1.8000000       -0.14135838    0.00000000
                                      P - F
                                                     0        0.0000010       -0.09353646    0.00000000
                                                     2        0.1200000        0.31768975    0.00000000
                                                     2        0.2000000       -0.71747951    0.00000000
                                                     2        0.4000000        0.65752308    0.00000000
                                                     2        1.7000000        2.94052587    0.00000000
                                      D - F
                                                     0        0.0000010       -0.04491202    0.00000000
                                                     2        0.1200000       -0.02862031    0.00000000
                                                     2        0.1800000       -0.21515263    0.00000000
                                                     2        0.3000000        0.80560647    0.00000000
                                                     2        0.4000000        0.47351754    0.00000000
                                                     2        0.7000000       -4.57051794    0.00000000
                                                     2        1.6000000       18.53737826    0.00000000
    4          8            8
                                      G and up 
                                                     0        0.0000010       -0.00165251    0.00000000
                                                     2        0.1200000       -0.10937202    0.00000000
                                                     2        0.1400000        0.35668905    0.00000000
                                                     2        0.1800000       -0.51696033    0.00000000
                                                     2        0.2400000        0.52446472    0.00000000
                                                     2        0.4000000       -0.07754493    0.00000000
                                                     2        0.8000000       -1.90560988    0.00000000
                                                     2        1.7000000        0.19857963    0.00000000
                                      S - G
                                                     0        0.0000010       -0.03845181    0.00000000
                                                     2        0.1400000        0.42024558    0.00000000
                                                     2        0.4000000       -4.10467779    0.00000000
                                                     2        1.3000000        9.99571838    0.00000000
                                      P - G
                                                     0        0.0000010        0.33206183    0.00000000
                                                     2        0.1200000       -0.18708141    0.00000000
                                                     2        0.2800000       -0.18179081    0.00000000
                                                     2        0.7000000        1.18820394    0.00000000
                                      D - G
                                                     0        0.0000010       -0.57891674    0.00000000
                                                     2        0.1200000        0.60487490    0.00000000
                                                     2        0.2400000       -0.24931464    0.00000000
                                                     2        0.3000000       -2.75054612    0.00000000
                                                     2        1.0000000       15.96776040    0.00000000
                                      F - G
                                                     0        0.0000010        0.37449041    0.00000000
                                                     2        0.1200000       -0.63373642    0.00000000
                                                     2        0.1400000       -0.08412804    0.00000000
                                                     2        0.2800000        2.62321406    0.00000000
                                                     2        0.6000000       -2.68223623    0.00000000
    5          1            1
                                      F and up 
                                                     0        0.0000010        0.00072061    0.00000000
                                                     2        0.1200000        0.03832357    0.00000000
                                                     2        0.1400000       -0.08683256    0.00000000
                                                     2        0.1800000        0.09312970    0.00000000
                                                     2        0.2800000       -0.02532572    0.00000000
                                                     2        0.4000000       -0.09430787    0.00000000
                                                     2        0.7000000        0.42710831    0.00000000
                                                     2        1.2000000       -2.11746981    0.00000000
                                      S - F
                                                     0        0.0000010        0.14449603    0.00000000
                                                     2        0.1200000       -0.56378993    0.00000000
                                                     2        0.1400000        0.63941249    0.00000000
                                                     2        0.2600000       -0.58461015    0.00000000
                                                     2        0.5000000        1.00157293    0.00000000
                                                     2        1.8000000       -0.14135838    0.00000000
                                      P - F
                                                     0        0.0000010       -0.09353646    0.00000000
                                                     2        0.1200000        0.31768975    0.00000000
                                                     2        0.2000000       -0.71747951    0.00000000
                                                     2        0.4000000        0.65752308    0.00000000
                                                     2        1.7000000        2.94052587    0.00000000
                                      D - F
                                                     0        0.0000010       -0.04491202    0.00000000
                                                     2        0.1200000       -0.02862031    0.00000000
                                                     2        0.1800000       -0.21515263    0.00000000
                                                     2        0.3000000        0.80560647    0.00000000
                                                     2        0.4000000        0.47351754    0.00000000
                                                     2        0.7000000       -4.57051794    0.00000000
                                                     2        1.6000000       18.53737826    0.00000000
    6          1            1
                                      F and up 
                                                     0        0.0000010        0.00072061    0.00000000
                                                     2        0.1200000        0.03832357    0.00000000
                                                     2        0.1400000       -0.08683256    0.00000000
                                                     2        0.1800000        0.09312970    0.00000000
                                                     2        0.2800000       -0.02532572    0.00000000
                                                     2        0.4000000       -0.09430787    0.00000000
                                                     2        0.7000000        0.42710831    0.00000000
                                                     2        1.2000000       -2.11746981    0.00000000
                                      S - F
                                                     0        0.0000010        0.14449603    0.00000000
                                                     2        0.1200000       -0.56378993    0.00000000
                                                     2        0.1400000        0.63941249    0.00000000
                                                     2        0.2600000       -0.58461015    0.00000000
                                                     2        0.5000000        1.00157293    0.00000000
                                                     2        1.8000000       -0.14135838    0.00000000
                                      P - F
                                                     0        0.0000010       -0.09353646    0.00000000
                                                     2        0.1200000        0.31768975    0.00000000
                                                     2        0.2000000       -0.71747951    0.00000000
                                                     2        0.4000000        0.65752308    0.00000000
                                                     2        1.7000000        2.94052587    0.00000000
                                      D - F
                                                     0        0.0000010       -0.04491202    0.00000000
                                                     2        0.1200000       -0.02862031    0.00000000
                                                     2        0.1800000       -0.21515263    0.00000000
                                                     2        0.3000000        0.80560647    0.00000000
                                                     2        0.4000000        0.47351754    0.00000000
                                                     2        0.7000000       -4.57051794    0.00000000
                                                     2        1.6000000       18.53737826    0.00000000
    7          8            8
                                      G and up 
                                                     0        0.0000010       -0.00165251    0.00000000
                                                     2        0.1200000       -0.10937202    0.00000000
                                                     2        0.1400000        0.35668905    0.00000000
                                                     2        0.1800000       -0.51696033    0.00000000
                                                     2        0.2400000        0.52446472    0.00000000
                                                     2        0.4000000       -0.07754493    0.00000000
                                                     2        0.8000000       -1.90560988    0.00000000
                                                     2        1.7000000        0.19857963    0.00000000
                                      S - G
                                                     0        0.0000010       -0.03845181    0.00000000
                                                     2        0.1400000        0.42024558    0.00000000
                                                     2        0.4000000       -4.10467779    0.00000000
                                                     2        1.3000000        9.99571838    0.00000000
                                      P - G
                                                     0        0.0000010        0.33206183    0.00000000
                                                     2        0.1200000       -0.18708141    0.00000000
                                                     2        0.2800000       -0.18179081    0.00000000
                                                     2        0.7000000        1.18820394    0.00000000
                                      D - G
                                                     0        0.0000010       -0.57891674    0.00000000
                                                     2        0.1200000        0.60487490    0.00000000
                                                     2        0.2400000       -0.24931464    0.00000000
                                                     2        0.3000000       -2.75054612    0.00000000
                                                     2        1.0000000       15.96776040    0.00000000
                                      F - G
                                                     0        0.0000010        0.37449041    0.00000000
                                                     2        0.1200000       -0.63373642    0.00000000
                                                     2        0.1400000       -0.08412804    0.00000000
                                                     2        0.2800000        2.62321406    0.00000000
                                                     2        0.6000000       -2.68223623    0.00000000
    8          1            1
                                      F and up 
                                                     0        0.0000010        0.00072061    0.00000000
                                                     2        0.1200000        0.03832357    0.00000000
                                                     2        0.1400000       -0.08683256    0.00000000
                                                     2        0.1800000        0.09312970    0.00000000
                                                     2        0.2800000       -0.02532572    0.00000000
                                                     2        0.4000000       -0.09430787    0.00000000
                                                     2        0.7000000        0.42710831    0.00000000
                                                     2        1.2000000       -2.11746981    0.00000000
                                      S - F
                                                     0        0.0000010        0.14449603    0.00000000
                                                     2        0.1200000       -0.56378993    0.00000000
                                                     2        0.1400000        0.63941249    0.00000000
                                                     2        0.2600000       -0.58461015    0.00000000
                                                     2        0.5000000        1.00157293    0.00000000
                                                     2        1.8000000       -0.14135838    0.00000000
                                      P - F
                                                     0        0.0000010       -0.09353646    0.00000000
                                                     2        0.1200000        0.31768975    0.00000000
                                                     2        0.2000000       -0.71747951    0.00000000
                                                     2        0.4000000        0.65752308    0.00000000
                                                     2        1.7000000        2.94052587    0.00000000
                                      D - F
                                                     0        0.0000010       -0.04491202    0.00000000
                                                     2        0.1200000       -0.02862031    0.00000000
                                                     2        0.1800000       -0.21515263    0.00000000
                                                     2        0.3000000        0.80560647    0.00000000
                                                     2        0.4000000        0.47351754    0.00000000
                                                     2        0.7000000       -4.57051794    0.00000000
                                                     2        1.6000000       18.53737826    0.00000000
    9          1            1
                                      F and up 
                                                     0        0.0000010        0.00072061    0.00000000
                                                     2        0.1200000        0.03832357    0.00000000
                                                     2        0.1400000       -0.08683256    0.00000000
                                                     2        0.1800000        0.09312970    0.00000000
                                                     2        0.2800000       -0.02532572    0.00000000
                                                     2        0.4000000       -0.09430787    0.00000000
                                                     2        0.7000000        0.42710831    0.00000000
                                                     2        1.2000000       -2.11746981    0.00000000
                                      S - F
                                                     0        0.0000010        0.14449603    0.00000000
                                                     2        0.1200000       -0.56378993    0.00000000
                                                     2        0.1400000        0.63941249    0.00000000
                                                     2        0.2600000       -0.58461015    0.00000000
                                                     2        0.5000000        1.00157293    0.00000000
                                                     2        1.8000000       -0.14135838    0.00000000
                                      P - F
                                                     0        0.0000010       -0.09353646    0.00000000
                                                     2        0.1200000        0.31768975    0.00000000
                                                     2        0.2000000       -0.71747951    0.00000000
                                                     2        0.4000000        0.65752308    0.00000000
                                                     2        1.7000000        2.94052587    0.00000000
                                      D - F
                                                     0        0.0000010       -0.04491202    0.00000000
                                                     2        0.1200000       -0.02862031    0.00000000
                                                     2        0.1800000       -0.21515263    0.00000000
                                                     2        0.3000000        0.80560647    0.00000000
                                                     2        0.4000000        0.47351754    0.00000000
                                                     2        0.7000000       -4.57051794    0.00000000
                                                     2        1.6000000       18.53737826    0.00000000
 ======================================================================================================
   123 basis functions,   195 primitive gaussians,   129 cartesian basis functions
    15 alpha electrons       15 beta electrons
       nuclear repulsion energy        84.3379047161 Hartrees.
 NAtoms=    9 NActive=    9 NUniq=    9 SFac= 1.00D+00 NAtFMM=   60 NAOKFM=F Big=F
   1 Symmetry operations used in ECPInt.
 ECPInt:  NShTT=    1653 NPrTT=    6369 LenC2=    1651 LenP2D=    5384.
 LDataN:  DoStor=T MaxTD1= 6 Len=  172
 Initial guess from the checkpoint file:  "3B-69_01c_water_trimer_mol1.chk"
 B after Tr=    -0.217921   -0.080010    0.016519
         Rot=    0.028150    0.990427    0.134640   -0.011564 Ang= 176.77 deg.
 >>>>>>>>>> Convergence criterion not met.
 SCF Done:  E(RHF) =  -229.118690674     A.U. after    2 cycles
            NFock=  1  Conv=0.29D-01     -V/T= 2.0673

 **********************************************************************

            Population analysis using the SCF Density.

 **********************************************************************

 Orbital symmetries:
       Occupied  (A) (A) (A) (A) (A) (A) (A) (A) (A) (A) (A) (A)
                 (A) (A) (A)
       Virtual   (A) (A) (A) (A) (A) (A) (A) (A) (A) (A) (A) (A)
                 (A) (A) (A) (A) (A) (A) (A) (A) (A) (A) (A) (A)
                 (A) (A) (A) (A) (A) (A) (A) (A) (A) (A) (A) (A)
                 (A) (A) (A) (A) (A) (A) (A) (A) (A) (A) (A) (A)
                 (A) (A) (A) (A) (A) (A) (A) (A) (A) (A) (A) (A)
                 (A) (A) (A) (A) (A) (A) (A) (A) (A) (A) (A) (A)
                 (A) (A) (A) (A) (A) (A) (A) (A) (A) (A) (A) (A)
                 (A) (A) (A) (A) (A) (A) (A) (A) (A) (A) (A) (A)
                 (A) (A) (A) (A) (A) (A) (A) (A) (A) (A) (A) (A)
 The electronic state is 1-A.
 Alpha  occ. eigenvalues --  -21.09088 -21.08956 -21.08554  -1.67939  -1.65251
 Alpha  occ. eigenvalues --   -1.64855  -0.66339  -0.63306  -0.62549  -0.48536
 Alpha  occ. eigenvalues --   -0.48093  -0.43140  -0.36559  -0.34864  -0.33913
 Alpha virt. eigenvalues --    0.03844   0.05487   0.05615   0.08198   0.08468
 Alpha virt. eigenvalues --    0.10013   0.18579   0.19377   0.20259   0.22065
 Alpha virt. eigenvalues --    0.22602   0.22800   0.23998   0.25980   0.27483
 Alpha virt. eigenvalues --    0.27842   0.28541   0.29621   0.31638   0.32794
 Alpha virt. eigenvalues --    0.32946   0.35438   0.38838   0.39544   0.42879
 Alpha virt. eigenvalues --    0.43636   0.45862   0.48021   0.52808   0.54843
 Alpha virt. eigenvalues --    0.55199   0.56531   0.57969   0.58306   0.60411
 Alpha virt. eigenvalues --    0.63788   0.68509   0.69204   0.71264   0.75421
 Alpha virt. eigenvalues --    0.75889   0.78314   0.86769   0.89413   0.92646
 Alpha virt. eigenvalues --    0.97553   1.01190   1.05231   1.10154   1.13070
 Alpha virt. eigenvalues --    1.15333   1.17717   1.17914   1.19175   1.20696
 Alpha virt. eigenvalues --    1.32907   1.35017   1.57489   1.62001   1.63564
 Alpha virt. eigenvalues --    1.69340   1.74133   1.77619   1.94280   2.01084
 Alpha virt. eigenvalues --    2.06631   2.11165   2.16946   2.21209   2.25050
 Alpha virt. eigenvalues --    2.25545   2.29158   2.35964   2.37608   2.38058
 Alpha virt. eigenvalues --    2.49899   2.51404   2.56639   2.59656   2.63136
 Alpha virt. eigenvalues --    2.83992   3.00858   3.04749   3.06490   3.18809
 Alpha virt. eigenvalues --    3.21396   3.28501   3.51725   3.59843   3.61168
 Alpha virt. eigenvalues --    3.73985   3.78562   3.82408   6.02079   6.03229
 Alpha virt. eigenvalues --    6.06177   6.07483   6.07985   6.10010   6.12659
 Alpha virt. eigenvalues --    6.17053   6.19245   6.49505   6.54725   6.55576
 Alpha virt. eigenvalues --    6.94863   6.96708   6.97942
          Condensed to atoms (all electrons):
 Mulliken charges:
               1
     1  O   -2.058983
     2  H    0.874800
     3  H    1.211556
     4  O   -2.047382
     5  H    0.833232
     6  H    1.166940
     7  O   -2.049717
     8  H    0.876410
     9  H    1.193144
 Sum of Mulliken charges =  -0.00000
 Mulliken charges with hydrogens summed into heavy atoms:
               1
     1  O    0.027373
     4  O   -0.047210
     7  O    0.019837
 Electronic spatial extent (au):  <R**2>=            356.1408
 Charge=              0.0000 electrons
 Dipole moment (field-independent basis, Debye):
    X=             -0.0575    Y=             -0.0863    Z=              0.5510  Tot=              0.5607

 Test job not archived.
 1\1\GINC-SE219\SP\RHF\Aug-CC-pVDZ\H6O3\OHZDE\08-Apr-2025\0\\#t hf aug-
 cc-pvdz iop(5/13=1,5/36=2,99/5=2) pseudo=read geom=check guess=(read,t
 check) scf=(maxcycle=1)\\title\\0,1\O,0,-1.206108,0.893312,0.066093\H,
 0,-1.872043,1.147949,-0.579618\H,0,-1.070581,-0.072576,-0.024084\O,0,-
 0.014443,-1.614719,-0.009938\H,0,-0.027039,-2.101017,0.820609\H,0,0.81
 037,-1.091722,-0.026818\O,0,1.602083,0.679871,0.031168\H,0,2.064562,1.
 065746,-0.719443\H,0,0.719298,1.097655,0.05393\\Version=ES64L-G16RevC.
 01\State=1-A\HF=-229.1186907\RMSD=2.862e-02\Dipole=-0.0341814,0.013871
 3,-0.2174741\Quadrupole=0.467626,-0.2632402,-0.2043858,-0.0090312,-0.2
 769403,-3.4210943\PG=C01 [X(H6O3)]\\@


 MOST BUREAUCRACIES FUNCTION LIKE A SEPTIC TANK.
 THE LARGE CHUNKS RISE TO THE TOP.
 Job cpu time:       0 days  0 hours  0 minutes 13.0 seconds.
 Elapsed time:       0 days  0 hours  0 minutes  1.6 seconds.
 File lengths (MBytes):  RWF=      6 Int=      0 D2E=      0 Chk=      3 Scr=      1
 Normal termination of Gaussian 16 at Tue Apr  8 19:00:41 2025.
