 Entering Gaussian System, Link 0=g16
 Input=3B-69_16a_triazolidinedione_dimerBC_mol1.gjf
 Output=3B-69_16a_triazolidinedione_dimerBC_mol1.log
 Initial command:
 /arc/software/Gaussian/g16.c01/l1.exe "/tmp/slurm/4832917/Gau-3029199.inp" -scrdir="/tmp/slurm/4832917/"
 Entering Link 1 = /arc/software/Gaussian/g16.c01/l1.exe PID=   3029200.
  
 Copyright (c) 1988-2019, Gaussian, Inc.  All Rights Reserved.
  
 This is part of the Gaussian(R) 16 program.  It is based on
 the Gaussian(R) 09 system (copyright 2009, Gaussian, Inc.),
 the Gaussian(R) 03 system (copyright 2003, Gaussian, Inc.),
 the Gaussian(R) 98 system (copyright 1998, Gaussian, Inc.),
 the Gaussian(R) 94 system (copyright 1995, Gaussian, Inc.),
 the Gaussian 92(TM) system (copyright 1992, Gaussian, Inc.),
 the Gaussian 90(TM) system (copyright 1990, Gaussian, Inc.),
 the Gaussian 88(TM) system (copyright 1988, Gaussian, Inc.),
 the Gaussian 86(TM) system (copyright 1986, Carnegie Mellon
 University), and the Gaussian 82(TM) system (copyright 1983,
 Carnegie Mellon University). Gaussian is a federally registered
 trademark of Gaussian, Inc.
  
 This software contains proprietary and confidential information,
 including trade secrets, belonging to Gaussian, Inc.
  
 This software is provided under written license and may be
 used, copied, transmitted, or stored only in accord with that
 written license.
  
 The following legend is applicable only to US Government
 contracts under FAR:
  
                    RESTRICTED RIGHTS LEGEND
  
 Use, reproduction and disclosure by the US Government is
 subject to restrictions as set forth in subparagraphs (a)
 and (c) of the Commercial Computer Software - Restricted
 Rights clause in FAR 52.227-19.
  
 Gaussian, Inc.
 340 Quinnipiac St., Bldg. 40, Wallingford CT 06492
  
  
 ---------------------------------------------------------------
 Warning -- This program may not be used in any manner that
 competes with the business of Gaussian, Inc. or will provide
 assistance to any competitor of Gaussian, Inc.  The licensee
 of this program is prohibited from giving any competitor of
 Gaussian, Inc. access to this program.  By using this program,
 the user acknowledges that Gaussian, Inc. is engaged in the
 business of creating and licensing software in the field of
 computational chemistry and represents and warrants to the
 licensee that it is not a competitor of Gaussian, Inc. and that
 it will not use this program in any manner prohibited above.
 ---------------------------------------------------------------
  

 Cite this work as:
 Gaussian 16, Revision C.01,
 M. J. Frisch, G. W. Trucks, H. B. Schlegel, G. E. Scuseria, 
 M. A. Robb, J. R. Cheeseman, G. Scalmani, V. Barone, 
 G. A. Petersson, H. Nakatsuji, X. Li, M. Caricato, A. V. Marenich, 
 J. Bloino, B. G. Janesko, R. Gomperts, B. Mennucci, H. P. Hratchian, 
 J. V. Ortiz, A. F. Izmaylov, J. L. Sonnenberg, D. Williams-Young, 
 F. Ding, F. Lipparini, F. Egidi, J. Goings, B. Peng, A. Petrone, 
 T. Henderson, D. Ranasinghe, V. G. Zakrzewski, J. Gao, N. Rega, 
 G. Zheng, W. Liang, M. Hada, M. Ehara, K. Toyota, R. Fukuda, 
 J. Hasegawa, M. Ishida, T. Nakajima, Y. Honda, O. Kitao, H. Nakai, 
 T. Vreven, K. Throssell, J. A. Montgomery, Jr., J. E. Peralta, 
 F. Ogliaro, M. J. Bearpark, J. J. Heyd, E. N. Brothers, K. N. Kudin, 
 V. N. Staroverov, T. A. Keith, R. Kobayashi, J. Normand, 
 K. Raghavachari, A. P. Rendell, J. C. Burant, S. S. Iyengar, 
 J. Tomasi, M. Cossi, J. M. Millam, M. Klene, C. Adamo, R. Cammi, 
 J. W. Ochterski, R. L. Martin, K. Morokuma, O. Farkas, 
 J. B. Foresman, and D. J. Fox, Gaussian, Inc., Wallingford CT, 2019.
 
 ******************************************
 Gaussian 16:  ES64L-G16RevC.01  3-Jul-2019
                 8-Apr-2025 
 ******************************************
 %nprocs=16
 Will use up to   16 processors via shared memory.
 %mem=30GB
 %chk=3B-69_16a_triazolidinedione_dimerBC_mol1.chk
 ----------------------------------------------------------------------
 #t hf aug-cc-pvdz symm=none int=(grid=ultrafine) guess=(read,tcheck) s
 table=(opt,rrhf)
 ----------------------------------------------------------------------
 -----
 title
 -----
 Symbolic Z-matrix:
 Charge =  0 Multiplicity = 1
 N                     4.7582    16.90365   2.1705 
 N                     5.21657   15.90098   1.29739 
 C                     4.80265   16.21938   0.03373 
 N                     4.27939   17.49231   0.11949 
 C                     4.25626   17.92392   1.42893 
 O                     4.89088   15.54291  -0.98657 
 O                     3.856     19.01677   1.83503 
 H                     5.31049   17.11008   3.01228 
 H                     5.16383   14.93693   1.62596 
 H                     3.86262   18.00468  -0.67323 
 N                     8.2202    16.90365   2.1705 
 N                     8.67857   15.90098   1.29739 
 C                     8.26465   16.21938   0.03373 
 N                     7.74139   17.49231   0.11949 
 C                     7.71827   17.92392   1.42893 
 O                     8.35288   15.54291  -0.98657 
 O                     7.318     19.01677   1.83503 
 H                     8.77249   17.11008   3.01228 
 H                     8.62583   14.93693   1.62596 
 H                     7.32462   18.00468  -0.67323 
 
                    Distance matrix (angstroms):
                    1          2          3          4          5
     1  N    0.000000
     2  N    1.406329   0.000000
     3  C    2.244095   1.367312   0.000000
     4  N    2.186874   2.190457   1.378954   0.000000
     5  C    1.357502   2.243160   2.269484   1.378930   0.000000
     6  O    3.440391   2.334688   1.227361   2.323243   3.450589
     7  O    2.322021   3.442145   3.459224   2.333737   1.232664
     8  H    1.027737   2.100379   3.150079   3.094757   2.068994
     9  H    2.080635   1.019865   2.076126   3.095425   3.128033
    10  H    3.178226   3.184667   2.137935   1.031807   2.140220
    11  N    3.462000   3.284730   4.088230   4.481420   4.159765
    12  N    4.139681   3.462000   4.089127   4.824164   4.864808
    13  C    4.162834   3.314968   3.462000   4.184495   4.573748
    14  N    3.667779   3.208509   3.203735   3.462000   3.747936
    15  C    3.217587   3.219948   3.654152   3.704964   3.462000
    16  O    4.973974   3.896299   3.755365   4.649392   5.318466
    17  O    3.336226   3.796477   4.170980   3.807914   3.276199
    18  H    4.106796   4.128846   5.042296   5.357454   4.854448
    19  H    4.372995   3.558147   4.335500   5.262220   5.296604
    20  H    3.985669   3.571104   3.169767   3.188153   3.720264
                    6          7          8          9         10
     6  O    0.000000
     7  O    4.593488   0.000000
     8  H    4.315426   2.671503   0.000000
     9  H    2.695738   4.289432   2.581857   0.000000
    10  H    2.686231   2.704763   4.059512   4.048520   0.000000
    11  N    4.785713   4.860457   3.036049   3.675036   5.318606
    12  N    4.437486   5.766661   3.968211   3.659334   5.612692
    13  C    3.589005   5.523248   4.288605   3.714152   4.802603
    14  N    3.626149   4.512575   3.797843   3.929789   3.991969
    15  C    4.415647   4.034394   2.994445   3.935231   4.392221
    16  O    3.462000   6.344374   5.263358   4.166838   5.130397
    17  O    5.091176   3.462000   3.008565   4.618361   4.388095
    18  H    5.789107   5.403081   3.462000   4.434741   6.204046
    19  H    4.598082   6.280134   4.199516   3.462000   6.114373
    20  H    3.475858   4.398522   4.294180   4.400722   3.462000
                   11         12         13         14         15
    11  N    0.000000
    12  N    1.406329   0.000000
    13  C    2.244095   1.367312   0.000000
    14  N    2.186874   2.190457   1.378954   0.000000
    15  C    1.357502   2.243160   2.269484   1.378930   0.000000
    16  O    3.440391   2.334688   1.227361   2.323243   3.450589
    17  O    2.322021   3.442145   3.459224   2.333737   1.232664
    18  H    1.027737   2.100379   3.150079   3.094757   2.068994
    19  H    2.080635   1.019865   2.076126   3.095425   3.128033
    20  H    3.178226   3.184667   2.137935   1.031807   2.140220
                   16         17         18         19         20
    16  O    0.000000
    17  O    4.593488   0.000000
    18  H    4.315426   2.671503   0.000000
    19  H    2.695738   4.289432   2.581857   0.000000
    20  H    2.686231   2.704763   4.059512   4.048520   0.000000
 Symmetry turned off by external request.
 Rotational constants (GHZ):           1.0156211           0.6338000           0.4755446
   376 basis functions,   668 primitive gaussians,   404 cartesian basis functions
    52 alpha electrons       52 beta electrons
       nuclear repulsion energy       961.4784869240 Hartrees.
 NAtoms=   20 NActive=   20 NUniq=   20 SFac= 1.00D+00 NAtFMM=   60 NAOKFM=F Big=F
 ExpMin= 2.97D-02 ExpMax= 1.17D+04 ExpMxC= 4.01D+02 IAcc=3 IRadAn=         5 AccDes= 0.00D+00
 Harris functional with IExCor=  205 and IRadAn=       5 diagonalized for initial guess.
 HarFok:  IExCor=  205 AccDes= 0.00D+00 IRadAn=         5 IDoV= 1 UseB2=F ITyADJ=14
 ICtDFT=  3500011 ScaDFX=  1.000000  1.000000  1.000000  1.000000
 FoFCou: FMM=F IPFlag=           0 FMFlag=      100000 FMFlg1=           0
         NFxFlg=           0 DoJE=T BraDBF=F KetDBF=T FulRan=T
         wScrn=  0.000000 ICntrl=       500 IOpCl=  0 I1Cent=   200000004 NGrid=           0
         NMat0=    1 NMatS0=      1 NMatT0=    0 NMatD0=    1 NMtDS0=    0 NMtDT0=    0
 Symmetry not used in FoFCou.
 SCF Done:  E(RHF) =  -781.246605677     A.U. after   14 cycles
            NFock= 14  Conv=0.24D-08     -V/T= 2.0017

 **********************************************************************

            Population analysis using the SCF Density.

 **********************************************************************

 Alpha  occ. eigenvalues --  -20.56508 -20.56092 -20.55902 -20.55050 -15.67642
 Alpha  occ. eigenvalues --  -15.67256 -15.67076 -15.66450 -15.65332 -15.65003
 Alpha  occ. eigenvalues --  -11.43403 -11.42957 -11.42944 -11.42264  -1.48409
 Alpha  occ. eigenvalues --   -1.47754  -1.40838  -1.40205  -1.36699  -1.35999
 Alpha  occ. eigenvalues --   -1.26731  -1.26254  -1.15909  -1.15263  -0.92212
 Alpha  occ. eigenvalues --   -0.91708  -0.88929  -0.88415  -0.78408  -0.77761
 Alpha  occ. eigenvalues --   -0.76081  -0.74595  -0.71773  -0.71345  -0.69804
 Alpha  occ. eigenvalues --   -0.67985  -0.65908  -0.65371  -0.64560  -0.63852
 Alpha  occ. eigenvalues --   -0.59027  -0.57048  -0.55535  -0.54572  -0.49302
 Alpha  occ. eigenvalues --   -0.48725  -0.46125  -0.45570  -0.45449  -0.44310
 Alpha  occ. eigenvalues --   -0.40832  -0.40098
 Alpha virt. eigenvalues --    0.01141   0.03136   0.03848   0.04120   0.05761
 Alpha virt. eigenvalues --    0.06062   0.07881   0.08861   0.09362   0.09861
 Alpha virt. eigenvalues --    0.10617   0.11899   0.12294   0.12538   0.12859
 Alpha virt. eigenvalues --    0.13409   0.14071   0.14389   0.14698   0.15089
 Alpha virt. eigenvalues --    0.15467   0.15762   0.16206   0.16650   0.17106
 Alpha virt. eigenvalues --    0.17623   0.18067   0.18396   0.19343   0.20208
 Alpha virt. eigenvalues --    0.21156   0.21425   0.22176   0.22688   0.23050
 Alpha virt. eigenvalues --    0.24205   0.24953   0.25685   0.26168   0.27150
 Alpha virt. eigenvalues --    0.27593   0.28433   0.29208   0.29639   0.30018
 Alpha virt. eigenvalues --    0.30869   0.31706   0.32398   0.32909   0.33056
 Alpha virt. eigenvalues --    0.33460   0.34172   0.34443   0.34614   0.35221
 Alpha virt. eigenvalues --    0.35601   0.35794   0.36728   0.36927   0.37666
 Alpha virt. eigenvalues --    0.38351   0.38736   0.38999   0.39231   0.39820
 Alpha virt. eigenvalues --    0.40193   0.40767   0.41378   0.41821   0.42859
 Alpha virt. eigenvalues --    0.43201   0.44056   0.44597   0.45443   0.45833
 Alpha virt. eigenvalues --    0.47751   0.48427   0.49728   0.49986   0.50342
 Alpha virt. eigenvalues --    0.51260   0.51577   0.52886   0.53190   0.54280
 Alpha virt. eigenvalues --    0.55230   0.56222   0.56376   0.57140   0.58046
 Alpha virt. eigenvalues --    0.58502   0.60520   0.61419   0.61994   0.63396
 Alpha virt. eigenvalues --    0.63797   0.64643   0.65423   0.65931   0.66263
 Alpha virt. eigenvalues --    0.66710   0.67372   0.67965   0.69101   0.70307
 Alpha virt. eigenvalues --    0.70567   0.71022   0.72363   0.72842   0.73763
 Alpha virt. eigenvalues --    0.74811   0.76314   0.77651   0.78820   0.79226
 Alpha virt. eigenvalues --    0.80053   0.80477   0.81570   0.82143   0.82936
 Alpha virt. eigenvalues --    0.83618   0.84024   0.85008   0.85573   0.86767
 Alpha virt. eigenvalues --    0.88300   0.89251   0.90189   0.90645   0.92167
 Alpha virt. eigenvalues --    0.93378   0.94281   0.95380   0.95723   0.96916
 Alpha virt. eigenvalues --    0.97711   0.98124   0.98961   0.99092   1.00485
 Alpha virt. eigenvalues --    1.01706   1.02996   1.04240   1.05202   1.06922
 Alpha virt. eigenvalues --    1.07180   1.09695   1.10300   1.10631   1.11735
 Alpha virt. eigenvalues --    1.12338   1.14367   1.15634   1.15822   1.16770
 Alpha virt. eigenvalues --    1.17835   1.19342   1.20749   1.21592   1.23489
 Alpha virt. eigenvalues --    1.24262   1.25649   1.27200   1.28238   1.29245
 Alpha virt. eigenvalues --    1.30341   1.31619   1.32104   1.33252   1.34874
 Alpha virt. eigenvalues --    1.34970   1.36214   1.36949   1.38891   1.40028
 Alpha virt. eigenvalues --    1.41452   1.42776   1.43579   1.44339   1.44798
 Alpha virt. eigenvalues --    1.45471   1.45979   1.46960   1.48154   1.50380
 Alpha virt. eigenvalues --    1.51125   1.52380   1.55491   1.56124   1.58787
 Alpha virt. eigenvalues --    1.61723   1.62605   1.64859   1.66206   1.67091
 Alpha virt. eigenvalues --    1.69436   1.70243   1.70973   1.75770   1.77062
 Alpha virt. eigenvalues --    1.78390   1.81109   1.83240   1.85274   1.85969
 Alpha virt. eigenvalues --    1.87596   1.87891   1.89931   1.90669   1.92252
 Alpha virt. eigenvalues --    1.94195   1.94889   1.96081   1.97015   1.99488
 Alpha virt. eigenvalues --    2.00070   2.01738   2.04886   2.06930   2.09394
 Alpha virt. eigenvalues --    2.11041   2.13002   2.15938   2.16342   2.18137
 Alpha virt. eigenvalues --    2.19944   2.21232   2.22694   2.23587   2.25781
 Alpha virt. eigenvalues --    2.25978   2.27148   2.28046   2.29067   2.29401
 Alpha virt. eigenvalues --    2.33015   2.33260   2.34822   2.36074   2.37189
 Alpha virt. eigenvalues --    2.38676   2.39615   2.42306   2.43551   2.44450
 Alpha virt. eigenvalues --    2.45597   2.46232   2.48951   2.50668   2.52418
 Alpha virt. eigenvalues --    2.53448   2.54842   2.55420   2.56869   2.58764
 Alpha virt. eigenvalues --    2.59476   2.61513   2.62873   2.63832   2.65178
 Alpha virt. eigenvalues --    2.66581   2.70046   2.71353   2.73251   2.74880
 Alpha virt. eigenvalues --    2.78530   2.80132   2.81187   2.81269   2.82154
 Alpha virt. eigenvalues --    2.85972   2.86514   2.88899   2.90191   2.93747
 Alpha virt. eigenvalues --    2.95676   2.97064   2.99011   3.02084   3.03329
 Alpha virt. eigenvalues --    3.03869   3.05606   3.10794   3.12293   3.13654
 Alpha virt. eigenvalues --    3.16199   3.22346   3.26242   3.27443   3.28878
 Alpha virt. eigenvalues --    3.31352   3.34157   3.42219   3.43199   3.47286
 Alpha virt. eigenvalues --    3.49766   3.56194   3.58135   3.70531   3.71386
 Alpha virt. eigenvalues --    3.74121   3.75839   3.78096   3.79667   3.79727
 Alpha virt. eigenvalues --    3.80627   3.83325   3.83786   3.84239   3.86681
 Alpha virt. eigenvalues --    3.86840   3.87976   3.88944   3.92904   4.01040
 Alpha virt. eigenvalues --    4.01530   4.03113   4.03679   4.04771   4.07933
 Alpha virt. eigenvalues --    4.26067   4.28230   4.32564   4.36354
          Condensed to atoms (all electrons):
 Mulliken charges:
               1
     1  N   -0.145561
     2  N   -0.355546
     3  C    1.326850
     4  N   -0.534633
     5  C    1.210372
     6  O   -0.767635
     7  O   -0.756765
     8  H    0.034194
     9  H    0.041616
    10  H   -0.055862
    11  N   -0.463105
    12  N   -0.187945
    13  C    1.231078
    14  N   -0.278864
    15  C    1.251879
    16  O   -0.749776
    17  O   -0.792236
    18  H    0.039671
    19  H    0.015034
    20  H   -0.062767
 Sum of Mulliken charges =  -0.00000
 Mulliken charges with hydrogens summed into heavy atoms:
               1
     1  N   -0.111367
     2  N   -0.313930
     3  C    1.326850
     4  N   -0.590495
     5  C    1.210372
     6  O   -0.767635
     7  O   -0.756765
    11  N   -0.423434
    12  N   -0.172911
    13  C    1.231078
    14  N   -0.341631
    15  C    1.251879
    16  O   -0.749776
    17  O   -0.792236
 Electronic spatial extent (au):  <R**2>=         124723.3903
 Charge=             -0.0000 electrons
 Dipole moment (field-independent basis, Debye):
    X=              1.9772    Y=             -3.0482    Z=              4.2119  Tot=              5.5625
 NROrb=    376 NOA=    52 NOB=    52 NVA=   324 NVB=   324

 **** Warning!!: The largest alpha MO coefficient is  0.38502210D+02

    12 initial guesses have been made.
 Iteration     1 Dimension    12 NMult     0 NNew     12
 New state      1 was old state      2
 Iteration     2 Dimension    24 NMult    12 NNew     12
 Iteration     3 Dimension    27 NMult    24 NNew      3
 Iteration     4 Dimension    30 NMult    27 NNew      3
 Iteration     5 Dimension    33 NMult    30 NNew      3
 Iteration     6 Dimension    36 NMult    33 NNew      3
 Iteration     7 Dimension    39 NMult    36 NNew      3
 Iteration     8 Dimension    42 NMult    39 NNew      3
 Iteration     9 Dimension    45 NMult    42 NNew      3
 Iteration    10 Dimension    48 NMult    45 NNew      3
 Iteration    11 Dimension    51 NMult    48 NNew      3
 Iteration    12 Dimension    54 NMult    51 NNew      3
 Iteration    13 Dimension    57 NMult    54 NNew      3
 ***********************************************************************
 Stability analysis using <AA,BB:AA,BB> singles matrix:
 ***********************************************************************
 Ground to excited state transition densities written to RWF  633

 Eigenvectors of the stability matrix:
 
 Excited state symmetry could not be determined.
 Eigenvector   1:      Singlet-?Sym  Eigenvalue= 0.2604248  <S**2>=0.000
      51 -> 53         0.54645
      51 -> 54         0.17592
      51 -> 56        -0.10837
      51 -> 64        -0.20288
      52 -> 53         0.16903
 The wavefunction is stable under the perturbations considered.
 The wavefunction is already stable.

 **********************************************************************

            Population analysis using the SCF Density.

 **********************************************************************

 Alpha  occ. eigenvalues --  -20.56508 -20.56092 -20.55902 -20.55050 -15.67642
 Alpha  occ. eigenvalues --  -15.67256 -15.67076 -15.66450 -15.65332 -15.65003
 Alpha  occ. eigenvalues --  -11.43403 -11.42957 -11.42944 -11.42264  -1.48409
 Alpha  occ. eigenvalues --   -1.47754  -1.40838  -1.40205  -1.36699  -1.35999
 Alpha  occ. eigenvalues --   -1.26731  -1.26254  -1.15909  -1.15263  -0.92212
 Alpha  occ. eigenvalues --   -0.91708  -0.88929  -0.88415  -0.78408  -0.77761
 Alpha  occ. eigenvalues --   -0.76081  -0.74595  -0.71773  -0.71345  -0.69804
 Alpha  occ. eigenvalues --   -0.67985  -0.65908  -0.65371  -0.64560  -0.63852
 Alpha  occ. eigenvalues --   -0.59027  -0.57048  -0.55535  -0.54572  -0.49302
 Alpha  occ. eigenvalues --   -0.48725  -0.46125  -0.45570  -0.45449  -0.44310
 Alpha  occ. eigenvalues --   -0.40832  -0.40098
 Alpha virt. eigenvalues --    0.01141   0.03136   0.03848   0.04120   0.05761
 Alpha virt. eigenvalues --    0.06062   0.07881   0.08861   0.09362   0.09861
 Alpha virt. eigenvalues --    0.10617   0.11899   0.12294   0.12538   0.12859
 Alpha virt. eigenvalues --    0.13409   0.14071   0.14389   0.14698   0.15089
 Alpha virt. eigenvalues --    0.15467   0.15762   0.16206   0.16650   0.17106
 Alpha virt. eigenvalues --    0.17623   0.18067   0.18396   0.19343   0.20208
 Alpha virt. eigenvalues --    0.21156   0.21425   0.22176   0.22688   0.23050
 Alpha virt. eigenvalues --    0.24205   0.24953   0.25685   0.26168   0.27150
 Alpha virt. eigenvalues --    0.27593   0.28433   0.29208   0.29639   0.30018
 Alpha virt. eigenvalues --    0.30869   0.31706   0.32398   0.32909   0.33056
 Alpha virt. eigenvalues --    0.33460   0.34172   0.34443   0.34614   0.35221
 Alpha virt. eigenvalues --    0.35601   0.35794   0.36728   0.36927   0.37666
 Alpha virt. eigenvalues --    0.38351   0.38736   0.38999   0.39231   0.39820
 Alpha virt. eigenvalues --    0.40193   0.40767   0.41378   0.41821   0.42859
 Alpha virt. eigenvalues --    0.43201   0.44056   0.44597   0.45443   0.45833
 Alpha virt. eigenvalues --    0.47751   0.48427   0.49728   0.49986   0.50342
 Alpha virt. eigenvalues --    0.51260   0.51577   0.52886   0.53190   0.54280
 Alpha virt. eigenvalues --    0.55230   0.56222   0.56376   0.57140   0.58046
 Alpha virt. eigenvalues --    0.58502   0.60520   0.61419   0.61994   0.63396
 Alpha virt. eigenvalues --    0.63797   0.64643   0.65423   0.65931   0.66263
 Alpha virt. eigenvalues --    0.66710   0.67372   0.67965   0.69101   0.70307
 Alpha virt. eigenvalues --    0.70567   0.71022   0.72363   0.72842   0.73763
 Alpha virt. eigenvalues --    0.74811   0.76314   0.77651   0.78820   0.79226
 Alpha virt. eigenvalues --    0.80053   0.80477   0.81570   0.82143   0.82936
 Alpha virt. eigenvalues --    0.83618   0.84024   0.85008   0.85573   0.86767
 Alpha virt. eigenvalues --    0.88300   0.89251   0.90189   0.90645   0.92167
 Alpha virt. eigenvalues --    0.93378   0.94281   0.95380   0.95723   0.96916
 Alpha virt. eigenvalues --    0.97711   0.98124   0.98961   0.99092   1.00485
 Alpha virt. eigenvalues --    1.01706   1.02996   1.04240   1.05202   1.06922
 Alpha virt. eigenvalues --    1.07180   1.09695   1.10300   1.10631   1.11735
 Alpha virt. eigenvalues --    1.12338   1.14367   1.15634   1.15822   1.16770
 Alpha virt. eigenvalues --    1.17835   1.19342   1.20749   1.21592   1.23489
 Alpha virt. eigenvalues --    1.24262   1.25649   1.27200   1.28238   1.29245
 Alpha virt. eigenvalues --    1.30341   1.31619   1.32104   1.33252   1.34874
 Alpha virt. eigenvalues --    1.34970   1.36214   1.36949   1.38891   1.40028
 Alpha virt. eigenvalues --    1.41452   1.42776   1.43579   1.44339   1.44798
 Alpha virt. eigenvalues --    1.45471   1.45979   1.46960   1.48154   1.50380
 Alpha virt. eigenvalues --    1.51125   1.52380   1.55491   1.56124   1.58787
 Alpha virt. eigenvalues --    1.61723   1.62605   1.64859   1.66206   1.67091
 Alpha virt. eigenvalues --    1.69436   1.70243   1.70973   1.75770   1.77062
 Alpha virt. eigenvalues --    1.78390   1.81109   1.83240   1.85274   1.85969
 Alpha virt. eigenvalues --    1.87596   1.87891   1.89931   1.90669   1.92252
 Alpha virt. eigenvalues --    1.94195   1.94889   1.96081   1.97015   1.99488
 Alpha virt. eigenvalues --    2.00070   2.01738   2.04886   2.06930   2.09394
 Alpha virt. eigenvalues --    2.11041   2.13002   2.15938   2.16342   2.18137
 Alpha virt. eigenvalues --    2.19944   2.21232   2.22694   2.23587   2.25781
 Alpha virt. eigenvalues --    2.25978   2.27148   2.28046   2.29067   2.29401
 Alpha virt. eigenvalues --    2.33015   2.33260   2.34822   2.36074   2.37189
 Alpha virt. eigenvalues --    2.38676   2.39615   2.42306   2.43551   2.44450
 Alpha virt. eigenvalues --    2.45597   2.46232   2.48951   2.50668   2.52418
 Alpha virt. eigenvalues --    2.53448   2.54842   2.55420   2.56869   2.58764
 Alpha virt. eigenvalues --    2.59476   2.61513   2.62873   2.63832   2.65178
 Alpha virt. eigenvalues --    2.66581   2.70046   2.71353   2.73251   2.74880
 Alpha virt. eigenvalues --    2.78530   2.80132   2.81187   2.81269   2.82154
 Alpha virt. eigenvalues --    2.85972   2.86514   2.88899   2.90191   2.93747
 Alpha virt. eigenvalues --    2.95676   2.97064   2.99011   3.02084   3.03329
 Alpha virt. eigenvalues --    3.03869   3.05606   3.10794   3.12293   3.13654
 Alpha virt. eigenvalues --    3.16199   3.22346   3.26242   3.27443   3.28878
 Alpha virt. eigenvalues --    3.31352   3.34157   3.42219   3.43199   3.47286
 Alpha virt. eigenvalues --    3.49766   3.56194   3.58135   3.70531   3.71386
 Alpha virt. eigenvalues --    3.74121   3.75839   3.78096   3.79667   3.79727
 Alpha virt. eigenvalues --    3.80627   3.83325   3.83786   3.84239   3.86681
 Alpha virt. eigenvalues --    3.86840   3.87976   3.88944   3.92904   4.01040
 Alpha virt. eigenvalues --    4.01530   4.03113   4.03679   4.04771   4.07933
 Alpha virt. eigenvalues --    4.26067   4.28230   4.32564   4.36354
          Condensed to atoms (all electrons):
 Mulliken charges:
               1
     1  N   -0.145561
     2  N   -0.355546
     3  C    1.326850
     4  N   -0.534633
     5  C    1.210372
     6  O   -0.767635
     7  O   -0.756765
     8  H    0.034194
     9  H    0.041616
    10  H   -0.055862
    11  N   -0.463105
    12  N   -0.187945
    13  C    1.231078
    14  N   -0.278864
    15  C    1.251879
    16  O   -0.749776
    17  O   -0.792236
    18  H    0.039671
    19  H    0.015034
    20  H   -0.062767
 Sum of Mulliken charges =  -0.00000
 Mulliken charges with hydrogens summed into heavy atoms:
               1
     1  N   -0.111367
     2  N   -0.313930
     3  C    1.326850
     4  N   -0.590495
     5  C    1.210372
     6  O   -0.767635
     7  O   -0.756765
    11  N   -0.423434
    12  N   -0.172911
    13  C    1.231078
    14  N   -0.341631
    15  C    1.251879
    16  O   -0.749776
    17  O   -0.792236
 Electronic spatial extent (au):  <R**2>=         124723.3903
 Charge=             -0.0000 electrons
 Dipole moment (field-independent basis, Debye):
    X=              1.9772    Y=             -3.0482    Z=              4.2119  Tot=              5.5625
 Unable to Open any file for archive entry.
 1\1\GINC-SE092\Stability\RHF\Aug-CC-pVDZ\C4H6N6O4\OHZDE\08-Apr-2025\0\
 \#t hf aug-cc-pvdz symm=none int=(grid=ultrafine) guess=(read,tcheck) 
 stable=(opt,rrhf)\\title\\0,1\N,0,4.758199,16.90365,2.170497\N,0,5.216
 569,15.90098,1.297392\C,0,4.80265,16.21938,0.033733\N,0,4.279392,17.49
 2314,0.119488\C,0,4.256265,17.923919,1.428927\O,0,4.89088,15.54291,-0.
 98657\O,0,3.856001,19.016772,1.835033\H,0,5.310494,17.110082,3.01228\H
 ,0,5.163831,14.936932,1.625956\H,0,3.862617,18.004684,-0.673229\N,0,8.
 220199,16.90365,2.170497\N,0,8.678569,15.90098,1.297392\C,0,8.26465,16
 .21938,0.033733\N,0,7.741392,17.492314,0.119488\C,0,7.718265,17.923919
 ,1.428927\O,0,8.35288,15.54291,-0.98657\O,0,7.318001,19.016772,1.83503
 3\H,0,8.772494,17.110082,3.01228\H,0,8.625831,14.936932,1.625956\H,0,7
 .324617,18.004684,-0.673229\\Version=ES64L-G16RevC.01\HF=-781.2466057\
 RMSD=2.422e-09\Dipole=0.7778944,-1.199264,1.6570769\Quadrupole=39.4769
 518,-65.1549325,25.6779807,14.3254042,30.8163342,32.8219026\PG=Unknown
 \\@
 The archive entry for this job was punched.


 What some people mistake for the high cost
 of living is really the cost of living high.
                              -- Doug Larson
 Job cpu time:       0 days  1 hours 18 minutes 13.5 seconds.
 Elapsed time:       0 days  0 hours  5 minutes 21.8 seconds.
 File lengths (MBytes):  RWF=    695 Int=      0 D2E=      0 Chk=     19 Scr=      1
 Normal termination of Gaussian 16 at Tue Apr  8 19:14:05 2025.
 Initial command:
 /arc/software/Gaussian/g16.c01/l1.exe "/tmp/slurm/4832917/Gau-3029199.inp" -scrdir="/tmp/slurm/4832917/"
 Entering Link 1 = /arc/software/Gaussian/g16.c01/l1.exe PID=   3029494.
  
 Copyright (c) 1988-2019, Gaussian, Inc.  All Rights Reserved.
  
 This is part of the Gaussian(R) 16 program.  It is based on
 the Gaussian(R) 09 system (copyright 2009, Gaussian, Inc.),
 the Gaussian(R) 03 system (copyright 2003, Gaussian, Inc.),
 the Gaussian(R) 98 system (copyright 1998, Gaussian, Inc.),
 the Gaussian(R) 94 system (copyright 1995, Gaussian, Inc.),
 the Gaussian 92(TM) system (copyright 1992, Gaussian, Inc.),
 the Gaussian 90(TM) system (copyright 1990, Gaussian, Inc.),
 the Gaussian 88(TM) system (copyright 1988, Gaussian, Inc.),
 the Gaussian 86(TM) system (copyright 1986, Carnegie Mellon
 University), and the Gaussian 82(TM) system (copyright 1983,
 Carnegie Mellon University). Gaussian is a federally registered
 trademark of Gaussian, Inc.
  
 This software contains proprietary and confidential information,
 including trade secrets, belonging to Gaussian, Inc.
  
 This software is provided under written license and may be
 used, copied, transmitted, or stored only in accord with that
 written license.
  
 The following legend is applicable only to US Government
 contracts under FAR:
  
                    RESTRICTED RIGHTS LEGEND
  
 Use, reproduction and disclosure by the US Government is
 subject to restrictions as set forth in subparagraphs (a)
 and (c) of the Commercial Computer Software - Restricted
 Rights clause in FAR 52.227-19.
  
 Gaussian, Inc.
 340 Quinnipiac St., Bldg. 40, Wallingford CT 06492
  
  
 ---------------------------------------------------------------
 Warning -- This program may not be used in any manner that
 competes with the business of Gaussian, Inc. or will provide
 assistance to any competitor of Gaussian, Inc.  The licensee
 of this program is prohibited from giving any competitor of
 Gaussian, Inc. access to this program.  By using this program,
 the user acknowledges that Gaussian, Inc. is engaged in the
 business of creating and licensing software in the field of
 computational chemistry and represents and warrants to the
 licensee that it is not a competitor of Gaussian, Inc. and that
 it will not use this program in any manner prohibited above.
 ---------------------------------------------------------------
  

 Cite this work as:
 Gaussian 16, Revision C.01,
 M. J. Frisch, G. W. Trucks, H. B. Schlegel, G. E. Scuseria, 
 M. A. Robb, J. R. Cheeseman, G. Scalmani, V. Barone, 
 G. A. Petersson, H. Nakatsuji, X. Li, M. Caricato, A. V. Marenich, 
 J. Bloino, B. G. Janesko, R. Gomperts, B. Mennucci, H. P. Hratchian, 
 J. V. Ortiz, A. F. Izmaylov, J. L. Sonnenberg, D. Williams-Young, 
 F. Ding, F. Lipparini, F. Egidi, J. Goings, B. Peng, A. Petrone, 
 T. Henderson, D. Ranasinghe, V. G. Zakrzewski, J. Gao, N. Rega, 
 G. Zheng, W. Liang, M. Hada, M. Ehara, K. Toyota, R. Fukuda, 
 J. Hasegawa, M. Ishida, T. Nakajima, Y. Honda, O. Kitao, H. Nakai, 
 T. Vreven, K. Throssell, J. A. Montgomery, Jr., J. E. Peralta, 
 F. Ogliaro, M. J. Bearpark, J. J. Heyd, E. N. Brothers, K. N. Kudin, 
 V. N. Staroverov, T. A. Keith, R. Kobayashi, J. Normand, 
 K. Raghavachari, A. P. Rendell, J. C. Burant, S. S. Iyengar, 
 J. Tomasi, M. Cossi, J. M. Millam, M. Klene, C. Adamo, R. Cammi, 
 J. W. Ochterski, R. L. Martin, K. Morokuma, O. Farkas, 
 J. B. Foresman, and D. J. Fox, Gaussian, Inc., Wallingford CT, 2019.
 
 ******************************************
 Gaussian 16:  ES64L-G16RevC.01  3-Jul-2019
                 8-Apr-2025 
 ******************************************
 %nprocs=16
 Will use up to   16 processors via shared memory.
 %mem=30GB
 %chk=3B-69_16a_triazolidinedione_dimerBC_mol1.chk
 ----------------------------------------------------------------------
 #t hf aug-cc-pvdz iop(5/13=1,5/36=2,99/5=2) pseudo=read geom=check gue
 ss=(read,tcheck) scf=(maxcycle=1)
 ----------------------------------------------------------------------
 -----
 title
 -----
 Structure from the checkpoint file:  "3B-69_16a_triazolidinedione_dimerBC_mol1.chk"
 Charge =  0 Multiplicity = 1
 Z-Matrix found in chk file.
 N,0,4.758199,16.90365,2.170497
 N,0,5.216569,15.90098,1.297392
 C,0,4.80265,16.21938,0.033733
 N,0,4.279392,17.492314,0.119488
 C,0,4.256265,17.923919,1.428927
 O,0,4.89088,15.54291,-0.98657
 O,0,3.856001,19.016772,1.835033
 H,0,5.310494,17.110082,3.01228
 H,0,5.163831,14.936932,1.625956
 H,0,3.862617,18.004684,-0.673229
 N,0,8.220199,16.90365,2.170497
 N,0,8.678569,15.90098,1.297392
 C,0,8.26465,16.21938,0.033733
 N,0,7.741392,17.492314,0.119488
 C,0,7.718265,17.923919,1.428927
 O,0,8.35288,15.54291,-0.98657
 O,0,7.318001,19.016772,1.835033
 H,0,8.772494,17.110082,3.01228
 H,0,8.625831,14.936932,1.625956
 H,0,7.324617,18.004684,-0.673229
 Recover connectivity data from disk.
                    Distance matrix (angstroms):
                    1          2          3          4          5
     1  N    0.000000
     2  N    1.406329   0.000000
     3  C    2.244095   1.367312   0.000000
     4  N    2.186874   2.190457   1.378954   0.000000
     5  C    1.357502   2.243160   2.269484   1.378930   0.000000
     6  O    3.440391   2.334688   1.227361   2.323243   3.450589
     7  O    2.322021   3.442145   3.459224   2.333737   1.232664
     8  H    1.027737   2.100379   3.150079   3.094757   2.068994
     9  H    2.080635   1.019865   2.076126   3.095425   3.128033
    10  H    3.178226   3.184667   2.137935   1.031807   2.140220
    11  N    3.462000   3.284730   4.088230   4.481420   4.159765
    12  N    4.139681   3.462000   4.089127   4.824164   4.864808
    13  C    4.162834   3.314968   3.462000   4.184495   4.573748
    14  N    3.667779   3.208509   3.203735   3.462000   3.747936
    15  C    3.217587   3.219948   3.654152   3.704964   3.462000
    16  O    4.973974   3.896299   3.755365   4.649392   5.318466
    17  O    3.336226   3.796477   4.170980   3.807914   3.276199
    18  H    4.106796   4.128846   5.042296   5.357454   4.854448
    19  H    4.372995   3.558147   4.335500   5.262220   5.296604
    20  H    3.985669   3.571104   3.169767   3.188153   3.720264
                    6          7          8          9         10
     6  O    0.000000
     7  O    4.593488   0.000000
     8  H    4.315426   2.671503   0.000000
     9  H    2.695738   4.289432   2.581857   0.000000
    10  H    2.686231   2.704763   4.059512   4.048520   0.000000
    11  N    4.785713   4.860457   3.036049   3.675036   5.318606
    12  N    4.437486   5.766661   3.968211   3.659334   5.612692
    13  C    3.589005   5.523248   4.288605   3.714152   4.802603
    14  N    3.626149   4.512575   3.797843   3.929789   3.991969
    15  C    4.415647   4.034394   2.994445   3.935231   4.392221
    16  O    3.462000   6.344374   5.263358   4.166838   5.130397
    17  O    5.091176   3.462000   3.008565   4.618361   4.388095
    18  H    5.789107   5.403081   3.462000   4.434741   6.204046
    19  H    4.598082   6.280134   4.199516   3.462000   6.114373
    20  H    3.475858   4.398522   4.294180   4.400722   3.462000
                   11         12         13         14         15
    11  N    0.000000
    12  N    1.406329   0.000000
    13  C    2.244095   1.367312   0.000000
    14  N    2.186874   2.190457   1.378954   0.000000
    15  C    1.357502   2.243160   2.269484   1.378930   0.000000
    16  O    3.440391   2.334688   1.227361   2.323243   3.450589
    17  O    2.322021   3.442145   3.459224   2.333737   1.232664
    18  H    1.027737   2.100379   3.150079   3.094757   2.068994
    19  H    2.080635   1.019865   2.076126   3.095425   3.128033
    20  H    3.178226   3.184667   2.137935   1.031807   2.140220
                   16         17         18         19         20
    16  O    0.000000
    17  O    4.593488   0.000000
    18  H    4.315426   2.671503   0.000000
    19  H    2.695738   4.289432   2.581857   0.000000
    20  H    2.686231   2.704763   4.059512   4.048520   0.000000
 Framework group  C1[X(C4H6N6O4)]
 Deg. of freedom    54
                         Standard orientation:                         
 ---------------------------------------------------------------------
 Center     Atomic      Atomic             Coordinates (Angstroms)
 Number     Number       Type             X           Y           Z
 ---------------------------------------------------------------------
      1          7           0        1.621392   -0.381788    1.175747
      2          7           0        0.787507    0.750604    1.185037
      3          6           0        1.111459    1.522871    0.104203
      4          7           0        1.984563    0.766964   -0.649327
      5          6           0        2.296675   -0.409650   -0.001549
      6          8           0        0.703956    2.646450   -0.174948
      7          8           0        3.041983   -1.300217   -0.414909
      8          1           0        1.263147   -1.257158    1.577781
      9          1           0        0.602562    1.185932    2.088591
     10          1           0        2.426703    1.088559   -1.524377
     11          7           0       -1.665645   -1.397826    0.790391
     12          7           0       -2.499530   -0.265433    0.799681
     13          6           0       -2.175578    0.506833   -0.281153
     14          7           0       -1.302474   -0.249074   -1.034683
     15          6           0       -0.990362   -1.425687   -0.386906
     16          8           0       -2.583081    1.630412   -0.560305
     17          8           0       -0.245053   -2.316255   -0.800265
     18          1           0       -2.023890   -2.273195    1.192425
     19          1           0       -2.684475    0.169894    1.703235
     20          1           0       -0.860334    0.072522   -1.909734
 ---------------------------------------------------------------------
 Rotational constants (GHZ):           1.0156211           0.6338000           0.4755446
 ======================================================================================================
                                       Pseudopotential Parameters
 ======================================================================================================
  Center     Atomic      Valence      Angular      Power
  Number     Number     Electrons     Momentum     of R      Exponent        Coefficient   SO-Coeffient
 ======================================================================================================
    1          7            7
                                      G and up 
                                                     0        0.0000010        0.00420138    0.00000000
                                                     2        0.1200000        0.05872431    0.00000000
                                                     2        0.1400000       -0.08436978    0.00000000
                                                     2        0.2000000        0.05409159    0.00000000
                                                     2        0.2600000        0.14199713    0.00000000
                                                     2        0.6000000       -0.79062770    0.00000000
                                                     2        0.7000000       -0.14441060    0.00000000
                                                     2        1.5000000        0.73772979    0.00000000
                                      S - G
                                                     0        0.0000010       -0.03094411    0.00000000
                                                     2        0.1200000        0.65332522    0.00000000
                                                     2        0.1800000       -1.38149133    0.00000000
                                                     2        1.3000000        3.29267299    0.00000000
                                      P - G
                                                     0        0.0000010        0.07303105    0.00000000
                                                     2        0.1200000        0.23145115    0.00000000
                                                     2        0.2000000       -1.20679699    0.00000000
                                                     2        0.4000000        1.75088447    0.00000000
                                                     2        1.2000000       -0.67486559    0.00000000
                                      D - G
                                                     0        0.0000010        0.07560739    0.00000000
                                                     2        0.3000000       -0.68679114    0.00000000
                                                     2        0.9000000        3.60133241    0.00000000
                                      F - G
                                                     0        0.0000010       -0.18221184    0.00000000
                                                     2        0.1200000       -0.39369067    0.00000000
                                                     2        0.1800000        0.72091725    0.00000000
                                                     2        0.6000000        0.15946111    0.00000000
    2          7            7
                                      G and up 
                                                     0        0.0000010        0.00420138    0.00000000
                                                     2        0.1200000        0.05872431    0.00000000
                                                     2        0.1400000       -0.08436978    0.00000000
                                                     2        0.2000000        0.05409159    0.00000000
                                                     2        0.2600000        0.14199713    0.00000000
                                                     2        0.6000000       -0.79062770    0.00000000
                                                     2        0.7000000       -0.14441060    0.00000000
                                                     2        1.5000000        0.73772979    0.00000000
                                      S - G
                                                     0        0.0000010       -0.03094411    0.00000000
                                                     2        0.1200000        0.65332522    0.00000000
                                                     2        0.1800000       -1.38149133    0.00000000
                                                     2        1.3000000        3.29267299    0.00000000
                                      P - G
                                                     0        0.0000010        0.07303105    0.00000000
                                                     2        0.1200000        0.23145115    0.00000000
                                                     2        0.2000000       -1.20679699    0.00000000
                                                     2        0.4000000        1.75088447    0.00000000
                                                     2        1.2000000       -0.67486559    0.00000000
                                      D - G
                                                     0        0.0000010        0.07560739    0.00000000
                                                     2        0.3000000       -0.68679114    0.00000000
                                                     2        0.9000000        3.60133241    0.00000000
                                      F - G
                                                     0        0.0000010       -0.18221184    0.00000000
                                                     2        0.1200000       -0.39369067    0.00000000
                                                     2        0.1800000        0.72091725    0.00000000
                                                     2        0.6000000        0.15946111    0.00000000
    3          6            6
                                      G and up 
                                                     0        0.0000010       -0.00286759    0.00000000
                                                     2        0.1200000        0.03193960    0.00000000
                                                     2        0.1600000       -0.04027782    0.00000000
                                                     2        0.2600000        0.24782456    0.00000000
                                                     2        0.4000000       -0.62266671    0.00000000
                                                     2        0.7000000        0.35695227    0.00000000
                                      S - G
                                                     0        0.0000010       -0.06602313    0.00000000
                                                     2        0.1200000        1.47277455    0.00000000
                                                     2        0.1600000       -4.06924166    0.00000000
                                                     2        0.3000000        5.02952802    0.00000000
                                                     2        0.7000000       -5.65856978    0.00000000
                                                     2        1.7000000        8.57604414    0.00000000
                                      P - G
                                                     0        0.0000010        0.49434425    0.00000000
                                                     2        0.1200000       -1.37391547    0.00000000
                                                     2        0.1600000        3.65411806    0.00000000
                                                     2        0.2800000       -7.36479843    0.00000000
                                                     2        0.6000000       17.22091285    0.00000000
                                                     2        1.1000000      -23.50107827    0.00000000
                                                     2        3.0000000       16.29464063    0.00000000
                                      D - G
                                                     0        0.0000010       -0.28693103    0.00000000
                                                     2        0.1200000        0.12273044    0.00000000
                                                     2        0.3000000       -0.43416384    0.00000000
                                                     2        0.7000000        2.23358493    0.00000000
                                      F - G
                                                     0        0.0000010        0.07263570    0.00000000
                                                     2        0.1400000       -0.76152861    0.00000000
                                                     2        0.2200000        1.98045593    0.00000000
                                                     2        0.4000000       -2.42426427    0.00000000
                                                     2        0.7000000        0.52335237    0.00000000
    4          7            7
                                      G and up 
                                                     0        0.0000010        0.00420138    0.00000000
                                                     2        0.1200000        0.05872431    0.00000000
                                                     2        0.1400000       -0.08436978    0.00000000
                                                     2        0.2000000        0.05409159    0.00000000
                                                     2        0.2600000        0.14199713    0.00000000
                                                     2        0.6000000       -0.79062770    0.00000000
                                                     2        0.7000000       -0.14441060    0.00000000
                                                     2        1.5000000        0.73772979    0.00000000
                                      S - G
                                                     0        0.0000010       -0.03094411    0.00000000
                                                     2        0.1200000        0.65332522    0.00000000
                                                     2        0.1800000       -1.38149133    0.00000000
                                                     2        1.3000000        3.29267299    0.00000000
                                      P - G
                                                     0        0.0000010        0.07303105    0.00000000
                                                     2        0.1200000        0.23145115    0.00000000
                                                     2        0.2000000       -1.20679699    0.00000000
                                                     2        0.4000000        1.75088447    0.00000000
                                                     2        1.2000000       -0.67486559    0.00000000
                                      D - G
                                                     0        0.0000010        0.07560739    0.00000000
                                                     2        0.3000000       -0.68679114    0.00000000
                                                     2        0.9000000        3.60133241    0.00000000
                                      F - G
                                                     0        0.0000010       -0.18221184    0.00000000
                                                     2        0.1200000       -0.39369067    0.00000000
                                                     2        0.1800000        0.72091725    0.00000000
                                                     2        0.6000000        0.15946111    0.00000000
    5          6            6
                                      G and up 
                                                     0        0.0000010       -0.00286759    0.00000000
                                                     2        0.1200000        0.03193960    0.00000000
                                                     2        0.1600000       -0.04027782    0.00000000
                                                     2        0.2600000        0.24782456    0.00000000
                                                     2        0.4000000       -0.62266671    0.00000000
                                                     2        0.7000000        0.35695227    0.00000000
                                      S - G
                                                     0        0.0000010       -0.06602313    0.00000000
                                                     2        0.1200000        1.47277455    0.00000000
                                                     2        0.1600000       -4.06924166    0.00000000
                                                     2        0.3000000        5.02952802    0.00000000
                                                     2        0.7000000       -5.65856978    0.00000000
                                                     2        1.7000000        8.57604414    0.00000000
                                      P - G
                                                     0        0.0000010        0.49434425    0.00000000
                                                     2        0.1200000       -1.37391547    0.00000000
                                                     2        0.1600000        3.65411806    0.00000000
                                                     2        0.2800000       -7.36479843    0.00000000
                                                     2        0.6000000       17.22091285    0.00000000
                                                     2        1.1000000      -23.50107827    0.00000000
                                                     2        3.0000000       16.29464063    0.00000000
                                      D - G
                                                     0        0.0000010       -0.28693103    0.00000000
                                                     2        0.1200000        0.12273044    0.00000000
                                                     2        0.3000000       -0.43416384    0.00000000
                                                     2        0.7000000        2.23358493    0.00000000
                                      F - G
                                                     0        0.0000010        0.07263570    0.00000000
                                                     2        0.1400000       -0.76152861    0.00000000
                                                     2        0.2200000        1.98045593    0.00000000
                                                     2        0.4000000       -2.42426427    0.00000000
                                                     2        0.7000000        0.52335237    0.00000000
    6          8            8
                                      G and up 
                                                     0        0.0000010       -0.00165251    0.00000000
                                                     2        0.1200000       -0.10937202    0.00000000
                                                     2        0.1400000        0.35668905    0.00000000
                                                     2        0.1800000       -0.51696033    0.00000000
                                                     2        0.2400000        0.52446472    0.00000000
                                                     2        0.4000000       -0.07754493    0.00000000
                                                     2        0.8000000       -1.90560988    0.00000000
                                                     2        1.7000000        0.19857963    0.00000000
                                      S - G
                                                     0        0.0000010       -0.03845181    0.00000000
                                                     2        0.1400000        0.42024558    0.00000000
                                                     2        0.4000000       -4.10467779    0.00000000
                                                     2        1.3000000        9.99571838    0.00000000
                                      P - G
                                                     0        0.0000010        0.33206183    0.00000000
                                                     2        0.1200000       -0.18708141    0.00000000
                                                     2        0.2800000       -0.18179081    0.00000000
                                                     2        0.7000000        1.18820394    0.00000000
                                      D - G
                                                     0        0.0000010       -0.57891674    0.00000000
                                                     2        0.1200000        0.60487490    0.00000000
                                                     2        0.2400000       -0.24931464    0.00000000
                                                     2        0.3000000       -2.75054612    0.00000000
                                                     2        1.0000000       15.96776040    0.00000000
                                      F - G
                                                     0        0.0000010        0.37449041    0.00000000
                                                     2        0.1200000       -0.63373642    0.00000000
                                                     2        0.1400000       -0.08412804    0.00000000
                                                     2        0.2800000        2.62321406    0.00000000
                                                     2        0.6000000       -2.68223623    0.00000000
    7          8            8
                                      G and up 
                                                     0        0.0000010       -0.00165251    0.00000000
                                                     2        0.1200000       -0.10937202    0.00000000
                                                     2        0.1400000        0.35668905    0.00000000
                                                     2        0.1800000       -0.51696033    0.00000000
                                                     2        0.2400000        0.52446472    0.00000000
                                                     2        0.4000000       -0.07754493    0.00000000
                                                     2        0.8000000       -1.90560988    0.00000000
                                                     2        1.7000000        0.19857963    0.00000000
                                      S - G
                                                     0        0.0000010       -0.03845181    0.00000000
                                                     2        0.1400000        0.42024558    0.00000000
                                                     2        0.4000000       -4.10467779    0.00000000
                                                     2        1.3000000        9.99571838    0.00000000
                                      P - G
                                                     0        0.0000010        0.33206183    0.00000000
                                                     2        0.1200000       -0.18708141    0.00000000
                                                     2        0.2800000       -0.18179081    0.00000000
                                                     2        0.7000000        1.18820394    0.00000000
                                      D - G
                                                     0        0.0000010       -0.57891674    0.00000000
                                                     2        0.1200000        0.60487490    0.00000000
                                                     2        0.2400000       -0.24931464    0.00000000
                                                     2        0.3000000       -2.75054612    0.00000000
                                                     2        1.0000000       15.96776040    0.00000000
                                      F - G
                                                     0        0.0000010        0.37449041    0.00000000
                                                     2        0.1200000       -0.63373642    0.00000000
                                                     2        0.1400000       -0.08412804    0.00000000
                                                     2        0.2800000        2.62321406    0.00000000
                                                     2        0.6000000       -2.68223623    0.00000000
    8          1            1
                                      F and up 
                                                     0        0.0000010        0.00072061    0.00000000
                                                     2        0.1200000        0.03832357    0.00000000
                                                     2        0.1400000       -0.08683256    0.00000000
                                                     2        0.1800000        0.09312970    0.00000000
                                                     2        0.2800000       -0.02532572    0.00000000
                                                     2        0.4000000       -0.09430787    0.00000000
                                                     2        0.7000000        0.42710831    0.00000000
                                                     2        1.2000000       -2.11746981    0.00000000
                                      S - F
                                                     0        0.0000010        0.14449603    0.00000000
                                                     2        0.1200000       -0.56378993    0.00000000
                                                     2        0.1400000        0.63941249    0.00000000
                                                     2        0.2600000       -0.58461015    0.00000000
                                                     2        0.5000000        1.00157293    0.00000000
                                                     2        1.8000000       -0.14135838    0.00000000
                                      P - F
                                                     0        0.0000010       -0.09353646    0.00000000
                                                     2        0.1200000        0.31768975    0.00000000
                                                     2        0.2000000       -0.71747951    0.00000000
                                                     2        0.4000000        0.65752308    0.00000000
                                                     2        1.7000000        2.94052587    0.00000000
                                      D - F
                                                     0        0.0000010       -0.04491202    0.00000000
                                                     2        0.1200000       -0.02862031    0.00000000
                                                     2        0.1800000       -0.21515263    0.00000000
                                                     2        0.3000000        0.80560647    0.00000000
                                                     2        0.4000000        0.47351754    0.00000000
                                                     2        0.7000000       -4.57051794    0.00000000
                                                     2        1.6000000       18.53737826    0.00000000
    9          1            1
                                      F and up 
                                                     0        0.0000010        0.00072061    0.00000000
                                                     2        0.1200000        0.03832357    0.00000000
                                                     2        0.1400000       -0.08683256    0.00000000
                                                     2        0.1800000        0.09312970    0.00000000
                                                     2        0.2800000       -0.02532572    0.00000000
                                                     2        0.4000000       -0.09430787    0.00000000
                                                     2        0.7000000        0.42710831    0.00000000
                                                     2        1.2000000       -2.11746981    0.00000000
                                      S - F
                                                     0        0.0000010        0.14449603    0.00000000
                                                     2        0.1200000       -0.56378993    0.00000000
                                                     2        0.1400000        0.63941249    0.00000000
                                                     2        0.2600000       -0.58461015    0.00000000
                                                     2        0.5000000        1.00157293    0.00000000
                                                     2        1.8000000       -0.14135838    0.00000000
                                      P - F
                                                     0        0.0000010       -0.09353646    0.00000000
                                                     2        0.1200000        0.31768975    0.00000000
                                                     2        0.2000000       -0.71747951    0.00000000
                                                     2        0.4000000        0.65752308    0.00000000
                                                     2        1.7000000        2.94052587    0.00000000
                                      D - F
                                                     0        0.0000010       -0.04491202    0.00000000
                                                     2        0.1200000       -0.02862031    0.00000000
                                                     2        0.1800000       -0.21515263    0.00000000
                                                     2        0.3000000        0.80560647    0.00000000
                                                     2        0.4000000        0.47351754    0.00000000
                                                     2        0.7000000       -4.57051794    0.00000000
                                                     2        1.6000000       18.53737826    0.00000000
   10          1            1
                                      F and up 
                                                     0        0.0000010        0.00072061    0.00000000
                                                     2        0.1200000        0.03832357    0.00000000
                                                     2        0.1400000       -0.08683256    0.00000000
                                                     2        0.1800000        0.09312970    0.00000000
                                                     2        0.2800000       -0.02532572    0.00000000
                                                     2        0.4000000       -0.09430787    0.00000000
                                                     2        0.7000000        0.42710831    0.00000000
                                                     2        1.2000000       -2.11746981    0.00000000
                                      S - F
                                                     0        0.0000010        0.14449603    0.00000000
                                                     2        0.1200000       -0.56378993    0.00000000
                                                     2        0.1400000        0.63941249    0.00000000
                                                     2        0.2600000       -0.58461015    0.00000000
                                                     2        0.5000000        1.00157293    0.00000000
                                                     2        1.8000000       -0.14135838    0.00000000
                                      P - F
                                                     0        0.0000010       -0.09353646    0.00000000
                                                     2        0.1200000        0.31768975    0.00000000
                                                     2        0.2000000       -0.71747951    0.00000000
                                                     2        0.4000000        0.65752308    0.00000000
                                                     2        1.7000000        2.94052587    0.00000000
                                      D - F
                                                     0        0.0000010       -0.04491202    0.00000000
                                                     2        0.1200000       -0.02862031    0.00000000
                                                     2        0.1800000       -0.21515263    0.00000000
                                                     2        0.3000000        0.80560647    0.00000000
                                                     2        0.4000000        0.47351754    0.00000000
                                                     2        0.7000000       -4.57051794    0.00000000
                                                     2        1.6000000       18.53737826    0.00000000
   11          7            7
                                      G and up 
                                                     0        0.0000010        0.00420138    0.00000000
                                                     2        0.1200000        0.05872431    0.00000000
                                                     2        0.1400000       -0.08436978    0.00000000
                                                     2        0.2000000        0.05409159    0.00000000
                                                     2        0.2600000        0.14199713    0.00000000
                                                     2        0.6000000       -0.79062770    0.00000000
                                                     2        0.7000000       -0.14441060    0.00000000
                                                     2        1.5000000        0.73772979    0.00000000
                                      S - G
                                                     0        0.0000010       -0.03094411    0.00000000
                                                     2        0.1200000        0.65332522    0.00000000
                                                     2        0.1800000       -1.38149133    0.00000000
                                                     2        1.3000000        3.29267299    0.00000000
                                      P - G
                                                     0        0.0000010        0.07303105    0.00000000
                                                     2        0.1200000        0.23145115    0.00000000
                                                     2        0.2000000       -1.20679699    0.00000000
                                                     2        0.4000000        1.75088447    0.00000000
                                                     2        1.2000000       -0.67486559    0.00000000
                                      D - G
                                                     0        0.0000010        0.07560739    0.00000000
                                                     2        0.3000000       -0.68679114    0.00000000
                                                     2        0.9000000        3.60133241    0.00000000
                                      F - G
                                                     0        0.0000010       -0.18221184    0.00000000
                                                     2        0.1200000       -0.39369067    0.00000000
                                                     2        0.1800000        0.72091725    0.00000000
                                                     2        0.6000000        0.15946111    0.00000000
   12          7            7
                                      G and up 
                                                     0        0.0000010        0.00420138    0.00000000
                                                     2        0.1200000        0.05872431    0.00000000
                                                     2        0.1400000       -0.08436978    0.00000000
                                                     2        0.2000000        0.05409159    0.00000000
                                                     2        0.2600000        0.14199713    0.00000000
                                                     2        0.6000000       -0.79062770    0.00000000
                                                     2        0.7000000       -0.14441060    0.00000000
                                                     2        1.5000000        0.73772979    0.00000000
                                      S - G
                                                     0        0.0000010       -0.03094411    0.00000000
                                                     2        0.1200000        0.65332522    0.00000000
                                                     2        0.1800000       -1.38149133    0.00000000
                                                     2        1.3000000        3.29267299    0.00000000
                                      P - G
                                                     0        0.0000010        0.07303105    0.00000000
                                                     2        0.1200000        0.23145115    0.00000000
                                                     2        0.2000000       -1.20679699    0.00000000
                                                     2        0.4000000        1.75088447    0.00000000
                                                     2        1.2000000       -0.67486559    0.00000000
                                      D - G
                                                     0        0.0000010        0.07560739    0.00000000
                                                     2        0.3000000       -0.68679114    0.00000000
                                                     2        0.9000000        3.60133241    0.00000000
                                      F - G
                                                     0        0.0000010       -0.18221184    0.00000000
                                                     2        0.1200000       -0.39369067    0.00000000
                                                     2        0.1800000        0.72091725    0.00000000
                                                     2        0.6000000        0.15946111    0.00000000
   13          6            6
                                      G and up 
                                                     0        0.0000010       -0.00286759    0.00000000
                                                     2        0.1200000        0.03193960    0.00000000
                                                     2        0.1600000       -0.04027782    0.00000000
                                                     2        0.2600000        0.24782456    0.00000000
                                                     2        0.4000000       -0.62266671    0.00000000
                                                     2        0.7000000        0.35695227    0.00000000
                                      S - G
                                                     0        0.0000010       -0.06602313    0.00000000
                                                     2        0.1200000        1.47277455    0.00000000
                                                     2        0.1600000       -4.06924166    0.00000000
                                                     2        0.3000000        5.02952802    0.00000000
                                                     2        0.7000000       -5.65856978    0.00000000
                                                     2        1.7000000        8.57604414    0.00000000
                                      P - G
                                                     0        0.0000010        0.49434425    0.00000000
                                                     2        0.1200000       -1.37391547    0.00000000
                                                     2        0.1600000        3.65411806    0.00000000
                                                     2        0.2800000       -7.36479843    0.00000000
                                                     2        0.6000000       17.22091285    0.00000000
                                                     2        1.1000000      -23.50107827    0.00000000
                                                     2        3.0000000       16.29464063    0.00000000
                                      D - G
                                                     0        0.0000010       -0.28693103    0.00000000
                                                     2        0.1200000        0.12273044    0.00000000
                                                     2        0.3000000       -0.43416384    0.00000000
                                                     2        0.7000000        2.23358493    0.00000000
                                      F - G
                                                     0        0.0000010        0.07263570    0.00000000
                                                     2        0.1400000       -0.76152861    0.00000000
                                                     2        0.2200000        1.98045593    0.00000000
                                                     2        0.4000000       -2.42426427    0.00000000
                                                     2        0.7000000        0.52335237    0.00000000
   14          7            7
                                      G and up 
                                                     0        0.0000010        0.00420138    0.00000000
                                                     2        0.1200000        0.05872431    0.00000000
                                                     2        0.1400000       -0.08436978    0.00000000
                                                     2        0.2000000        0.05409159    0.00000000
                                                     2        0.2600000        0.14199713    0.00000000
                                                     2        0.6000000       -0.79062770    0.00000000
                                                     2        0.7000000       -0.14441060    0.00000000
                                                     2        1.5000000        0.73772979    0.00000000
                                      S - G
                                                     0        0.0000010       -0.03094411    0.00000000
                                                     2        0.1200000        0.65332522    0.00000000
                                                     2        0.1800000       -1.38149133    0.00000000
                                                     2        1.3000000        3.29267299    0.00000000
                                      P - G
                                                     0        0.0000010        0.07303105    0.00000000
                                                     2        0.1200000        0.23145115    0.00000000
                                                     2        0.2000000       -1.20679699    0.00000000
                                                     2        0.4000000        1.75088447    0.00000000
                                                     2        1.2000000       -0.67486559    0.00000000
                                      D - G
                                                     0        0.0000010        0.07560739    0.00000000
                                                     2        0.3000000       -0.68679114    0.00000000
                                                     2        0.9000000        3.60133241    0.00000000
                                      F - G
                                                     0        0.0000010       -0.18221184    0.00000000
                                                     2        0.1200000       -0.39369067    0.00000000
                                                     2        0.1800000        0.72091725    0.00000000
                                                     2        0.6000000        0.15946111    0.00000000
   15          6            6
                                      G and up 
                                                     0        0.0000010       -0.00286759    0.00000000
                                                     2        0.1200000        0.03193960    0.00000000
                                                     2        0.1600000       -0.04027782    0.00000000
                                                     2        0.2600000        0.24782456    0.00000000
                                                     2        0.4000000       -0.62266671    0.00000000
                                                     2        0.7000000        0.35695227    0.00000000
                                      S - G
                                                     0        0.0000010       -0.06602313    0.00000000
                                                     2        0.1200000        1.47277455    0.00000000
                                                     2        0.1600000       -4.06924166    0.00000000
                                                     2        0.3000000        5.02952802    0.00000000
[...]
                                                     2        0.4000000       -0.09430787    0.00000000
                                                     2        0.7000000        0.42710831    0.00000000
                                                     2        1.2000000       -2.11746981    0.00000000
                                      S - F
                                                     0        0.0000010        0.14449603    0.00000000
                                                     2        0.1200000       -0.56378993    0.00000000
                                                     2        0.1400000        0.63941249    0.00000000
                                                     2        0.2600000       -0.58461015    0.00000000
                                                     2        0.5000000        1.00157293    0.00000000
                                                     2        1.8000000       -0.14135838    0.00000000
                                      P - F
                                                     0        0.0000010       -0.09353646    0.00000000
                                                     2        0.1200000        0.31768975    0.00000000
                                                     2        0.2000000       -0.71747951    0.00000000
                                                     2        0.4000000        0.65752308    0.00000000
                                                     2        1.7000000        2.94052587    0.00000000
                                      D - F
                                                     0        0.0000010       -0.04491202    0.00000000
                                                     2        0.1200000       -0.02862031    0.00000000
                                                     2        0.1800000       -0.21515263    0.00000000
                                                     2        0.3000000        0.80560647    0.00000000
                                                     2        0.4000000        0.47351754    0.00000000
                                                     2        0.7000000       -4.57051794    0.00000000
                                                     2        1.6000000       18.53737826    0.00000000
   19          1            1
                                      F and up 
                                                     0        0.0000010        0.00072061    0.00000000
                                                     2        0.1200000        0.03832357    0.00000000
                                                     2        0.1400000       -0.08683256    0.00000000
                                                     2        0.1800000        0.09312970    0.00000000
                                                     2        0.2800000       -0.02532572    0.00000000
                                                     2        0.4000000       -0.09430787    0.00000000
                                                     2        0.7000000        0.42710831    0.00000000
                                                     2        1.2000000       -2.11746981    0.00000000
                                      S - F
                                                     0        0.0000010        0.14449603    0.00000000
                                                     2        0.1200000       -0.56378993    0.00000000
                                                     2        0.1400000        0.63941249    0.00000000
                                                     2        0.2600000       -0.58461015    0.00000000
                                                     2        0.5000000        1.00157293    0.00000000
                                                     2        1.8000000       -0.14135838    0.00000000
                                      P - F
                                                     0        0.0000010       -0.09353646    0.00000000
                                                     2        0.1200000        0.31768975    0.00000000
                                                     2        0.2000000       -0.71747951    0.00000000
                                                     2        0.4000000        0.65752308    0.00000000
                                                     2        1.7000000        2.94052587    0.00000000
                                      D - F
                                                     0        0.0000010       -0.04491202    0.00000000
                                                     2        0.1200000       -0.02862031    0.00000000
                                                     2        0.1800000       -0.21515263    0.00000000
                                                     2        0.3000000        0.80560647    0.00000000
                                                     2        0.4000000        0.47351754    0.00000000
                                                     2        0.7000000       -4.57051794    0.00000000
                                                     2        1.6000000       18.53737826    0.00000000
   20          1            1
                                      F and up 
                                                     0        0.0000010        0.00072061    0.00000000
                                                     2        0.1200000        0.03832357    0.00000000
                                                     2        0.1400000       -0.08683256    0.00000000
                                                     2        0.1800000        0.09312970    0.00000000
                                                     2        0.2800000       -0.02532572    0.00000000
                                                     2        0.4000000       -0.09430787    0.00000000
                                                     2        0.7000000        0.42710831    0.00000000
                                                     2        1.2000000       -2.11746981    0.00000000
                                      S - F
                                                     0        0.0000010        0.14449603    0.00000000
                                                     2        0.1200000       -0.56378993    0.00000000
                                                     2        0.1400000        0.63941249    0.00000000
                                                     2        0.2600000       -0.58461015    0.00000000
                                                     2        0.5000000        1.00157293    0.00000000
                                                     2        1.8000000       -0.14135838    0.00000000
                                      P - F
                                                     0        0.0000010       -0.09353646    0.00000000
                                                     2        0.1200000        0.31768975    0.00000000
                                                     2        0.2000000       -0.71747951    0.00000000
                                                     2        0.4000000        0.65752308    0.00000000
                                                     2        1.7000000        2.94052587    0.00000000
                                      D - F
                                                     0        0.0000010       -0.04491202    0.00000000
                                                     2        0.1200000       -0.02862031    0.00000000
                                                     2        0.1800000       -0.21515263    0.00000000
                                                     2        0.3000000        0.80560647    0.00000000
                                                     2        0.4000000        0.47351754    0.00000000
                                                     2        0.7000000       -4.57051794    0.00000000
                                                     2        1.6000000       18.53737826    0.00000000
 ======================================================================================================
   376 basis functions,   668 primitive gaussians,   404 cartesian basis functions
    52 alpha electrons       52 beta electrons
       nuclear repulsion energy       961.4784869240 Hartrees.
 NAtoms=   20 NActive=   20 NUniq=   20 SFac= 1.00D+00 NAtFMM=   60 NAOKFM=F Big=F
   1 Symmetry operations used in ECPInt.
 ECPInt:  NShTT=   12246 NPrTT=   67078 LenC2=   12103 LenP2D=   44887.
 LDataN:  DoStor=T MaxTD1= 6 Len=  172
 Initial guess from the checkpoint file:  "3B-69_16a_triazolidinedione_dimerBC_mol1.chk"
 B after Tr=     1.910981   26.072429   22.191913
         Rot=    0.158905    0.004286   -0.374879    0.913344 Ang= 161.71 deg.
 >>>>>>>>>> Convergence criterion not met.
 SCF Done:  E(RHF) =  -784.547506399     A.U. after    2 cycles
            NFock=  1  Conv=0.14D+00     -V/T= 2.0340

 **********************************************************************

            Population analysis using the SCF Density.

 **********************************************************************

 Orbital symmetries:
       Occupied  (A) (A) (A) (A) (A) (A) (A) (A) (A) (A) (A) (A)
                 (A) (A) (A) (A) (A) (A) (A) (A) (A) (A) (A) (A)
                 (A) (A) (A) (A) (A) (A) (A) (A) (A) (A) (A) (A)
                 (A) (A) (A) (A) (A) (A) (A) (A) (A) (A) (A) (A)
                 (A) (A) (A) (A)
       Virtual   (A) (A) (A) (A) (A) (A) (A) (A) (A) (A) (A) (A)
                 (A) (A) (A) (A) (A) (A) (A) (A) (A) (A) (A) (A)
                 (A) (A) (A) (A) (A) (A) (A) (A) (A) (A) (A) (A)
                 (A) (A) (A) (A) (A) (A) (A) (A) (A) (A) (A) (A)
                 (A) (A) (A) (A) (A) (A) (A) (A) (A) (A) (A) (A)
                 (A) (A) (A) (A) (A) (A) (A) (A) (A) (A) (A) (A)
                 (A) (A) (A) (A) (A) (A) (A) (A) (A) (A) (A) (A)
                 (A) (A) (A) (A) (A) (A) (A) (A) (A) (A) (A) (A)
                 (A) (A) (A) (A) (A) (A) (A) (A) (A) (A) (A) (A)
                 (A) (A) (A) (A) (A) (A) (A) (A) (A) (A) (A) (A)
                 (A) (A) (A) (A) (A) (A) (A) (A) (A) (A) (A) (A)
                 (A) (A) (A) (A) (A) (A) (A) (A) (A) (A) (A) (A)
                 (A) (A) (A) (A) (A) (A) (A) (A) (A) (A) (A) (A)
                 (A) (A) (A) (A) (A) (A) (A) (A) (A) (A) (A) (A)
                 (A) (A) (A) (A) (A) (A) (A) (A) (A) (A) (A) (A)
                 (A) (A) (A) (A) (A) (A) (A) (A) (A) (A) (A) (A)
                 (A) (A) (A) (A) (A) (A) (A) (A) (A) (A) (A) (A)
                 (A) (A) (A) (A) (A) (A) (A) (A) (A) (A) (A) (A)
                 (A) (A) (A) (A) (A) (A) (A) (A) (A) (A) (A) (A)
                 (A) (A) (A) (A) (A) (A) (A) (A) (A) (A) (A) (A)
                 (A) (A) (A) (A) (A) (A) (A) (A) (A) (A) (A) (A)
                 (A) (A) (A) (A) (A) (A) (A) (A) (A) (A) (A) (A)
                 (A) (A) (A) (A) (A) (A) (A) (A) (A) (A) (A) (A)
                 (A) (A) (A) (A) (A) (A) (A) (A) (A) (A) (A) (A)
                 (A) (A) (A) (A) (A) (A) (A) (A) (A) (A) (A) (A)
                 (A) (A) (A) (A) (A) (A) (A) (A) (A) (A) (A) (A)
                 (A) (A) (A) (A) (A) (A) (A) (A) (A) (A) (A) (A)
 The electronic state is 1-A.
 Alpha  occ. eigenvalues --  -21.05558 -21.05216 -21.05022 -21.04146 -15.83355
 Alpha  occ. eigenvalues --  -15.82763 -15.82701 -15.81862 -15.81744 -15.81454
 Alpha  occ. eigenvalues --  -11.56040 -11.55316 -11.53586 -11.52901  -1.77655
 Alpha  occ. eigenvalues --   -1.76912  -1.72354  -1.71599  -1.60760  -1.60111
 Alpha  occ. eigenvalues --   -1.39267  -1.38728  -1.23857  -1.23281  -0.93711
 Alpha  occ. eigenvalues --   -0.93120  -0.89845  -0.89284  -0.74805  -0.74491
 Alpha  occ. eigenvalues --   -0.74080  -0.72504  -0.67090  -0.66607  -0.66453
 Alpha  occ. eigenvalues --   -0.65363  -0.55164  -0.54568  -0.53889  -0.52316
 Alpha  occ. eigenvalues --   -0.51772  -0.51236  -0.50641  -0.49790  -0.35379
 Alpha  occ. eigenvalues --   -0.34835  -0.34244  -0.32936  -0.31540  -0.30938
 Alpha  occ. eigenvalues --   -0.30285  -0.30005
 Alpha virt. eigenvalues --    0.02011   0.03681   0.04536   0.05443   0.06108
 Alpha virt. eigenvalues --    0.06393   0.08090   0.09222   0.09830   0.10199
 Alpha virt. eigenvalues --    0.11227   0.11844   0.11915   0.12614   0.12681
 Alpha virt. eigenvalues --    0.13403   0.14326   0.14709   0.14837   0.15440
 Alpha virt. eigenvalues --    0.15608   0.15966   0.16352   0.16895   0.17355
 Alpha virt. eigenvalues --    0.17804   0.18357   0.18927   0.19565   0.19766
 Alpha virt. eigenvalues --    0.20352   0.20971   0.21532   0.21942   0.22843
 Alpha virt. eigenvalues --    0.23466   0.24130   0.24864   0.25294   0.26566
 Alpha virt. eigenvalues --    0.27173   0.27830   0.28941   0.29556   0.29953
 Alpha virt. eigenvalues --    0.30913   0.31820   0.32029   0.32948   0.33353
 Alpha virt. eigenvalues --    0.33637   0.33973   0.34154   0.34761   0.35350
 Alpha virt. eigenvalues --    0.36110   0.36559   0.37742   0.37806   0.38124
 Alpha virt. eigenvalues --    0.38386   0.38583   0.39501   0.39874   0.40236
 Alpha virt. eigenvalues --    0.41007   0.41450   0.41984   0.42475   0.42784
 Alpha virt. eigenvalues --    0.43556   0.44064   0.44776   0.46285   0.46500
 Alpha virt. eigenvalues --    0.47709   0.48533   0.49605   0.50157   0.51031
 Alpha virt. eigenvalues --    0.52463   0.53067   0.53272   0.53628   0.54448
 Alpha virt. eigenvalues --    0.55719   0.56460   0.56974   0.57562   0.57933
 Alpha virt. eigenvalues --    0.60250   0.61386   0.61400   0.62172   0.63509
 Alpha virt. eigenvalues --    0.64107   0.65340   0.66162   0.66749   0.67550
 Alpha virt. eigenvalues --    0.67959   0.68770   0.69229   0.69691   0.71428
 Alpha virt. eigenvalues --    0.71698   0.72758   0.73823   0.74522   0.75408
 Alpha virt. eigenvalues --    0.76715   0.77316   0.77644   0.78470   0.80530
 Alpha virt. eigenvalues --    0.80976   0.81447   0.81885   0.82892   0.83999
 Alpha virt. eigenvalues --    0.84641   0.84953   0.86715   0.87512   0.88147
 Alpha virt. eigenvalues --    0.90743   0.92517   0.92766   0.92941   0.94019
 Alpha virt. eigenvalues --    0.94759   0.96029   0.96518   0.97596   0.98178
 Alpha virt. eigenvalues --    0.98839   0.99262   1.00279   1.00961   1.02760
 Alpha virt. eigenvalues --    1.03762   1.05543   1.05759   1.07228   1.08695
 Alpha virt. eigenvalues --    1.09571   1.10147   1.11812   1.12447   1.13050
 Alpha virt. eigenvalues --    1.14879   1.17022   1.17946   1.19440   1.19916
 Alpha virt. eigenvalues --    1.20591   1.21629   1.24437   1.25471   1.27800
 Alpha virt. eigenvalues --    1.30311   1.31205   1.31652   1.32992   1.35989
 Alpha virt. eigenvalues --    1.37982   1.38688   1.40516   1.41633   1.42976
 Alpha virt. eigenvalues --    1.43120   1.45438   1.46454   1.46865   1.49997
 Alpha virt. eigenvalues --    1.51179   1.53327   1.54016   1.55453   1.56239
 Alpha virt. eigenvalues --    1.59923   1.60287   1.62843   1.64468   1.65639
 Alpha virt. eigenvalues --    1.68679   1.70098   1.70665   1.72393   1.73915
 Alpha virt. eigenvalues --    1.77372   1.79379   1.81411   1.83240   1.83535
 Alpha virt. eigenvalues --    1.86098   1.87766   1.88892   1.93394   1.97184
 Alpha virt. eigenvalues --    1.99015   2.02938   2.04561   2.08030   2.10718
 Alpha virt. eigenvalues --    2.12184   2.13715   2.16285   2.17291   2.18088
 Alpha virt. eigenvalues --    2.20806   2.22659   2.24062   2.25711   2.27566
 Alpha virt. eigenvalues --    2.28891   2.32706   2.33509   2.36204   2.38325
 Alpha virt. eigenvalues --    2.39607   2.41911   2.42371   2.46063   2.47014
 Alpha virt. eigenvalues --    2.48103   2.49734   2.52185   2.54307   2.54870
 Alpha virt. eigenvalues --    2.56190   2.57207   2.58849   2.59732   2.60745
 Alpha virt. eigenvalues --    2.62561   2.63888   2.65020   2.65223   2.67605
 Alpha virt. eigenvalues --    2.67856   2.68164   2.71219   2.73270   2.73578
 Alpha virt. eigenvalues --    2.79811   2.81885   2.83134   2.84297   2.85799
 Alpha virt. eigenvalues --    2.88399   2.90078   2.93647   2.95072   2.95280
 Alpha virt. eigenvalues --    2.97157   2.98684   3.00665   3.01665   3.05098
 Alpha virt. eigenvalues --    3.06831   3.07809   3.12745   3.14201   3.14498
 Alpha virt. eigenvalues --    3.15725   3.16239   3.17485   3.20581   3.22107
 Alpha virt. eigenvalues --    3.22128   3.25757   3.28327   3.29559   3.32121
 Alpha virt. eigenvalues --    3.33653   3.35752   3.38637   3.40243   3.42743
 Alpha virt. eigenvalues --    3.49893   3.51133   3.52543   3.56155   3.60162
 Alpha virt. eigenvalues --    3.61856   3.72250   3.74315   3.79894   3.82195
 Alpha virt. eigenvalues --    3.87679   3.88845   3.92111   3.94072   3.98940
 Alpha virt. eigenvalues --    3.99544   4.22458   4.24439   4.29273   4.31817
 Alpha virt. eigenvalues --    4.43334   4.48255   4.56903   4.58862   6.05048
 Alpha virt. eigenvalues --    6.06452   6.06703   6.07159   6.09250   6.09941
 Alpha virt. eigenvalues --    6.10732   6.12541   6.13264   6.14870   6.15597
 Alpha virt. eigenvalues --    6.19267   6.21941   6.22070   6.25127   6.25823
 Alpha virt. eigenvalues --    6.45250   6.45689   6.47038   6.48832
          Condensed to atoms (all electrons):
 Mulliken charges:
               1
     1  N   -2.373850
     2  N   -1.970192
     3  C    5.889234
     4  N   -2.969360
     5  C    5.599783
     6  O   -3.371650
     7  O   -3.231384
     8  H    0.772473
     9  H    0.841601
    10  H    0.832959
    11  N   -2.420495
    12  N   -2.503939
    13  C    5.508412
    14  N   -2.796848
    15  C    6.282689
    16  O   -3.225530
    17  O   -3.408248
    18  H    0.839280
    19  H    0.833573
    20  H    0.871493
 Sum of Mulliken charges =   0.00000
 Mulliken charges with hydrogens summed into heavy atoms:
               1
     1  N   -1.601377
     2  N   -1.128591
     3  C    5.889234
     4  N   -2.136401
     5  C    5.599783
     6  O   -3.371650
     7  O   -3.231384
    11  N   -1.581215
    12  N   -1.670366
    13  C    5.508412
    14  N   -1.925355
    15  C    6.282689
    16  O   -3.225530
    17  O   -3.408248
 Electronic spatial extent (au):  <R**2>=           2408.6447
 Charge=              0.0000 electrons
 Dipole moment (field-independent basis, Debye):
    X=             -1.4094    Y=             -0.7847    Z=              2.8956  Tot=              3.3146

 Test job not archived.
 1\1\GINC-SE092\SP\RHF\Aug-CC-pVDZ\C4H6N6O4\OHZDE\08-Apr-2025\0\\#t hf 
 aug-cc-pvdz iop(5/13=1,5/36=2,99/5=2) pseudo=read geom=check guess=(re
 ad,tcheck) scf=(maxcycle=1)\\title\\0,1\N,0,4.758199,16.90365,2.170497
 \N,0,5.216569,15.90098,1.297392\C,0,4.80265,16.21938,0.033733\N,0,4.27
 9392,17.492314,0.119488\C,0,4.256265,17.923919,1.428927\O,0,4.89088,15
 .54291,-0.98657\O,0,3.856001,19.016772,1.835033\H,0,5.310494,17.110082
 ,3.01228\H,0,5.163831,14.936932,1.625956\H,0,3.862617,18.004684,-0.673
 229\N,0,8.220199,16.90365,2.170497\N,0,8.678569,15.90098,1.297392\C,0,
 8.26465,16.21938,0.033733\N,0,7.741392,17.492314,0.119488\C,0,7.718265
 ,17.923919,1.428927\O,0,8.35288,15.54291,-0.98657\O,0,7.318001,19.0167
 72,1.835033\H,0,8.772494,17.110082,3.01228\H,0,8.625831,14.936932,1.62
 5956\H,0,7.324617,18.004684,-0.673229\\Version=ES64L-G16RevC.01\State=
 1-A\HF=-784.5475064\RMSD=1.416e-01\Dipole=0.4902839,-0.7344847,0.95956
 35\Quadrupole=0.3638491,-3.021875,2.6580259,1.7932797,7.3541897,-12.11
 99736\PG=C01 [X(C4H6N6O4)]\\@


 CONFIDENCE: THAT QUIET ASSURED FEELING YOU HAVE
 JUST BEFORE YOU FALL FLAT ON YOUR FACE.
 Job cpu time:       0 days  0 hours  3 minutes 47.9 seconds.
 Elapsed time:       0 days  0 hours  0 minutes 16.0 seconds.
 File lengths (MBytes):  RWF=     23 Int=      0 D2E=      0 Chk=     19 Scr=      1
 Normal termination of Gaussian 16 at Tue Apr  8 19:14:21 2025.
