 Entering Gaussian System, Link 0=g16
 Input=ANI1ccx_1322_conf4_mol1.gjf
 Output=ANI1ccx_1322_conf4_mol1.log
 Initial command:
 /arc/software/Gaussian/g16.c01/l1.exe "/tmp/slurm/4834853/Gau-1324151.inp" -scrdir="/tmp/slurm/4834853/"
 Entering Link 1 = /arc/software/Gaussian/g16.c01/l1.exe PID=   1324216.
  
 Copyright (c) 1988-2019, Gaussian, Inc.  All Rights Reserved.
  
 This is part of the Gaussian(R) 16 program.  It is based on
 the Gaussian(R) 09 system (copyright 2009, Gaussian, Inc.),
 the Gaussian(R) 03 system (copyright 2003, Gaussian, Inc.),
 the Gaussian(R) 98 system (copyright 1998, Gaussian, Inc.),
 the Gaussian(R) 94 system (copyright 1995, Gaussian, Inc.),
 the Gaussian 92(TM) system (copyright 1992, Gaussian, Inc.),
 the Gaussian 90(TM) system (copyright 1990, Gaussian, Inc.),
 the Gaussian 88(TM) system (copyright 1988, Gaussian, Inc.),
 the Gaussian 86(TM) system (copyright 1986, Carnegie Mellon
 University), and the Gaussian 82(TM) system (copyright 1983,
 Carnegie Mellon University). Gaussian is a federally registered
 trademark of Gaussian, Inc.
  
 This software contains proprietary and confidential information,
 including trade secrets, belonging to Gaussian, Inc.
  
 This software is provided under written license and may be
 used, copied, transmitted, or stored only in accord with that
 written license.
  
 The following legend is applicable only to US Government
 contracts under FAR:
  
                    RESTRICTED RIGHTS LEGEND
  
 Use, reproduction and disclosure by the US Government is
 subject to restrictions as set forth in subparagraphs (a)
 and (c) of the Commercial Computer Software - Restricted
 Rights clause in FAR 52.227-19.
  
 Gaussian, Inc.
 340 Quinnipiac St., Bldg. 40, Wallingford CT 06492
  
  
 ---------------------------------------------------------------
 Warning -- This program may not be used in any manner that
 competes with the business of Gaussian, Inc. or will provide
 assistance to any competitor of Gaussian, Inc.  The licensee
 of this program is prohibited from giving any competitor of
 Gaussian, Inc. access to this program.  By using this program,
 the user acknowledges that Gaussian, Inc. is engaged in the
 business of creating and licensing software in the field of
 computational chemistry and represents and warrants to the
 licensee that it is not a competitor of Gaussian, Inc. and that
 it will not use this program in any manner prohibited above.
 ---------------------------------------------------------------
  

 Cite this work as:
 Gaussian 16, Revision C.01,
 M. J. Frisch, G. W. Trucks, H. B. Schlegel, G. E. Scuseria, 
 M. A. Robb, J. R. Cheeseman, G. Scalmani, V. Barone, 
 G. A. Petersson, H. Nakatsuji, X. Li, M. Caricato, A. V. Marenich, 
 J. Bloino, B. G. Janesko, R. Gomperts, B. Mennucci, H. P. Hratchian, 
 J. V. Ortiz, A. F. Izmaylov, J. L. Sonnenberg, D. Williams-Young, 
 F. Ding, F. Lipparini, F. Egidi, J. Goings, B. Peng, A. Petrone, 
 T. Henderson, D. Ranasinghe, V. G. Zakrzewski, J. Gao, N. Rega, 
 G. Zheng, W. Liang, M. Hada, M. Ehara, K. Toyota, R. Fukuda, 
 J. Hasegawa, M. Ishida, T. Nakajima, Y. Honda, O. Kitao, H. Nakai, 
 T. Vreven, K. Throssell, J. A. Montgomery, Jr., J. E. Peralta, 
 F. Ogliaro, M. J. Bearpark, J. J. Heyd, E. N. Brothers, K. N. Kudin, 
 V. N. Staroverov, T. A. Keith, R. Kobayashi, J. Normand, 
 K. Raghavachari, A. P. Rendell, J. C. Burant, S. S. Iyengar, 
 J. Tomasi, M. Cossi, J. M. Millam, M. Klene, C. Adamo, R. Cammi, 
 J. W. Ochterski, R. L. Martin, K. Morokuma, O. Farkas, 
 J. B. Foresman, and D. J. Fox, Gaussian, Inc., Wallingford CT, 2019.
 
 ******************************************
 Gaussian 16:  ES64L-G16RevC.01  3-Jul-2019
                 8-Apr-2025 
 ******************************************
 %nprocs=16
 Will use up to   16 processors via shared memory.
 %mem=30GB
 %chk=ANI1ccx_1322_conf4_mol1.chk
 ----------------------------------------------------------------------
 #t hf aug-cc-pvdz symm=none int=(grid=ultrafine) guess=(read,tcheck) s
 table=(opt,rrhf)
 ----------------------------------------------------------------------
 -----
 title
 -----
 Symbolic Z-matrix:
 Charge =  0 Multiplicity = 1
 C                    -1.83663  -0.58228  -0.01322 
 C                    -0.65049   1.31333  -0.01803 
 C                     0.46724   0.44935  -0.02354 
 C                     2.74641   0.26366  -0.00175 
 C                     2.62521  -1.12157   0.02147 
 C                     0.33747  -0.94696   0.0235 
 H                     3.49524  -1.73904   0.07892 
 H                     3.74413   0.70482  -0.01379 
 H                     0.55411   2.73771   0.06707 
 H                    -1.14183   3.24706   0.32647 
 H                    -3.10278  -2.07633  -0.11761 
 H                    -3.87699  -0.51638  -0.23825 
 N                    -3.11691  -1.10231   0.06347 
 N                    -1.84872   0.77653  -0.02003 
 N                    -0.43947   2.62149  -0.02431 
 N                     1.71204   1.05626  -0.01601 
 N                     1.45754  -1.72008  -0.02997 
 N                    -0.87979  -1.43346   0.02208 
 
                    Distance matrix (angstroms):
                    1          2          3          4          5
     1  C    0.000000
     2  C    2.236137   0.000000
     3  C    2.524319   1.412732   0.000000
     4  C    4.660473   3.555417   2.286825   0.000000
     5  C    4.494446   4.081727   2.669577   1.390716   0.000000
     6  C    2.204780   2.467120   1.403109   2.696147   2.294393
     7  H    5.456685   5.149119   3.737422   2.139640   1.068420
     8  H    5.727261   4.436550   3.286848   1.090968   2.142176
     9  H    4.091999   1.867394   2.291803   3.306332   4.380133
    10  H    3.906663   2.024700   3.246354   4.911905   5.776551
    11  H    1.961175   4.184907   4.374121   6.300952   5.808681
    12  H    2.053790   3.715731   4.455454   6.673367   6.535466
    13  N    1.383989   3.453288   3.906577   6.020685   5.742306
    14  N    1.358886   1.312980   2.338960   4.623699   4.860099
    15  N    3.495188   1.325085   2.353791   3.963548   4.837858
    16  N    3.908695   2.376474   1.384892   1.303204   2.361827
    17  N    3.485171   3.693982   2.384774   2.365842   1.313131
    18  N    1.281132   2.756636   2.315496   4.003758   3.518844
                    6          7          8          9         10
     6  C    0.000000
     7  H    3.256066   0.000000
     8  H    3.786168   2.458248   0.000000
     9  H    3.691286   5.356460   3.783570   0.000000
    10  H    4.457567   6.813581   5.518276   1.789678   0.000000
    11  H    3.623635   6.609558   7.390923   6.048301   5.690432
    12  H    4.244479   7.479657   7.721605   5.506087   4.686524
    13  N    3.458105   6.642755   7.095460   5.312454   4.784050
    14  N    2.784194   5.907267   5.593313   3.102807   2.592928
    15  N    3.652360   5.874252   4.601768   1.004523   1.003839
    16  N    2.429788   3.317004   2.062258   2.043275   3.614066
    17  N    1.362032   2.040695   3.333000   4.549449   5.617495
    18  N    1.310879   4.386052   5.094518   4.410980   4.697722
                   11         12         13         14         15
    11  H    0.000000
    12  H    1.745680   0.000000
    13  N    0.990809   1.006017   0.000000
    14  N    3.117852   2.415186   2.268330   0.000000
    15  N    5.401058   4.659242   4.587272   2.321610   0.000000
    16  N    5.745079   5.810323   5.290038   3.571733   2.660642
    17  N    4.575053   5.472612   4.616921   4.143009   4.737923
    18  N    2.318297   3.145162   2.261880   2.413435   4.079050
                   16         17         18
    16  N    0.000000
    17  N    2.788015   0.000000
    18  N    3.594122   2.355408   0.000000
 Symmetry turned off by external request.
 Rotational constants (GHZ):           1.7549061           0.9285991           0.6077018
   330 basis functions,   582 primitive gaussians,   354 cartesian basis functions
    42 alpha electrons       42 beta electrons
       nuclear repulsion energy       676.2088004929 Hartrees.
 NAtoms=   18 NActive=   18 NUniq=   18 SFac= 1.00D+00 NAtFMM=   60 NAOKFM=F Big=F
 ExpMin= 2.97D-02 ExpMax= 9.05D+03 ExpMxC= 3.09D+02 IAcc=3 IRadAn=         5 AccDes= 0.00D+00
 Harris functional with IExCor=  205 and IRadAn=       5 diagonalized for initial guess.
 HarFok:  IExCor=  205 AccDes= 0.00D+00 IRadAn=         5 IDoV= 1 UseB2=F ITyADJ=14
 ICtDFT=  3500011 ScaDFX=  1.000000  1.000000  1.000000  1.000000
 FoFCou: FMM=F IPFlag=           0 FMFlag=      100000 FMFlg1=           0
         NFxFlg=           0 DoJE=T BraDBF=F KetDBF=T FulRan=T
         wScrn=  0.000000 ICntrl=       500 IOpCl=  0 I1Cent=   200000004 NGrid=           0
         NMat0=    1 NMatS0=      1 NMatT0=    0 NMatD0=    1 NMtDS0=    0 NMtDT0=    0
 Symmetry not used in FoFCou.
 SCF Done:  E(RHF) =  -557.491364379     A.U. after   16 cycles
            NFock= 16  Conv=0.75D-08     -V/T= 2.0003

 **********************************************************************

            Population analysis using the SCF Density.

 **********************************************************************

 Alpha  occ. eigenvalues --  -15.61966 -15.59713 -15.59396 -15.56984 -15.56265
 Alpha  occ. eigenvalues --  -15.54323 -11.35586 -11.34871 -11.33037 -11.30576
 Alpha  occ. eigenvalues --  -11.28996 -11.27998  -1.36551  -1.30763  -1.29215
 Alpha  occ. eigenvalues --   -1.22722  -1.19286  -1.17828  -1.05461  -0.94657
 Alpha  occ. eigenvalues --   -0.91283  -0.86461  -0.79715  -0.78672  -0.74178
 Alpha  occ. eigenvalues --   -0.70997  -0.69652  -0.67149  -0.64522  -0.63526
 Alpha  occ. eigenvalues --   -0.61879  -0.59767  -0.55973  -0.54075  -0.50959
 Alpha  occ. eigenvalues --   -0.48761  -0.45555  -0.44438  -0.42163  -0.39429
 Alpha  occ. eigenvalues --   -0.38321  -0.31712
 Alpha virt. eigenvalues --    0.02879   0.03648   0.04226   0.04301   0.05075
 Alpha virt. eigenvalues --    0.06381   0.07487   0.08610   0.09399   0.10231
 Alpha virt. eigenvalues --    0.10769   0.11478   0.11667   0.12049   0.12800
 Alpha virt. eigenvalues --    0.13696   0.14076   0.15038   0.15129   0.15815
 Alpha virt. eigenvalues --    0.16311   0.16750   0.17046   0.17261   0.17680
 Alpha virt. eigenvalues --    0.18874   0.19684   0.19868   0.20587   0.21444
 Alpha virt. eigenvalues --    0.21845   0.22939   0.23464   0.24364   0.25374
 Alpha virt. eigenvalues --    0.25944   0.26072   0.26870   0.27163   0.27468
 Alpha virt. eigenvalues --    0.28438   0.29104   0.29601   0.29933   0.30993
 Alpha virt. eigenvalues --    0.31361   0.31694   0.31763   0.32069   0.32225
 Alpha virt. eigenvalues --    0.34014   0.35681   0.36338   0.36697   0.38250
 Alpha virt. eigenvalues --    0.38699   0.39110   0.40131   0.40456   0.40772
 Alpha virt. eigenvalues --    0.41370   0.42382   0.43051   0.43650   0.44332
 Alpha virt. eigenvalues --    0.44921   0.46808   0.47129   0.47173   0.49429
 Alpha virt. eigenvalues --    0.49866   0.50099   0.50963   0.51374   0.52775
 Alpha virt. eigenvalues --    0.53262   0.54241   0.54962   0.55375   0.56335
 Alpha virt. eigenvalues --    0.57491   0.58125   0.58980   0.60082   0.60147
 Alpha virt. eigenvalues --    0.61713   0.62323   0.63542   0.63763   0.64227
 Alpha virt. eigenvalues --    0.65414   0.65914   0.66654   0.67473   0.67959
 Alpha virt. eigenvalues --    0.68596   0.69353   0.69973   0.70774   0.70992
 Alpha virt. eigenvalues --    0.73023   0.73936   0.74407   0.74966   0.76831
 Alpha virt. eigenvalues --    0.77156   0.77601   0.78986   0.80193   0.80363
 Alpha virt. eigenvalues --    0.81756   0.82409   0.82539   0.84296   0.84466
 Alpha virt. eigenvalues --    0.85284   0.86244   0.87476   0.88038   0.89083
 Alpha virt. eigenvalues --    0.89872   0.90235   0.91124   0.92446   0.93140
 Alpha virt. eigenvalues --    0.93489   0.94465   0.95047   0.95911   0.97048
 Alpha virt. eigenvalues --    0.97381   0.98767   0.99280   1.00933   1.01626
 Alpha virt. eigenvalues --    1.02896   1.04580   1.05487   1.06427   1.07306
 Alpha virt. eigenvalues --    1.08119   1.09928   1.10974   1.12130   1.12651
 Alpha virt. eigenvalues --    1.14319   1.15034   1.16398   1.16835   1.18554
 Alpha virt. eigenvalues --    1.19535   1.20286   1.21355   1.22190   1.23532
 Alpha virt. eigenvalues --    1.26647   1.28723   1.29353   1.30618   1.32853
 Alpha virt. eigenvalues --    1.35550   1.36551   1.38142   1.42214   1.43769
 Alpha virt. eigenvalues --    1.44411   1.46295   1.47580   1.48692   1.49765
 Alpha virt. eigenvalues --    1.52959   1.54043   1.55731   1.57220   1.57476
 Alpha virt. eigenvalues --    1.59798   1.60378   1.62410   1.63900   1.65701
 Alpha virt. eigenvalues --    1.67422   1.69507   1.69958   1.71803   1.72819
 Alpha virt. eigenvalues --    1.74118   1.75088   1.75449   1.76378   1.79192
 Alpha virt. eigenvalues --    1.80100   1.82033   1.83016   1.84753   1.85489
 Alpha virt. eigenvalues --    1.87091   1.90698   1.93404   1.95159   1.97222
 Alpha virt. eigenvalues --    1.97752   2.00647   2.01008   2.02166   2.03376
 Alpha virt. eigenvalues --    2.06290   2.08570   2.10066   2.12563   2.13808
 Alpha virt. eigenvalues --    2.14558   2.16509   2.17217   2.17850   2.19482
 Alpha virt. eigenvalues --    2.20937   2.22517   2.23542   2.25025   2.27606
 Alpha virt. eigenvalues --    2.29164   2.30784   2.32356   2.34369   2.35721
 Alpha virt. eigenvalues --    2.37337   2.38554   2.40139   2.42032   2.44328
 Alpha virt. eigenvalues --    2.45436   2.49212   2.51340   2.52770   2.53838
 Alpha virt. eigenvalues --    2.54435   2.57341   2.58430   2.60588   2.62209
 Alpha virt. eigenvalues --    2.63401   2.65897   2.66210   2.66842   2.68648
 Alpha virt. eigenvalues --    2.70402   2.72776   2.74024   2.74837   2.75597
 Alpha virt. eigenvalues --    2.77733   2.78918   2.81696   2.85092   2.87247
 Alpha virt. eigenvalues --    2.88441   2.89283   2.90696   2.92763   2.93872
 Alpha virt. eigenvalues --    2.96281   2.99191   3.02777   3.03978   3.08928
 Alpha virt. eigenvalues --    3.09829   3.10539   3.11571   3.20534   3.22596
 Alpha virt. eigenvalues --    3.28905   3.33777   3.34597   3.36230   3.41278
 Alpha virt. eigenvalues --    3.43994   3.49502   3.55370   3.57546   3.63112
 Alpha virt. eigenvalues --    3.67844   3.81948   3.82933   3.83887   3.97163
 Alpha virt. eigenvalues --    4.07253   4.21434   4.35980
          Condensed to atoms (all electrons):
 Mulliken charges:
               1
     1  C    0.585442
     2  C    0.463029
     3  C    1.229232
     4  C    0.591194
     5  C    0.751889
     6  C    0.776740
     7  H   -0.354892
     8  H   -0.310478
     9  H    0.131589
    10  H   -0.054780
    11  H   -0.016899
    12  H   -0.028947
    13  N   -0.337282
    14  N   -0.782385
    15  N   -0.259001
    16  N   -0.946141
    17  N   -0.750530
    18  N   -0.687778
 Sum of Mulliken charges =  -0.00000
 Mulliken charges with hydrogens summed into heavy atoms:
               1
     1  C    0.585442
     2  C    0.463029
     3  C    1.229232
     4  C    0.280717
     5  C    0.396997
     6  C    0.776740
    13  N   -0.383128
    14  N   -0.782385
    15  N   -0.182193
    16  N   -0.946141
    17  N   -0.750530
    18  N   -0.687778
 Electronic spatial extent (au):  <R**2>=           1769.7009
 Charge=             -0.0000 electrons
 Dipole moment (field-independent basis, Debye):
    X=              1.3304    Y=              2.6616    Z=              0.0273  Tot=              2.9757
 NROrb=    330 NOA=    42 NOB=    42 NVA=   288 NVB=   288

 **** Warning!!: The largest alpha MO coefficient is  0.10408476D+03

    12 initial guesses have been made.
 Iteration     1 Dimension    12 NMult     0 NNew     12
 New state      1 was old state      4
 Iteration     2 Dimension    24 NMult    12 NNew     12
 New state      1 was old state      2
 Iteration     3 Dimension    27 NMult    24 NNew      3
 Iteration     4 Dimension    30 NMult    27 NNew      3
 Iteration     5 Dimension    33 NMult    30 NNew      3
 Iteration     6 Dimension    36 NMult    33 NNew      3
 Iteration     7 Dimension    39 NMult    36 NNew      3
 ***********************************************************************
 Stability analysis using <AA,BB:AA,BB> singles matrix:
 ***********************************************************************
 Ground to excited state transition densities written to RWF  633

 Eigenvectors of the stability matrix:
 
 Excited state symmetry could not be determined.
 Eigenvector   1:      Singlet-?Sym  Eigenvalue= 0.1478160  <S**2>=0.000
      39 -> 52         0.12837
      41 -> 52         0.12073
      42 -> 45         0.46452
      42 -> 46        -0.36765
 The wavefunction is stable under the perturbations considered.
 The wavefunction is already stable.

 **********************************************************************

            Population analysis using the SCF Density.

 **********************************************************************

 Alpha  occ. eigenvalues --  -15.61966 -15.59713 -15.59396 -15.56984 -15.56265
 Alpha  occ. eigenvalues --  -15.54323 -11.35586 -11.34871 -11.33037 -11.30576
 Alpha  occ. eigenvalues --  -11.28996 -11.27998  -1.36551  -1.30763  -1.29215
 Alpha  occ. eigenvalues --   -1.22722  -1.19286  -1.17828  -1.05461  -0.94657
 Alpha  occ. eigenvalues --   -0.91283  -0.86461  -0.79715  -0.78672  -0.74178
 Alpha  occ. eigenvalues --   -0.70997  -0.69652  -0.67149  -0.64522  -0.63526
 Alpha  occ. eigenvalues --   -0.61879  -0.59767  -0.55973  -0.54075  -0.50959
 Alpha  occ. eigenvalues --   -0.48761  -0.45555  -0.44438  -0.42163  -0.39429
 Alpha  occ. eigenvalues --   -0.38321  -0.31712
 Alpha virt. eigenvalues --    0.02879   0.03648   0.04226   0.04301   0.05075
 Alpha virt. eigenvalues --    0.06381   0.07487   0.08610   0.09399   0.10231
 Alpha virt. eigenvalues --    0.10769   0.11478   0.11667   0.12049   0.12800
 Alpha virt. eigenvalues --    0.13696   0.14076   0.15038   0.15129   0.15815
 Alpha virt. eigenvalues --    0.16311   0.16750   0.17046   0.17261   0.17680
 Alpha virt. eigenvalues --    0.18874   0.19684   0.19868   0.20587   0.21444
 Alpha virt. eigenvalues --    0.21845   0.22939   0.23464   0.24364   0.25374
 Alpha virt. eigenvalues --    0.25944   0.26072   0.26870   0.27163   0.27468
 Alpha virt. eigenvalues --    0.28438   0.29104   0.29601   0.29933   0.30993
 Alpha virt. eigenvalues --    0.31361   0.31694   0.31763   0.32069   0.32225
 Alpha virt. eigenvalues --    0.34014   0.35681   0.36338   0.36697   0.38250
 Alpha virt. eigenvalues --    0.38699   0.39110   0.40131   0.40456   0.40772
 Alpha virt. eigenvalues --    0.41370   0.42382   0.43051   0.43650   0.44332
 Alpha virt. eigenvalues --    0.44921   0.46808   0.47129   0.47173   0.49429
 Alpha virt. eigenvalues --    0.49866   0.50099   0.50963   0.51374   0.52775
 Alpha virt. eigenvalues --    0.53262   0.54241   0.54962   0.55375   0.56335
 Alpha virt. eigenvalues --    0.57491   0.58125   0.58980   0.60082   0.60147
 Alpha virt. eigenvalues --    0.61713   0.62323   0.63542   0.63763   0.64227
 Alpha virt. eigenvalues --    0.65414   0.65914   0.66654   0.67473   0.67959
 Alpha virt. eigenvalues --    0.68596   0.69353   0.69973   0.70774   0.70992
 Alpha virt. eigenvalues --    0.73023   0.73936   0.74407   0.74966   0.76831
 Alpha virt. eigenvalues --    0.77156   0.77601   0.78986   0.80193   0.80363
 Alpha virt. eigenvalues --    0.81756   0.82409   0.82539   0.84296   0.84466
 Alpha virt. eigenvalues --    0.85284   0.86244   0.87476   0.88038   0.89083
 Alpha virt. eigenvalues --    0.89872   0.90235   0.91124   0.92446   0.93140
 Alpha virt. eigenvalues --    0.93489   0.94465   0.95047   0.95911   0.97048
 Alpha virt. eigenvalues --    0.97381   0.98767   0.99280   1.00933   1.01626
 Alpha virt. eigenvalues --    1.02896   1.04580   1.05487   1.06427   1.07306
 Alpha virt. eigenvalues --    1.08119   1.09928   1.10974   1.12130   1.12651
 Alpha virt. eigenvalues --    1.14319   1.15034   1.16398   1.16835   1.18554
 Alpha virt. eigenvalues --    1.19535   1.20286   1.21355   1.22190   1.23532
 Alpha virt. eigenvalues --    1.26647   1.28723   1.29353   1.30618   1.32853
 Alpha virt. eigenvalues --    1.35550   1.36551   1.38142   1.42214   1.43769
 Alpha virt. eigenvalues --    1.44411   1.46295   1.47580   1.48692   1.49765
 Alpha virt. eigenvalues --    1.52959   1.54043   1.55731   1.57220   1.57476
 Alpha virt. eigenvalues --    1.59798   1.60378   1.62410   1.63900   1.65701
 Alpha virt. eigenvalues --    1.67422   1.69507   1.69958   1.71803   1.72819
 Alpha virt. eigenvalues --    1.74118   1.75088   1.75449   1.76378   1.79192
 Alpha virt. eigenvalues --    1.80100   1.82033   1.83016   1.84753   1.85489
 Alpha virt. eigenvalues --    1.87091   1.90698   1.93404   1.95159   1.97222
 Alpha virt. eigenvalues --    1.97752   2.00647   2.01008   2.02166   2.03376
 Alpha virt. eigenvalues --    2.06290   2.08570   2.10066   2.12563   2.13808
 Alpha virt. eigenvalues --    2.14558   2.16509   2.17217   2.17850   2.19482
 Alpha virt. eigenvalues --    2.20937   2.22517   2.23542   2.25025   2.27606
 Alpha virt. eigenvalues --    2.29164   2.30784   2.32356   2.34369   2.35721
 Alpha virt. eigenvalues --    2.37337   2.38554   2.40139   2.42032   2.44328
 Alpha virt. eigenvalues --    2.45436   2.49212   2.51340   2.52770   2.53838
 Alpha virt. eigenvalues --    2.54435   2.57341   2.58430   2.60588   2.62209
 Alpha virt. eigenvalues --    2.63401   2.65897   2.66210   2.66842   2.68648
 Alpha virt. eigenvalues --    2.70402   2.72776   2.74024   2.74837   2.75597
 Alpha virt. eigenvalues --    2.77733   2.78918   2.81696   2.85092   2.87247
 Alpha virt. eigenvalues --    2.88441   2.89283   2.90696   2.92763   2.93872
 Alpha virt. eigenvalues --    2.96281   2.99191   3.02777   3.03978   3.08928
 Alpha virt. eigenvalues --    3.09829   3.10539   3.11571   3.20534   3.22596
 Alpha virt. eigenvalues --    3.28905   3.33777   3.34597   3.36230   3.41278
 Alpha virt. eigenvalues --    3.43994   3.49502   3.55370   3.57546   3.63112
 Alpha virt. eigenvalues --    3.67844   3.81948   3.82933   3.83887   3.97163
 Alpha virt. eigenvalues --    4.07253   4.21434   4.35980
          Condensed to atoms (all electrons):
 Mulliken charges:
               1
     1  C    0.585442
     2  C    0.463029
     3  C    1.229232
     4  C    0.591194
     5  C    0.751889
     6  C    0.776740
     7  H   -0.354892
     8  H   -0.310478
     9  H    0.131589
    10  H   -0.054780
    11  H   -0.016899
    12  H   -0.028947
    13  N   -0.337282
    14  N   -0.782385
    15  N   -0.259001
    16  N   -0.946141
    17  N   -0.750530
    18  N   -0.687778
 Sum of Mulliken charges =  -0.00000
 Mulliken charges with hydrogens summed into heavy atoms:
               1
     1  C    0.585442
     2  C    0.463029
     3  C    1.229232
     4  C    0.280717
     5  C    0.396997
     6  C    0.776740
    13  N   -0.383128
    14  N   -0.782385
    15  N   -0.182193
    16  N   -0.946141
    17  N   -0.750530
    18  N   -0.687778
 Electronic spatial extent (au):  <R**2>=           1769.7009
 Charge=             -0.0000 electrons
 Dipole moment (field-independent basis, Debye):
    X=              1.3304    Y=              2.6616    Z=              0.0273  Tot=              2.9757
 Unable to Open any file for archive entry.
 1\1\GINC-SE159\Stability\RHF\Aug-CC-pVDZ\C6H6N6\OHZDE\08-Apr-2025\0\\#
 t hf aug-cc-pvdz symm=none int=(grid=ultrafine) guess=(read,tcheck) st
 able=(opt,rrhf)\\title\\0,1\C,0,-1.83663,-0.582284,-0.0132197\C,0,-0.6
 50488,1.31333,-0.0180301\C,0,0.46724,0.449347,-0.0235422\C,0,2.74641,0
 .26366,-0.00174786\C,0,2.62521,-1.12157,0.0214734\C,0,0.337472,-0.9469
 56,0.0234961\H,0,3.49524,-1.73904,0.0789231\H,0,3.74413,0.704818,-0.01
 37856\H,0,0.554112,2.73771,0.0670718\H,0,-1.14183,3.24706,0.326473\H,0
 ,-3.10278,-2.07633,-0.117607\H,0,-3.87699,-0.516381,-0.238254\N,0,-3.1
 1691,-1.10231,0.0634666\N,0,-1.84872,0.776531,-0.020033\N,0,-0.439472,
 2.62149,-0.0243103\N,0,1.71204,1.05626,-0.0160085\N,0,1.45754,-1.72008
 ,-0.0299681\N,0,-0.879785,-1.43346,0.022082\\Version=ES64L-G16RevC.01\
 HF=-557.4913644\RMSD=7.465e-09\Dipole=0.5234124,1.0471615,0.0107293\Qu
 adrupole=7.7247257,-2.8263427,-4.8983829,-0.0274178,1.9496066,2.447182
 3\PG=Unknown\\@
 The archive entry for this job was punched.


 ASKING DUMB QUESTIONS IS EASIER THAN CORECTING DUMB MISTAKES.
 Job cpu time:       0 days  0 hours 30 minutes 22.9 seconds.
 Elapsed time:       0 days  0 hours  2 minutes 14.0 seconds.
 File lengths (MBytes):  RWF=    502 Int=      0 D2E=      0 Chk=     15 Scr=      1
 Normal termination of Gaussian 16 at Tue Apr  8 19:35:23 2025.
 Initial command:
 /arc/software/Gaussian/g16.c01/l1.exe "/tmp/slurm/4834853/Gau-1324151.inp" -scrdir="/tmp/slurm/4834853/"
 Entering Link 1 = /arc/software/Gaussian/g16.c01/l1.exe PID=   1328632.
  
 Copyright (c) 1988-2019, Gaussian, Inc.  All Rights Reserved.
  
 This is part of the Gaussian(R) 16 program.  It is based on
 the Gaussian(R) 09 system (copyright 2009, Gaussian, Inc.),
 the Gaussian(R) 03 system (copyright 2003, Gaussian, Inc.),
 the Gaussian(R) 98 system (copyright 1998, Gaussian, Inc.),
 the Gaussian(R) 94 system (copyright 1995, Gaussian, Inc.),
 the Gaussian 92(TM) system (copyright 1992, Gaussian, Inc.),
 the Gaussian 90(TM) system (copyright 1990, Gaussian, Inc.),
 the Gaussian 88(TM) system (copyright 1988, Gaussian, Inc.),
 the Gaussian 86(TM) system (copyright 1986, Carnegie Mellon
 University), and the Gaussian 82(TM) system (copyright 1983,
 Carnegie Mellon University). Gaussian is a federally registered
 trademark of Gaussian, Inc.
  
 This software contains proprietary and confidential information,
 including trade secrets, belonging to Gaussian, Inc.
  
 This software is provided under written license and may be
 used, copied, transmitted, or stored only in accord with that
 written license.
  
 The following legend is applicable only to US Government
 contracts under FAR:
  
                    RESTRICTED RIGHTS LEGEND
  
 Use, reproduction and disclosure by the US Government is
 subject to restrictions as set forth in subparagraphs (a)
 and (c) of the Commercial Computer Software - Restricted
 Rights clause in FAR 52.227-19.
  
 Gaussian, Inc.
 340 Quinnipiac St., Bldg. 40, Wallingford CT 06492
  
  
 ---------------------------------------------------------------
 Warning -- This program may not be used in any manner that
 competes with the business of Gaussian, Inc. or will provide
 assistance to any competitor of Gaussian, Inc.  The licensee
 of this program is prohibited from giving any competitor of
 Gaussian, Inc. access to this program.  By using this program,
 the user acknowledges that Gaussian, Inc. is engaged in the
 business of creating and licensing software in the field of
 computational chemistry and represents and warrants to the
 licensee that it is not a competitor of Gaussian, Inc. and that
 it will not use this program in any manner prohibited above.
 ---------------------------------------------------------------
  

 Cite this work as:
 Gaussian 16, Revision C.01,
 M. J. Frisch, G. W. Trucks, H. B. Schlegel, G. E. Scuseria, 
 M. A. Robb, J. R. Cheeseman, G. Scalmani, V. Barone, 
 G. A. Petersson, H. Nakatsuji, X. Li, M. Caricato, A. V. Marenich, 
 J. Bloino, B. G. Janesko, R. Gomperts, B. Mennucci, H. P. Hratchian, 
 J. V. Ortiz, A. F. Izmaylov, J. L. Sonnenberg, D. Williams-Young, 
 F. Ding, F. Lipparini, F. Egidi, J. Goings, B. Peng, A. Petrone, 
 T. Henderson, D. Ranasinghe, V. G. Zakrzewski, J. Gao, N. Rega, 
 G. Zheng, W. Liang, M. Hada, M. Ehara, K. Toyota, R. Fukuda, 
 J. Hasegawa, M. Ishida, T. Nakajima, Y. Honda, O. Kitao, H. Nakai, 
 T. Vreven, K. Throssell, J. A. Montgomery, Jr., J. E. Peralta, 
 F. Ogliaro, M. J. Bearpark, J. J. Heyd, E. N. Brothers, K. N. Kudin, 
 V. N. Staroverov, T. A. Keith, R. Kobayashi, J. Normand, 
 K. Raghavachari, A. P. Rendell, J. C. Burant, S. S. Iyengar, 
 J. Tomasi, M. Cossi, J. M. Millam, M. Klene, C. Adamo, R. Cammi, 
 J. W. Ochterski, R. L. Martin, K. Morokuma, O. Farkas, 
 J. B. Foresman, and D. J. Fox, Gaussian, Inc., Wallingford CT, 2019.
 
 ******************************************
 Gaussian 16:  ES64L-G16RevC.01  3-Jul-2019
                 8-Apr-2025 
 ******************************************
 %nprocs=16
 Will use up to   16 processors via shared memory.
 %mem=30GB
 %chk=ANI1ccx_1322_conf4_mol1.chk
 ----------------------------------------------------------------------
 #t hf aug-cc-pvdz iop(5/13=1,5/36=2,99/5=2) pseudo=read geom=check gue
 ss=(read,tcheck) scf=(maxcycle=1)
 ----------------------------------------------------------------------
 -----
 title
 -----
 Structure from the checkpoint file:  "ANI1ccx_1322_conf4_mol1.chk"
 Charge =  0 Multiplicity = 1
 Z-Matrix found in chk file.
 C,0,-1.83663,-0.582284,-0.0132197
 C,0,-0.650488,1.31333,-0.0180301
 C,0,0.46724,0.449347,-0.0235422
 C,0,2.74641,0.26366,-0.00174786
 C,0,2.62521,-1.12157,0.0214734
 C,0,0.337472,-0.946956,0.0234961
 H,0,3.49524,-1.73904,0.0789231
 H,0,3.74413,0.704818,-0.0137856
 H,0,0.554112,2.73771,0.0670718
 H,0,-1.14183,3.24706,0.326473
 H,0,-3.10278,-2.07633,-0.117607
 H,0,-3.87699,-0.516381,-0.238254
 N,0,-3.11691,-1.10231,0.0634666
 N,0,-1.84872,0.776531,-0.020033
 N,0,-0.439472,2.62149,-0.0243103
 N,0,1.71204,1.05626,-0.0160085
 N,0,1.45754,-1.72008,-0.0299681
 N,0,-0.879785,-1.43346,0.022082
 Recover connectivity data from disk.
                    Distance matrix (angstroms):
                    1          2          3          4          5
     1  C    0.000000
     2  C    2.236137   0.000000
     3  C    2.524319   1.412732   0.000000
     4  C    4.660473   3.555417   2.286825   0.000000
     5  C    4.494446   4.081727   2.669577   1.390716   0.000000
     6  C    2.204780   2.467120   1.403109   2.696147   2.294393
     7  H    5.456685   5.149119   3.737422   2.139640   1.068420
     8  H    5.727261   4.436550   3.286848   1.090968   2.142176
     9  H    4.091999   1.867394   2.291803   3.306332   4.380133
    10  H    3.906663   2.024700   3.246354   4.911905   5.776551
    11  H    1.961175   4.184907   4.374121   6.300952   5.808681
    12  H    2.053790   3.715731   4.455454   6.673367   6.535466
    13  N    1.383989   3.453288   3.906577   6.020685   5.742306
    14  N    1.358886   1.312980   2.338960   4.623699   4.860099
    15  N    3.495188   1.325085   2.353791   3.963548   4.837858
    16  N    3.908695   2.376474   1.384892   1.303204   2.361827
    17  N    3.485171   3.693982   2.384774   2.365842   1.313131
    18  N    1.281132   2.756636   2.315496   4.003758   3.518844
                    6          7          8          9         10
     6  C    0.000000
     7  H    3.256066   0.000000
     8  H    3.786168   2.458248   0.000000
     9  H    3.691286   5.356460   3.783570   0.000000
    10  H    4.457567   6.813581   5.518276   1.789678   0.000000
    11  H    3.623635   6.609558   7.390923   6.048301   5.690432
    12  H    4.244479   7.479657   7.721605   5.506087   4.686524
    13  N    3.458105   6.642755   7.095460   5.312454   4.784050
    14  N    2.784194   5.907267   5.593313   3.102807   2.592928
    15  N    3.652360   5.874252   4.601768   1.004523   1.003839
    16  N    2.429788   3.317004   2.062258   2.043275   3.614066
    17  N    1.362032   2.040695   3.333000   4.549449   5.617495
    18  N    1.310879   4.386052   5.094518   4.410980   4.697722
                   11         12         13         14         15
    11  H    0.000000
    12  H    1.745680   0.000000
    13  N    0.990809   1.006017   0.000000
    14  N    3.117852   2.415186   2.268330   0.000000
    15  N    5.401058   4.659242   4.587272   2.321610   0.000000
    16  N    5.745079   5.810323   5.290038   3.571733   2.660642
    17  N    4.575053   5.472612   4.616921   4.143009   4.737923
    18  N    2.318297   3.145162   2.261880   2.413435   4.079050
                   16         17         18
    16  N    0.000000
    17  N    2.788015   0.000000
    18  N    3.594122   2.355408   0.000000
 Framework group  C1[X(C6H6N6)]
 Deg. of freedom    48
                         Standard orientation:                         
 ---------------------------------------------------------------------
 Center     Atomic      Atomic             Coordinates (Angstroms)
 Number     Number       Type             X           Y           Z
 ---------------------------------------------------------------------
      1          6           0       -1.836630   -0.582285   -0.013220
      2          6           0       -0.650489    1.313329   -0.018030
      3          6           0        0.467240    0.449347   -0.023542
      4          6           0        2.746410    0.263662   -0.001748
      5          6           0        2.625211   -1.121568    0.021473
      6          6           0        0.337472   -0.946956    0.023496
      7          1           0        3.495241   -1.739038    0.078923
      8          1           0        3.744129    0.704820   -0.013786
      9          1           0        0.554110    2.737710    0.067072
     10          1           0       -1.141832    3.247059    0.326473
     11          1           0       -3.102779   -2.076332   -0.117607
     12          1           0       -3.876990   -0.516384   -0.238254
     13          7           0       -3.116909   -1.102312    0.063467
     14          7           0       -1.848721    0.776530   -0.020033
     15          7           0       -0.439474    2.621490   -0.024310
     16          7           0        1.712039    1.056261   -0.016009
     17          7           0        1.457541   -1.720079   -0.029968
     18          7           0       -0.879784   -1.433461    0.022082
 ---------------------------------------------------------------------
 Rotational constants (GHZ):           1.7549061           0.9285991           0.6077018
 ======================================================================================================
                                       Pseudopotential Parameters
 ======================================================================================================
  Center     Atomic      Valence      Angular      Power
  Number     Number     Electrons     Momentum     of R      Exponent        Coefficient   SO-Coeffient
 ======================================================================================================
    1          6            6
                                      G and up 
                                                     0        0.0000010       -0.00286759    0.00000000
                                                     2        0.1200000        0.03193960    0.00000000
                                                     2        0.1600000       -0.04027782    0.00000000
                                                     2        0.2600000        0.24782456    0.00000000
                                                     2        0.4000000       -0.62266671    0.00000000
                                                     2        0.7000000        0.35695227    0.00000000
                                      S - G
                                                     0        0.0000010       -0.06602313    0.00000000
                                                     2        0.1200000        1.47277455    0.00000000
                                                     2        0.1600000       -4.06924166    0.00000000
                                                     2        0.3000000        5.02952802    0.00000000
                                                     2        0.7000000       -5.65856978    0.00000000
                                                     2        1.7000000        8.57604414    0.00000000
                                      P - G
                                                     0        0.0000010        0.49434425    0.00000000
                                                     2        0.1200000       -1.37391547    0.00000000
                                                     2        0.1600000        3.65411806    0.00000000
                                                     2        0.2800000       -7.36479843    0.00000000
                                                     2        0.6000000       17.22091285    0.00000000
                                                     2        1.1000000      -23.50107827    0.00000000
                                                     2        3.0000000       16.29464063    0.00000000
                                      D - G
                                                     0        0.0000010       -0.28693103    0.00000000
                                                     2        0.1200000        0.12273044    0.00000000
                                                     2        0.3000000       -0.43416384    0.00000000
                                                     2        0.7000000        2.23358493    0.00000000
                                      F - G
                                                     0        0.0000010        0.07263570    0.00000000
                                                     2        0.1400000       -0.76152861    0.00000000
                                                     2        0.2200000        1.98045593    0.00000000
                                                     2        0.4000000       -2.42426427    0.00000000
                                                     2        0.7000000        0.52335237    0.00000000
    2          6            6
                                      G and up 
                                                     0        0.0000010       -0.00286759    0.00000000
                                                     2        0.1200000        0.03193960    0.00000000
                                                     2        0.1600000       -0.04027782    0.00000000
                                                     2        0.2600000        0.24782456    0.00000000
                                                     2        0.4000000       -0.62266671    0.00000000
                                                     2        0.7000000        0.35695227    0.00000000
                                      S - G
                                                     0        0.0000010       -0.06602313    0.00000000
                                                     2        0.1200000        1.47277455    0.00000000
                                                     2        0.1600000       -4.06924166    0.00000000
                                                     2        0.3000000        5.02952802    0.00000000
                                                     2        0.7000000       -5.65856978    0.00000000
                                                     2        1.7000000        8.57604414    0.00000000
                                      P - G
                                                     0        0.0000010        0.49434425    0.00000000
                                                     2        0.1200000       -1.37391547    0.00000000
                                                     2        0.1600000        3.65411806    0.00000000
                                                     2        0.2800000       -7.36479843    0.00000000
                                                     2        0.6000000       17.22091285    0.00000000
                                                     2        1.1000000      -23.50107827    0.00000000
                                                     2        3.0000000       16.29464063    0.00000000
                                      D - G
                                                     0        0.0000010       -0.28693103    0.00000000
                                                     2        0.1200000        0.12273044    0.00000000
                                                     2        0.3000000       -0.43416384    0.00000000
                                                     2        0.7000000        2.23358493    0.00000000
                                      F - G
                                                     0        0.0000010        0.07263570    0.00000000
                                                     2        0.1400000       -0.76152861    0.00000000
                                                     2        0.2200000        1.98045593    0.00000000
                                                     2        0.4000000       -2.42426427    0.00000000
                                                     2        0.7000000        0.52335237    0.00000000
    3          6            6
                                      G and up 
                                                     0        0.0000010       -0.00286759    0.00000000
                                                     2        0.1200000        0.03193960    0.00000000
                                                     2        0.1600000       -0.04027782    0.00000000
                                                     2        0.2600000        0.24782456    0.00000000
                                                     2        0.4000000       -0.62266671    0.00000000
                                                     2        0.7000000        0.35695227    0.00000000
                                      S - G
                                                     0        0.0000010       -0.06602313    0.00000000
                                                     2        0.1200000        1.47277455    0.00000000
                                                     2        0.1600000       -4.06924166    0.00000000
                                                     2        0.3000000        5.02952802    0.00000000
                                                     2        0.7000000       -5.65856978    0.00000000
                                                     2        1.7000000        8.57604414    0.00000000
                                      P - G
                                                     0        0.0000010        0.49434425    0.00000000
                                                     2        0.1200000       -1.37391547    0.00000000
                                                     2        0.1600000        3.65411806    0.00000000
                                                     2        0.2800000       -7.36479843    0.00000000
                                                     2        0.6000000       17.22091285    0.00000000
                                                     2        1.1000000      -23.50107827    0.00000000
                                                     2        3.0000000       16.29464063    0.00000000
                                      D - G
                                                     0        0.0000010       -0.28693103    0.00000000
                                                     2        0.1200000        0.12273044    0.00000000
                                                     2        0.3000000       -0.43416384    0.00000000
                                                     2        0.7000000        2.23358493    0.00000000
                                      F - G
                                                     0        0.0000010        0.07263570    0.00000000
                                                     2        0.1400000       -0.76152861    0.00000000
                                                     2        0.2200000        1.98045593    0.00000000
                                                     2        0.4000000       -2.42426427    0.00000000
                                                     2        0.7000000        0.52335237    0.00000000
    4          6            6
                                      G and up 
                                                     0        0.0000010       -0.00286759    0.00000000
                                                     2        0.1200000        0.03193960    0.00000000
                                                     2        0.1600000       -0.04027782    0.00000000
                                                     2        0.2600000        0.24782456    0.00000000
                                                     2        0.4000000       -0.62266671    0.00000000
                                                     2        0.7000000        0.35695227    0.00000000
                                      S - G
                                                     0        0.0000010       -0.06602313    0.00000000
                                                     2        0.1200000        1.47277455    0.00000000
                                                     2        0.1600000       -4.06924166    0.00000000
                                                     2        0.3000000        5.02952802    0.00000000
                                                     2        0.7000000       -5.65856978    0.00000000
                                                     2        1.7000000        8.57604414    0.00000000
                                      P - G
                                                     0        0.0000010        0.49434425    0.00000000
                                                     2        0.1200000       -1.37391547    0.00000000
                                                     2        0.1600000        3.65411806    0.00000000
                                                     2        0.2800000       -7.36479843    0.00000000
                                                     2        0.6000000       17.22091285    0.00000000
                                                     2        1.1000000      -23.50107827    0.00000000
                                                     2        3.0000000       16.29464063    0.00000000
                                      D - G
                                                     0        0.0000010       -0.28693103    0.00000000
                                                     2        0.1200000        0.12273044    0.00000000
                                                     2        0.3000000       -0.43416384    0.00000000
                                                     2        0.7000000        2.23358493    0.00000000
                                      F - G
                                                     0        0.0000010        0.07263570    0.00000000
                                                     2        0.1400000       -0.76152861    0.00000000
                                                     2        0.2200000        1.98045593    0.00000000
                                                     2        0.4000000       -2.42426427    0.00000000
                                                     2        0.7000000        0.52335237    0.00000000
    5          6            6
                                      G and up 
                                                     0        0.0000010       -0.00286759    0.00000000
                                                     2        0.1200000        0.03193960    0.00000000
                                                     2        0.1600000       -0.04027782    0.00000000
                                                     2        0.2600000        0.24782456    0.00000000
                                                     2        0.4000000       -0.62266671    0.00000000
                                                     2        0.7000000        0.35695227    0.00000000
                                      S - G
                                                     0        0.0000010       -0.06602313    0.00000000
                                                     2        0.1200000        1.47277455    0.00000000
                                                     2        0.1600000       -4.06924166    0.00000000
                                                     2        0.3000000        5.02952802    0.00000000
                                                     2        0.7000000       -5.65856978    0.00000000
                                                     2        1.7000000        8.57604414    0.00000000
                                      P - G
                                                     0        0.0000010        0.49434425    0.00000000
                                                     2        0.1200000       -1.37391547    0.00000000
                                                     2        0.1600000        3.65411806    0.00000000
                                                     2        0.2800000       -7.36479843    0.00000000
                                                     2        0.6000000       17.22091285    0.00000000
                                                     2        1.1000000      -23.50107827    0.00000000
                                                     2        3.0000000       16.29464063    0.00000000
                                      D - G
                                                     0        0.0000010       -0.28693103    0.00000000
                                                     2        0.1200000        0.12273044    0.00000000
                                                     2        0.3000000       -0.43416384    0.00000000
                                                     2        0.7000000        2.23358493    0.00000000
                                      F - G
                                                     0        0.0000010        0.07263570    0.00000000
                                                     2        0.1400000       -0.76152861    0.00000000
                                                     2        0.2200000        1.98045593    0.00000000
                                                     2        0.4000000       -2.42426427    0.00000000
                                                     2        0.7000000        0.52335237    0.00000000
    6          6            6
                                      G and up 
                                                     0        0.0000010       -0.00286759    0.00000000
                                                     2        0.1200000        0.03193960    0.00000000
                                                     2        0.1600000       -0.04027782    0.00000000
                                                     2        0.2600000        0.24782456    0.00000000
                                                     2        0.4000000       -0.62266671    0.00000000
                                                     2        0.7000000        0.35695227    0.00000000
                                      S - G
                                                     0        0.0000010       -0.06602313    0.00000000
                                                     2        0.1200000        1.47277455    0.00000000
                                                     2        0.1600000       -4.06924166    0.00000000
                                                     2        0.3000000        5.02952802    0.00000000
                                                     2        0.7000000       -5.65856978    0.00000000
                                                     2        1.7000000        8.57604414    0.00000000
                                      P - G
                                                     0        0.0000010        0.49434425    0.00000000
                                                     2        0.1200000       -1.37391547    0.00000000
                                                     2        0.1600000        3.65411806    0.00000000
                                                     2        0.2800000       -7.36479843    0.00000000
                                                     2        0.6000000       17.22091285    0.00000000
                                                     2        1.1000000      -23.50107827    0.00000000
                                                     2        3.0000000       16.29464063    0.00000000
                                      D - G
                                                     0        0.0000010       -0.28693103    0.00000000
                                                     2        0.1200000        0.12273044    0.00000000
                                                     2        0.3000000       -0.43416384    0.00000000
                                                     2        0.7000000        2.23358493    0.00000000
                                      F - G
                                                     0        0.0000010        0.07263570    0.00000000
                                                     2        0.1400000       -0.76152861    0.00000000
                                                     2        0.2200000        1.98045593    0.00000000
                                                     2        0.4000000       -2.42426427    0.00000000
                                                     2        0.7000000        0.52335237    0.00000000
    7          1            1
                                      F and up 
                                                     0        0.0000010        0.00072061    0.00000000
                                                     2        0.1200000        0.03832357    0.00000000
                                                     2        0.1400000       -0.08683256    0.00000000
                                                     2        0.1800000        0.09312970    0.00000000
                                                     2        0.2800000       -0.02532572    0.00000000
                                                     2        0.4000000       -0.09430787    0.00000000
                                                     2        0.7000000        0.42710831    0.00000000
                                                     2        1.2000000       -2.11746981    0.00000000
                                      S - F
                                                     0        0.0000010        0.14449603    0.00000000
                                                     2        0.1200000       -0.56378993    0.00000000
                                                     2        0.1400000        0.63941249    0.00000000
                                                     2        0.2600000       -0.58461015    0.00000000
                                                     2        0.5000000        1.00157293    0.00000000
                                                     2        1.8000000       -0.14135838    0.00000000
                                      P - F
                                                     0        0.0000010       -0.09353646    0.00000000
                                                     2        0.1200000        0.31768975    0.00000000
                                                     2        0.2000000       -0.71747951    0.00000000
                                                     2        0.4000000        0.65752308    0.00000000
                                                     2        1.7000000        2.94052587    0.00000000
                                      D - F
                                                     0        0.0000010       -0.04491202    0.00000000
                                                     2        0.1200000       -0.02862031    0.00000000
                                                     2        0.1800000       -0.21515263    0.00000000
                                                     2        0.3000000        0.80560647    0.00000000
                                                     2        0.4000000        0.47351754    0.00000000
                                                     2        0.7000000       -4.57051794    0.00000000
                                                     2        1.6000000       18.53737826    0.00000000
    8          1            1
                                      F and up 
                                                     0        0.0000010        0.00072061    0.00000000
                                                     2        0.1200000        0.03832357    0.00000000
                                                     2        0.1400000       -0.08683256    0.00000000
                                                     2        0.1800000        0.09312970    0.00000000
                                                     2        0.2800000       -0.02532572    0.00000000
                                                     2        0.4000000       -0.09430787    0.00000000
                                                     2        0.7000000        0.42710831    0.00000000
                                                     2        1.2000000       -2.11746981    0.00000000
                                      S - F
                                                     0        0.0000010        0.14449603    0.00000000
                                                     2        0.1200000       -0.56378993    0.00000000
                                                     2        0.1400000        0.63941249    0.00000000
                                                     2        0.2600000       -0.58461015    0.00000000
                                                     2        0.5000000        1.00157293    0.00000000
                                                     2        1.8000000       -0.14135838    0.00000000
                                      P - F
                                                     0        0.0000010       -0.09353646    0.00000000
                                                     2        0.1200000        0.31768975    0.00000000
                                                     2        0.2000000       -0.71747951    0.00000000
                                                     2        0.4000000        0.65752308    0.00000000
                                                     2        1.7000000        2.94052587    0.00000000
                                      D - F
                                                     0        0.0000010       -0.04491202    0.00000000
                                                     2        0.1200000       -0.02862031    0.00000000
                                                     2        0.1800000       -0.21515263    0.00000000
                                                     2        0.3000000        0.80560647    0.00000000
                                                     2        0.4000000        0.47351754    0.00000000
                                                     2        0.7000000       -4.57051794    0.00000000
                                                     2        1.6000000       18.53737826    0.00000000
    9          1            1
                                      F and up 
                                                     0        0.0000010        0.00072061    0.00000000
                                                     2        0.1200000        0.03832357    0.00000000
                                                     2        0.1400000       -0.08683256    0.00000000
                                                     2        0.1800000        0.09312970    0.00000000
                                                     2        0.2800000       -0.02532572    0.00000000
                                                     2        0.4000000       -0.09430787    0.00000000
                                                     2        0.7000000        0.42710831    0.00000000
                                                     2        1.2000000       -2.11746981    0.00000000
                                      S - F
                                                     0        0.0000010        0.14449603    0.00000000
                                                     2        0.1200000       -0.56378993    0.00000000
                                                     2        0.1400000        0.63941249    0.00000000
                                                     2        0.2600000       -0.58461015    0.00000000
                                                     2        0.5000000        1.00157293    0.00000000
                                                     2        1.8000000       -0.14135838    0.00000000
                                      P - F
                                                     0        0.0000010       -0.09353646    0.00000000
                                                     2        0.1200000        0.31768975    0.00000000
                                                     2        0.2000000       -0.71747951    0.00000000
                                                     2        0.4000000        0.65752308    0.00000000
                                                     2        1.7000000        2.94052587    0.00000000
                                      D - F
                                                     0        0.0000010       -0.04491202    0.00000000
                                                     2        0.1200000       -0.02862031    0.00000000
                                                     2        0.1800000       -0.21515263    0.00000000
                                                     2        0.3000000        0.80560647    0.00000000
                                                     2        0.4000000        0.47351754    0.00000000
                                                     2        0.7000000       -4.57051794    0.00000000
                                                     2        1.6000000       18.53737826    0.00000000
   10          1            1
                                      F and up 
                                                     0        0.0000010        0.00072061    0.00000000
                                                     2        0.1200000        0.03832357    0.00000000
                                                     2        0.1400000       -0.08683256    0.00000000
                                                     2        0.1800000        0.09312970    0.00000000
                                                     2        0.2800000       -0.02532572    0.00000000
                                                     2        0.4000000       -0.09430787    0.00000000
                                                     2        0.7000000        0.42710831    0.00000000
                                                     2        1.2000000       -2.11746981    0.00000000
                                      S - F
                                                     0        0.0000010        0.14449603    0.00000000
                                                     2        0.1200000       -0.56378993    0.00000000
                                                     2        0.1400000        0.63941249    0.00000000
                                                     2        0.2600000       -0.58461015    0.00000000
                                                     2        0.5000000        1.00157293    0.00000000
                                                     2        1.8000000       -0.14135838    0.00000000
                                      P - F
                                                     0        0.0000010       -0.09353646    0.00000000
                                                     2        0.1200000        0.31768975    0.00000000
                                                     2        0.2000000       -0.71747951    0.00000000
                                                     2        0.4000000        0.65752308    0.00000000
                                                     2        1.7000000        2.94052587    0.00000000
                                      D - F
                                                     0        0.0000010       -0.04491202    0.00000000
                                                     2        0.1200000       -0.02862031    0.00000000
                                                     2        0.1800000       -0.21515263    0.00000000
                                                     2        0.3000000        0.80560647    0.00000000
                                                     2        0.4000000        0.47351754    0.00000000
                                                     2        0.7000000       -4.57051794    0.00000000
                                                     2        1.6000000       18.53737826    0.00000000
   11          1            1
                                      F and up 
                                                     0        0.0000010        0.00072061    0.00000000
                                                     2        0.1200000        0.03832357    0.00000000
                                                     2        0.1400000       -0.08683256    0.00000000
                                                     2        0.1800000        0.09312970    0.00000000
                                                     2        0.2800000       -0.02532572    0.00000000
                                                     2        0.4000000       -0.09430787    0.00000000
                                                     2        0.7000000        0.42710831    0.00000000
                                                     2        1.2000000       -2.11746981    0.00000000
                                      S - F
                                                     0        0.0000010        0.14449603    0.00000000
                                                     2        0.1200000       -0.56378993    0.00000000
                                                     2        0.1400000        0.63941249    0.00000000
                                                     2        0.2600000       -0.58461015    0.00000000
                                                     2        0.5000000        1.00157293    0.00000000
                                                     2        1.8000000       -0.14135838    0.00000000
                                      P - F
                                                     0        0.0000010       -0.09353646    0.00000000
                                                     2        0.1200000        0.31768975    0.00000000
                                                     2        0.2000000       -0.71747951    0.00000000
                                                     2        0.4000000        0.65752308    0.00000000
                                                     2        1.7000000        2.94052587    0.00000000
                                      D - F
                                                     0        0.0000010       -0.04491202    0.00000000
                                                     2        0.1200000       -0.02862031    0.00000000
                                                     2        0.1800000       -0.21515263    0.00000000
                                                     2        0.3000000        0.80560647    0.00000000
                                                     2        0.4000000        0.47351754    0.00000000
                                                     2        0.7000000       -4.57051794    0.00000000
                                                     2        1.6000000       18.53737826    0.00000000
   12          1            1
                                      F and up 
                                                     0        0.0000010        0.00072061    0.00000000
                                                     2        0.1200000        0.03832357    0.00000000
                                                     2        0.1400000       -0.08683256    0.00000000
                                                     2        0.1800000        0.09312970    0.00000000
                                                     2        0.2800000       -0.02532572    0.00000000
                                                     2        0.4000000       -0.09430787    0.00000000
                                                     2        0.7000000        0.42710831    0.00000000
                                                     2        1.2000000       -2.11746981    0.00000000
                                      S - F
                                                     0        0.0000010        0.14449603    0.00000000
                                                     2        0.1200000       -0.56378993    0.00000000
                                                     2        0.1400000        0.63941249    0.00000000
                                                     2        0.2600000       -0.58461015    0.00000000
                                                     2        0.5000000        1.00157293    0.00000000
                                                     2        1.8000000       -0.14135838    0.00000000
                                      P - F
                                                     0        0.0000010       -0.09353646    0.00000000
                                                     2        0.1200000        0.31768975    0.00000000
                                                     2        0.2000000       -0.71747951    0.00000000
                                                     2        0.4000000        0.65752308    0.00000000
                                                     2        1.7000000        2.94052587    0.00000000
                                      D - F
                                                     0        0.0000010       -0.04491202    0.00000000
                                                     2        0.1200000       -0.02862031    0.00000000
                                                     2        0.1800000       -0.21515263    0.00000000
                                                     2        0.3000000        0.80560647    0.00000000
                                                     2        0.4000000        0.47351754    0.00000000
                                                     2        0.7000000       -4.57051794    0.00000000
                                                     2        1.6000000       18.53737826    0.00000000
   13          7            7
                                      G and up 
                                                     0        0.0000010        0.00420138    0.00000000
                                                     2        0.1200000        0.05872431    0.00000000
                                                     2        0.1400000       -0.08436978    0.00000000
                                                     2        0.2000000        0.05409159    0.00000000
                                                     2        0.2600000        0.14199713    0.00000000
                                                     2        0.6000000       -0.79062770    0.00000000
                                                     2        0.7000000       -0.14441060    0.00000000
                                                     2        1.5000000        0.73772979    0.00000000
                                      S - G
                                                     0        0.0000010       -0.03094411    0.00000000
                                                     2        0.1200000        0.65332522    0.00000000
                                                     2        0.1800000       -1.38149133    0.00000000
                                                     2        1.3000000        3.29267299    0.00000000
                                      P - G
                                                     0        0.0000010        0.07303105    0.00000000
                                                     2        0.1200000        0.23145115    0.00000000
                                                     2        0.2000000       -1.20679699    0.00000000
                                                     2        0.4000000        1.75088447    0.00000000
                                                     2        1.2000000       -0.67486559    0.00000000
                                      D - G
                                                     0        0.0000010        0.07560739    0.00000000
                                                     2        0.3000000       -0.68679114    0.00000000
                                                     2        0.9000000        3.60133241    0.00000000
                                      F - G
                                                     0        0.0000010       -0.18221184    0.00000000
                                                     2        0.1200000       -0.39369067    0.00000000
                                                     2        0.1800000        0.72091725    0.00000000
                                                     2        0.6000000        0.15946111    0.00000000
   14          7            7
                                      G and up 
                                                     0        0.0000010        0.00420138    0.00000000
                                                     2        0.1200000        0.05872431    0.00000000
                                                     2        0.1400000       -0.08436978    0.00000000
                                                     2        0.2000000        0.05409159    0.00000000
                                                     2        0.2600000        0.14199713    0.00000000
                                                     2        0.6000000       -0.79062770    0.00000000
                                                     2        0.7000000       -0.14441060    0.00000000
                                                     2        1.5000000        0.73772979    0.00000000
                                      S - G
                                                     0        0.0000010       -0.03094411    0.00000000
                                                     2        0.1200000        0.65332522    0.00000000
                                                     2        0.1800000       -1.38149133    0.00000000
                                                     2        1.3000000        3.29267299    0.00000000
                                      P - G
                                                     0        0.0000010        0.07303105    0.00000000
                                                     2        0.1200000        0.23145115    0.00000000
                                                     2        0.2000000       -1.20679699    0.00000000
                                                     2        0.4000000        1.75088447    0.00000000
                                                     2        1.2000000       -0.67486559    0.00000000
                                      D - G
                                                     0        0.0000010        0.07560739    0.00000000
                                                     2        0.3000000       -0.68679114    0.00000000
                                                     2        0.9000000        3.60133241    0.00000000
                                      F - G
                                                     0        0.0000010       -0.18221184    0.00000000
                                                     2        0.1200000       -0.39369067    0.00000000
                                                     2        0.1800000        0.72091725    0.00000000
                                                     2        0.6000000        0.15946111    0.00000000
   15          7            7
                                      G and up 
                                                     0        0.0000010        0.00420138    0.00000000
                                                     2        0.1200000        0.05872431    0.00000000
                                                     2        0.1400000       -0.08436978    0.00000000
                                                     2        0.2000000        0.05409159    0.00000000
                                                     2        0.2600000        0.14199713    0.00000000
                                                     2        0.6000000       -0.79062770    0.00000000
                                                     2        0.7000000       -0.14441060    0.00000000
                                                     2        1.5000000        0.73772979    0.00000000
                                      S - G
                                                     0        0.0000010       -0.03094411    0.00000000
                                                     2        0.1200000        0.65332522    0.00000000
                                                     2        0.1800000       -1.38149133    0.00000000
                                                     2        1.3000000        3.29267299    0.00000000
                                      P - G
                                                     0        0.0000010        0.07303105    0.00000000
                                                     2        0.1200000        0.23145115    0.00000000
                                                     2        0.2000000       -1.20679699    0.00000000
                                                     2        0.4000000        1.75088447    0.00000000
                                                     2        1.2000000       -0.67486559    0.00000000
                                      D - G
                                                     0        0.0000010        0.07560739    0.00000000
                                                     2        0.3000000       -0.68679114    0.00000000
                                                     2        0.9000000        3.60133241    0.00000000
                                      F - G
                                                     0        0.0000010       -0.18221184    0.00000000
                                                     2        0.1200000       -0.39369067    0.00000000
                                                     2        0.1800000        0.72091725    0.00000000
                                                     2        0.6000000        0.15946111    0.00000000
   16          7            7
                                      G and up 
                                                     0        0.0000010        0.00420138    0.00000000
                                                     2        0.1200000        0.05872431    0.00000000
                                                     2        0.1400000       -0.08436978    0.00000000
                                                     2        0.2000000        0.05409159    0.00000000
                                                     2        0.2600000        0.14199713    0.00000000
                                                     2        0.6000000       -0.79062770    0.00000000
                                                     2        0.7000000       -0.14441060    0.00000000
                                                     2        1.5000000        0.73772979    0.00000000
                                      S - G
                                                     0        0.0000010       -0.03094411    0.00000000
                                                     2        0.1200000        0.65332522    0.00000000
                                                     2        0.1800000       -1.38149133    0.00000000
                                                     2        1.3000000        3.29267299    0.00000000
                                      P - G
                                                     0        0.0000010        0.07303105    0.00000000
                                                     2        0.1200000        0.23145115    0.00000000
                                                     2        0.2000000       -1.20679699    0.00000000
                                                     2        0.4000000        1.75088447    0.00000000
                                                     2        1.2000000       -0.67486559    0.00000000
                                      D - G
                                                     0        0.0000010        0.07560739    0.00000000
                                                     2        0.3000000       -0.68679114    0.00000000
                                                     2        0.9000000        3.60133241    0.00000000
                                      F - G
                                                     0        0.0000010       -0.18221184    0.00000000
                                                     2        0.1200000       -0.39369067    0.00000000
                                                     2        0.1800000        0.72091725    0.00000000
                                                     2        0.6000000        0.15946111    0.00000000
   17          7            7
                                      G and up 
                                                     0        0.0000010        0.00420138    0.00000000
                                                     2        0.1200000        0.05872431    0.00000000
                                                     2        0.1400000       -0.08436978    0.00000000
                                                     2        0.2000000        0.05409159    0.00000000
                                                     2        0.2600000        0.14199713    0.00000000
                                                     2        0.6000000       -0.79062770    0.00000000
                                                     2        0.7000000       -0.14441060    0.00000000
                                                     2        1.5000000        0.73772979    0.00000000
                                      S - G
                                                     0        0.0000010       -0.03094411    0.00000000
                                                     2        0.1200000        0.65332522    0.00000000
                                                     2        0.1800000       -1.38149133    0.00000000
                                                     2        1.3000000        3.29267299    0.00000000
                                      P - G
                                                     0        0.0000010        0.07303105    0.00000000
                                                     2        0.1200000        0.23145115    0.00000000
                                                     2        0.2000000       -1.20679699    0.00000000
                                                     2        0.4000000        1.75088447    0.00000000
                                                     2        1.2000000       -0.67486559    0.00000000
                                      D - G
                                                     0        0.0000010        0.07560739    0.00000000
                                                     2        0.3000000       -0.68679114    0.00000000
                                                     2        0.9000000        3.60133241    0.00000000
                                      F - G
                                                     0        0.0000010       -0.18221184    0.00000000
                                                     2        0.1200000       -0.39369067    0.00000000
                                                     2        0.1800000        0.72091725    0.00000000
                                                     2        0.6000000        0.15946111    0.00000000
   18          7            7
                                      G and up 
                                                     0        0.0000010        0.00420138    0.00000000
                                                     2        0.1200000        0.05872431    0.00000000
                                                     2        0.1400000       -0.08436978    0.00000000
                                                     2        0.2000000        0.05409159    0.00000000
                                                     2        0.2600000        0.14199713    0.00000000
                                                     2        0.6000000       -0.79062770    0.00000000
                                                     2        0.7000000       -0.14441060    0.00000000
                                                     2        1.5000000        0.73772979    0.00000000
                                      S - G
                                                     0        0.0000010       -0.03094411    0.00000000
                                                     2        0.1200000        0.65332522    0.00000000
                                                     2        0.1800000       -1.38149133    0.00000000
                                                     2        1.3000000        3.29267299    0.00000000
                                      P - G
                                                     0        0.0000010        0.07303105    0.00000000
                                                     2        0.1200000        0.23145115    0.00000000
                                                     2        0.2000000       -1.20679699    0.00000000
                                                     2        0.4000000        1.75088447    0.00000000
                                                     2        1.2000000       -0.67486559    0.00000000
                                      D - G
                                                     0        0.0000010        0.07560739    0.00000000
                                                     2        0.3000000       -0.68679114    0.00000000
                                                     2        0.9000000        3.60133241    0.00000000
                                      F - G
                                                     0        0.0000010       -0.18221184    0.00000000
                                                     2        0.1200000       -0.39369067    0.00000000
                                                     2        0.1800000        0.72091725    0.00000000
                                                     2        0.6000000        0.15946111    0.00000000
 ======================================================================================================
   330 basis functions,   582 primitive gaussians,   354 cartesian basis functions
    42 alpha electrons       42 beta electrons
       nuclear repulsion energy       676.2088004929 Hartrees.
 NAtoms=   18 NActive=   18 NUniq=   18 SFac= 1.00D+00 NAtFMM=   60 NAOKFM=F Big=F
   1 Symmetry operations used in ECPInt.
 ECPInt:  NShTT=    9591 NPrTT=   51279 LenC2=    9512 LenP2D=   35661.
 LDataN:  DoStor=T MaxTD1= 6 Len=  172
 Initial guess from the checkpoint file:  "ANI1ccx_1322_conf4_mol1.chk"
 B after Tr=    -0.000000   -0.000000   -0.000000
         Rot=    1.000000    0.000000    0.000000   -0.000000 Ang=  -0.00 deg.
 >>>>>>>>>> Convergence criterion not met.
 SCF Done:  E(RHF) =  -560.030614204     A.U. after    2 cycles
            NFock=  1  Conv=0.18D+01     -V/T= 2.0117

 **********************************************************************

            Population analysis using the SCF Density.

 **********************************************************************

 Orbital symmetries:
       Occupied  (A) (A) (A) (A) (A) (A) (A) (A) (A) (A) (A) (A)
                 (A) (A) (A) (A) (A) (A) (A) (A) (A) (A) (A) (A)
                 (A) (A) (A) (A) (A) (A) (A) (A) (A) (A) (A) (A)
                 (A) (A) (A) (A) (A) (A)
       Virtual   (A) (A) (A) (A) (A) (A) (A) (A) (A) (A) (A) (A)
                 (A) (A) (A) (A) (A) (A) (A) (A) (A) (A) (A) (A)
                 (A) (A) (A) (A) (A) (A) (A) (A) (A) (A) (A) (A)
                 (A) (A) (A) (A) (A) (A) (A) (A) (A) (A) (A) (A)
                 (A) (A) (A) (A) (A) (A) (A) (A) (A) (A) (A) (A)
                 (A) (A) (A) (A) (A) (A) (A) (A) (A) (A) (A) (A)
                 (A) (A) (A) (A) (A) (A) (A) (A) (A) (A) (A) (A)
                 (A) (A) (A) (A) (A) (A) (A) (A) (A) (A) (A) (A)
                 (A) (A) (A) (A) (A) (A) (A) (A) (A) (A) (A) (A)
                 (A) (A) (A) (A) (A) (A) (A) (A) (A) (A) (A) (A)
                 (A) (A) (A) (A) (A) (A) (A) (A) (A) (A) (A) (A)
                 (A) (A) (A) (A) (A) (A) (A) (A) (A) (A) (A) (A)
                 (A) (A) (A) (A) (A) (A) (A) (A) (A) (A) (A) (A)
                 (A) (A) (A) (A) (A) (A) (A) (A) (A) (A) (A) (A)
                 (A) (A) (A) (A) (A) (A) (A) (A) (A) (A) (A) (A)
                 (A) (A) (A) (A) (A) (A) (A) (A) (A) (A) (A) (A)
                 (A) (A) (A) (A) (A) (A) (A) (A) (A) (A) (A) (A)
                 (A) (A) (A) (A) (A) (A) (A) (A) (A) (A) (A) (A)
                 (A) (A) (A) (A) (A) (A) (A) (A) (A) (A) (A) (A)
                 (A) (A) (A) (A) (A) (A) (A) (A) (A) (A) (A) (A)
                 (A) (A) (A) (A) (A) (A) (A) (A) (A) (A) (A) (A)
                 (A) (A) (A) (A) (A) (A) (A) (A) (A) (A) (A) (A)
                 (A) (A) (A) (A) (A) (A) (A) (A) (A) (A) (A) (A)
                 (A) (A) (A) (A) (A) (A) (A) (A) (A) (A) (A) (A)
 The electronic state is 1-A.
 Alpha  occ. eigenvalues --  -15.78435 -15.77946 -15.75668 -15.75516 -15.72364
 Alpha  occ. eigenvalues --  -15.70854 -11.53270 -11.51569 -11.48086 -11.47610
 Alpha  occ. eigenvalues --  -11.41820 -11.41260  -1.60064  -1.47734  -1.44137
 Alpha  occ. eigenvalues --   -1.34761  -1.29536  -1.27158  -1.12643  -0.98580
 Alpha  occ. eigenvalues --   -0.94359  -0.88657  -0.77976  -0.77283  -0.70806
 Alpha  occ. eigenvalues --   -0.68675  -0.67413  -0.65020  -0.63151  -0.59307
 Alpha  occ. eigenvalues --   -0.56331  -0.55975  -0.54872  -0.52703  -0.47434
 Alpha  occ. eigenvalues --   -0.43784  -0.42552  -0.40167  -0.38502  -0.34550
 Alpha  occ. eigenvalues --   -0.31959  -0.28905
 Alpha virt. eigenvalues --    0.03248   0.04700   0.05185   0.05560   0.06733
 Alpha virt. eigenvalues --    0.07150   0.07622   0.09026   0.10182   0.11036
 Alpha virt. eigenvalues --    0.11480   0.11578   0.12503   0.12933   0.13120
 Alpha virt. eigenvalues --    0.13554   0.13671   0.14793   0.15212   0.15540
 Alpha virt. eigenvalues --    0.16458   0.16627   0.17256   0.17594   0.18237
 Alpha virt. eigenvalues --    0.18763   0.19564   0.19921   0.20379   0.20860
 Alpha virt. eigenvalues --    0.21885   0.22046   0.22917   0.24104   0.24638
 Alpha virt. eigenvalues --    0.25099   0.25626   0.26401   0.26750   0.28299
 Alpha virt. eigenvalues --    0.28733   0.28915   0.29359   0.30270   0.30750
 Alpha virt. eigenvalues --    0.31004   0.31225   0.31459   0.31587   0.32186
 Alpha virt. eigenvalues --    0.32991   0.34676   0.35615   0.37076   0.38158
 Alpha virt. eigenvalues --    0.38451   0.39317   0.39847   0.40478   0.40998
 Alpha virt. eigenvalues --    0.41186   0.42873   0.43549   0.43991   0.44912
 Alpha virt. eigenvalues --    0.46592   0.47132   0.47540   0.48317   0.49837
 Alpha virt. eigenvalues --    0.51054   0.51564   0.51754   0.52439   0.53447
 Alpha virt. eigenvalues --    0.54112   0.55592   0.56855   0.57133   0.57942
 Alpha virt. eigenvalues --    0.58489   0.58982   0.59891   0.61289   0.62032
 Alpha virt. eigenvalues --    0.62667   0.63612   0.64353   0.65162   0.65388
 Alpha virt. eigenvalues --    0.66060   0.67202   0.67594   0.68641   0.69067
 Alpha virt. eigenvalues --    0.69376   0.70318   0.70785   0.71058   0.71739
 Alpha virt. eigenvalues --    0.74526   0.75045   0.76019   0.76497   0.77271
 Alpha virt. eigenvalues --    0.78213   0.79259   0.79706   0.80303   0.81673
 Alpha virt. eigenvalues --    0.83284   0.83710   0.84843   0.85359   0.86943
 Alpha virt. eigenvalues --    0.87912   0.88621   0.88912   0.90009   0.91212
 Alpha virt. eigenvalues --    0.91931   0.92791   0.94246   0.95594   0.95956
 Alpha virt. eigenvalues --    0.96856   0.97385   0.98048   0.99758   1.00730
 Alpha virt. eigenvalues --    1.02122   1.02810   1.03920   1.04698   1.05271
 Alpha virt. eigenvalues --    1.06424   1.07793   1.09952   1.11328   1.11685
 Alpha virt. eigenvalues --    1.12323   1.14563   1.15574   1.17700   1.18806
 Alpha virt. eigenvalues --    1.19913   1.21501   1.22382   1.23538   1.25456
 Alpha virt. eigenvalues --    1.26461   1.26735   1.27998   1.31809   1.33250
 Alpha virt. eigenvalues --    1.34536   1.35989   1.40259   1.41308   1.43923
 Alpha virt. eigenvalues --    1.47185   1.48536   1.49779   1.52268   1.55173
 Alpha virt. eigenvalues --    1.57100   1.58716   1.58820   1.60877   1.62826
 Alpha virt. eigenvalues --    1.65148   1.68737   1.71019   1.71855   1.73536
 Alpha virt. eigenvalues --    1.74840   1.75366   1.79036   1.80534   1.84489
 Alpha virt. eigenvalues --    1.85225   1.86497   1.86557   1.90183   1.90678
 Alpha virt. eigenvalues --    1.91415   1.92041   1.93770   1.94581   1.97281
 Alpha virt. eigenvalues --    1.98391   2.00073   2.02385   2.02605   2.04825
 Alpha virt. eigenvalues --    2.06367   2.10994   2.12558   2.13844   2.18423
 Alpha virt. eigenvalues --    2.19114   2.22201   2.23542   2.25021   2.25786
 Alpha virt. eigenvalues --    2.27259   2.29317   2.30485   2.33561   2.34341
 Alpha virt. eigenvalues --    2.36352   2.38547   2.39120   2.40304   2.40885
 Alpha virt. eigenvalues --    2.42131   2.44201   2.44604   2.47147   2.50719
 Alpha virt. eigenvalues --    2.51929   2.53028   2.55600   2.57470   2.59229
 Alpha virt. eigenvalues --    2.60835   2.65674   2.69101   2.71576   2.74161
 Alpha virt. eigenvalues --    2.74807   2.78083   2.78712   2.80859   2.82515
 Alpha virt. eigenvalues --    2.83246   2.83982   2.86056   2.86731   2.88971
 Alpha virt. eigenvalues --    2.92552   2.93030   2.97473   3.00926   3.01288
 Alpha virt. eigenvalues --    3.03878   3.05969   3.07040   3.10814   3.11975
 Alpha virt. eigenvalues --    3.13373   3.17902   3.19216   3.20125   3.21417
 Alpha virt. eigenvalues --    3.24946   3.27097   3.28345   3.30150   3.32605
 Alpha virt. eigenvalues --    3.35794   3.38433   3.41078   3.45333   3.47681
 Alpha virt. eigenvalues --    3.50815   3.52959   3.54656   3.61915   3.67740
 Alpha virt. eigenvalues --    3.68852   3.69717   3.81336   3.87711   3.92265
 Alpha virt. eigenvalues --    3.95694   4.01773   4.11054   4.18020   4.19837
 Alpha virt. eigenvalues --    4.24621   4.32762   4.35414   4.52106   4.53060
 Alpha virt. eigenvalues --    4.60520   4.62257   4.70572
          Condensed to atoms (all electrons):
 Mulliken charges:
               1
     1  C    4.029587
     2  C    5.398295
     3  C    3.710944
     4  C    0.119391
     5  C   -0.100479
     6  C    3.234606
     7  H    1.680315
     8  H    1.685110
     9  H    0.527737
    10  H    0.852826
    11  H    0.630445
    12  H    0.669804
    13  N   -3.120541
    14  N   -3.420656
    15  N   -3.793413
    16  N   -4.604483
    17  N   -3.826076
    18  N   -3.673412
 Sum of Mulliken charges =  -0.00000
 Mulliken charges with hydrogens summed into heavy atoms:
               1
     1  C    4.029587
     2  C    5.398295
     3  C    3.710944
     4  C    1.804501
     5  C    1.579836
     6  C    3.234606
    13  N   -1.820291
    14  N   -3.420656
    15  N   -2.412850
    16  N   -4.604483
    17  N   -3.826076
    18  N   -3.673412
 Electronic spatial extent (au):  <R**2>=           1800.3047
 Charge=             -0.0000 electrons
 Dipole moment (field-independent basis, Debye):
    X=              0.6858    Y=              2.5815    Z=              0.0408  Tot=              2.6713

 Test job not archived.
 1\1\GINC-SE159\SP\RHF\Aug-CC-pVDZ\C6H6N6\OHZDE\08-Apr-2025\0\\#t hf au
 g-cc-pvdz iop(5/13=1,5/36=2,99/5=2) pseudo=read geom=check guess=(read
 ,tcheck) scf=(maxcycle=1)\\title\\0,1\C,0,-1.83663,-0.582284,-0.013219
 7\C,0,-0.650488,1.31333,-0.0180301\C,0,0.46724,0.449347,-0.0235422\C,0
 ,2.74641,0.26366,-0.00174786\C,0,2.62521,-1.12157,0.0214734\C,0,0.3374
 72,-0.946956,0.0234961\H,0,3.49524,-1.73904,0.0789231\H,0,3.74413,0.70
 4818,-0.0137856\H,0,0.554112,2.73771,0.0670718\H,0,-1.14183,3.24706,0.
 326473\H,0,-3.10278,-2.07633,-0.117607\H,0,-3.87699,-0.516381,-0.23825
 4\N,0,-3.11691,-1.10231,0.0634666\N,0,-1.84872,0.776531,-0.020033\N,0,
 -0.439472,2.62149,-0.0243103\N,0,1.71204,1.05626,-0.0160085\N,0,1.4575
 4,-1.72008,-0.0299681\N,0,-0.879785,-1.43346,0.022082\\Version=ES64L-G
 16RevC.01\State=1-A\HF=-560.0306142\RMSD=1.795e+00\Dipole=0.2698059,1.
 0156406,0.0160445\Quadrupole=6.5653682,-2.2883259,-4.2770424,-0.163213
 8,1.6097926,2.153627\PG=C01 [X(C6H6N6)]\\@


 MY DESCRIPTION OF EXPERIENCE IS NOT WHAT HAPPENS
 TO A MAN.  EXPERIENCE IS WHAT A MAN DOES WITH WHAT
 HAPPENS TO HIM.
                         - CHUCK KNOX, SEATTLE SEAHAWKS, 1985
 Job cpu time:       0 days  0 hours  2 minutes 34.1 seconds.
 Elapsed time:       0 days  0 hours  0 minutes 11.1 seconds.
 File lengths (MBytes):  RWF=     19 Int=      0 D2E=      0 Chk=     15 Scr=      1
 Normal termination of Gaussian 16 at Tue Apr  8 19:35:40 2025.
