 Entering Gaussian System, Link 0=g16
 Input=BDE49_nonexpt_1300_mol1.gjf
 Output=BDE49_nonexpt_1300_mol1.log
 Initial command:
 /arc/software/Gaussian/g16.c01/l1.exe "/tmp/slurm/4844819/Gau-1963675.inp" -scrdir="/tmp/slurm/4844819/"
 Entering Link 1 = /arc/software/Gaussian/g16.c01/l1.exe PID=   1963694.
  
 Copyright (c) 1988-2019, Gaussian, Inc.  All Rights Reserved.
  
 This is part of the Gaussian(R) 16 program.  It is based on
 the Gaussian(R) 09 system (copyright 2009, Gaussian, Inc.),
 the Gaussian(R) 03 system (copyright 2003, Gaussian, Inc.),
 the Gaussian(R) 98 system (copyright 1998, Gaussian, Inc.),
 the Gaussian(R) 94 system (copyright 1995, Gaussian, Inc.),
 the Gaussian 92(TM) system (copyright 1992, Gaussian, Inc.),
 the Gaussian 90(TM) system (copyright 1990, Gaussian, Inc.),
 the Gaussian 88(TM) system (copyright 1988, Gaussian, Inc.),
 the Gaussian 86(TM) system (copyright 1986, Carnegie Mellon
 University), and the Gaussian 82(TM) system (copyright 1983,
 Carnegie Mellon University). Gaussian is a federally registered
 trademark of Gaussian, Inc.
  
 This software contains proprietary and confidential information,
 including trade secrets, belonging to Gaussian, Inc.
  
 This software is provided under written license and may be
 used, copied, transmitted, or stored only in accord with that
 written license.
  
 The following legend is applicable only to US Government
 contracts under FAR:
  
                    RESTRICTED RIGHTS LEGEND
  
 Use, reproduction and disclosure by the US Government is
 subject to restrictions as set forth in subparagraphs (a)
 and (c) of the Commercial Computer Software - Restricted
 Rights clause in FAR 52.227-19.
  
 Gaussian, Inc.
 340 Quinnipiac St., Bldg. 40, Wallingford CT 06492
  
  
 ---------------------------------------------------------------
 Warning -- This program may not be used in any manner that
 competes with the business of Gaussian, Inc. or will provide
 assistance to any competitor of Gaussian, Inc.  The licensee
 of this program is prohibited from giving any competitor of
 Gaussian, Inc. access to this program.  By using this program,
 the user acknowledges that Gaussian, Inc. is engaged in the
 business of creating and licensing software in the field of
 computational chemistry and represents and warrants to the
 licensee that it is not a competitor of Gaussian, Inc. and that
 it will not use this program in any manner prohibited above.
 ---------------------------------------------------------------
  

 Cite this work as:
 Gaussian 16, Revision C.01,
 M. J. Frisch, G. W. Trucks, H. B. Schlegel, G. E. Scuseria, 
 M. A. Robb, J. R. Cheeseman, G. Scalmani, V. Barone, 
 G. A. Petersson, H. Nakatsuji, X. Li, M. Caricato, A. V. Marenich, 
 J. Bloino, B. G. Janesko, R. Gomperts, B. Mennucci, H. P. Hratchian, 
 J. V. Ortiz, A. F. Izmaylov, J. L. Sonnenberg, D. Williams-Young, 
 F. Ding, F. Lipparini, F. Egidi, J. Goings, B. Peng, A. Petrone, 
 T. Henderson, D. Ranasinghe, V. G. Zakrzewski, J. Gao, N. Rega, 
 G. Zheng, W. Liang, M. Hada, M. Ehara, K. Toyota, R. Fukuda, 
 J. Hasegawa, M. Ishida, T. Nakajima, Y. Honda, O. Kitao, H. Nakai, 
 T. Vreven, K. Throssell, J. A. Montgomery, Jr., J. E. Peralta, 
 F. Ogliaro, M. J. Bearpark, J. J. Heyd, E. N. Brothers, K. N. Kudin, 
 V. N. Staroverov, T. A. Keith, R. Kobayashi, J. Normand, 
 K. Raghavachari, A. P. Rendell, J. C. Burant, S. S. Iyengar, 
 J. Tomasi, M. Cossi, J. M. Millam, M. Klene, C. Adamo, R. Cammi, 
 J. W. Ochterski, R. L. Martin, K. Morokuma, O. Farkas, 
 J. B. Foresman, and D. J. Fox, Gaussian, Inc., Wallingford CT, 2019.
 
 ******************************************
 Gaussian 16:  ES64L-G16RevC.01  3-Jul-2019
                 8-Apr-2025 
 ******************************************
 %nprocs=16
 Will use up to   16 processors via shared memory.
 %mem=30GB
 %chk=BDE49_nonexpt_1300_mol1.chk
 ----------------------------------------------------------------------
 #t hf aug-cc-pvdz symm=none int=(grid=ultrafine) guess=(read,tcheck) s
 table=(opt,rrhf)
 ----------------------------------------------------------------------
 -----
 title
 -----
 Symbolic Z-matrix:
 Charge =  0 Multiplicity = 1
 C                     0.22863   0.81087   0. 
 P                    -0.84148  -0.76389   0. 
 F                    -0.07367   1.54283   1.09116 
 F                     1.54471   0.5722    0. 
 F                    -0.07367   1.54283  -1.09116 
 F                    -0.07367  -1.46264  -1.22288 
 F                    -0.07367  -1.46264   1.22288 
 
                    Distance matrix (angstroms):
                    1          2          3          4          5
     1  C    0.000000
     2  P    1.903945   0.000000
     3  F    1.348246   2.664786   0.000000
     4  F    1.337539   2.734776   2.179880   0.000000
     5  F    1.348246   2.664786   2.182318   2.179880   0.000000
     6  F    2.599171   1.604131   3.793101   2.873174   3.008352
     7  F    2.599171   1.604131   3.008352   2.873174   3.793101
                    6          7
     6  F    0.000000
     7  F    2.445762   0.000000
 Symmetry turned off by external request.
 Rotational constants (GHZ):           3.1567034           1.8565183           1.5980592
   165 basis functions,   339 primitive gaussians,   179 cartesian basis functions
    33 alpha electrons       33 beta electrons
       nuclear repulsion energy       436.9911715249 Hartrees.
 NAtoms=    7 NActive=    7 NUniq=    7 SFac= 1.00D+00 NAtFMM=   60 NAOKFM=F Big=F
 ExpMin= 3.43D-02 ExpMax= 9.48D+04 ExpMxC= 3.24D+03 IAcc=3 IRadAn=         5 AccDes= 0.00D+00
 Harris functional with IExCor=  205 and IRadAn=       5 diagonalized for initial guess.
 HarFok:  IExCor=  205 AccDes= 0.00D+00 IRadAn=         5 IDoV= 1 UseB2=F ITyADJ=14
 ICtDFT=  3500011 ScaDFX=  1.000000  1.000000  1.000000  1.000000
 FoFCou: FMM=F IPFlag=           0 FMFlag=      100000 FMFlg1=           0
         NFxFlg=           0 DoJE=T BraDBF=F KetDBF=T FulRan=T
         wScrn=  0.000000 ICntrl=       500 IOpCl=  0 I1Cent=   200000004 NGrid=           0
         NMat0=    1 NMatS0=      1 NMatT0=    0 NMatD0=    1 NMtDS0=    0 NMtDT0=    0
 Symmetry not used in FoFCou.
 SCF Done:  E(RHF) =  -875.908908935     A.U. after   12 cycles
            NFock= 12  Conv=0.80D-08     -V/T= 2.0010

 **********************************************************************

            Population analysis using the SCF Density.

 **********************************************************************

 Alpha  occ. eigenvalues --  -80.14031 -26.37734 -26.37732 -26.37540 -26.36303
 Alpha  occ. eigenvalues --  -26.36302 -11.53605  -7.66295  -5.55701  -5.55573
 Alpha  occ. eigenvalues --   -5.55328  -1.75527  -1.67622  -1.66333  -1.66270
 Alpha  occ. eigenvalues --   -1.64393  -1.02312  -0.92439  -0.84591  -0.84545
 Alpha  occ. eigenvalues --   -0.83182  -0.77481  -0.75406  -0.73167  -0.73060
 Alpha  occ. eigenvalues --   -0.72527  -0.71106  -0.68701  -0.68627  -0.67974
 Alpha  occ. eigenvalues --   -0.67160  -0.59627  -0.45336
 Alpha virt. eigenvalues --    0.05395   0.05819   0.07094   0.07746   0.11199
 Alpha virt. eigenvalues --    0.11404   0.11568   0.14225   0.14283   0.20242
 Alpha virt. eigenvalues --    0.20465   0.22361   0.26009   0.26305   0.28242
 Alpha virt. eigenvalues --    0.28897   0.29647   0.30502   0.31625   0.32088
 Alpha virt. eigenvalues --    0.33240   0.34136   0.35746   0.37061   0.37683
 Alpha virt. eigenvalues --    0.37893   0.38320   0.40045   0.41865   0.43125
 Alpha virt. eigenvalues --    0.43717   0.46669   0.46772   0.47655   0.49193
 Alpha virt. eigenvalues --    0.51981   0.55035   0.57675   0.59483   0.64938
 Alpha virt. eigenvalues --    0.69620   0.73491   0.74617   0.76563   0.77251
 Alpha virt. eigenvalues --    0.84873   0.88804   0.88884   0.90127   0.91647
 Alpha virt. eigenvalues --    0.98371   1.01684   1.03435   1.07472   1.07681
 Alpha virt. eigenvalues --    1.11642   1.29825   1.29907   1.34376   1.34831
 Alpha virt. eigenvalues --    1.36530   1.39644   1.45180   1.48547   1.49740
 Alpha virt. eigenvalues --    1.50464   1.52311   1.52602   1.56621   1.56640
 Alpha virt. eigenvalues --    1.57737   1.58762   1.59132   1.61593   1.66381
 Alpha virt. eigenvalues --    1.68454   1.69037   1.70872   1.72165   1.72426
 Alpha virt. eigenvalues --    1.76845   1.79778   1.82763   1.87414   1.91928
 Alpha virt. eigenvalues --    1.94053   1.97751   2.00579   2.05797   2.10680
 Alpha virt. eigenvalues --    2.12283   2.14246   2.18268   2.22449   2.28951
 Alpha virt. eigenvalues --    2.31926   2.41494   2.46981   2.48153   2.64439
 Alpha virt. eigenvalues --    2.68872   2.68920   3.19902   3.23610   3.50532
 Alpha virt. eigenvalues --    3.52323   3.66126   4.82511   4.84615   4.85717
 Alpha virt. eigenvalues --    4.85959   4.89882   4.90067   4.92034   4.92161
 Alpha virt. eigenvalues --    4.93086   4.93319   4.95235   4.97631   4.97982
 Alpha virt. eigenvalues --    4.98904   5.01246   5.01731   5.02406   5.04157
 Alpha virt. eigenvalues --    5.05671   5.07526   5.11036   5.16197   5.16796
 Alpha virt. eigenvalues --    5.24628   5.25561
          Condensed to atoms (all electrons):
 Mulliken charges:
               1
     1  C    1.388989
     2  P    1.667468
     3  F   -0.577486
     4  F   -0.605557
     5  F   -0.577486
     6  F   -0.647964
     7  F   -0.647964
 Sum of Mulliken charges =  -0.00000
 Mulliken charges with hydrogens summed into heavy atoms:
               1
     1  C    1.388989
     2  P    1.667468
     3  F   -0.577486
     4  F   -0.605557
     5  F   -0.577486
     6  F   -0.647964
     7  F   -0.647964
 Electronic spatial extent (au):  <R**2>=            735.1073
 Charge=             -0.0000 electrons
 Dipole moment (field-independent basis, Debye):
    X=             -1.5542    Y=             -0.3225    Z=             -0.0000  Tot=              1.5873
 NROrb=    165 NOA=    33 NOB=    33 NVA=   132 NVB=   132

 **** Warning!!: The largest alpha MO coefficient is  0.20162802D+02

    12 initial guesses have been made.
 Iteration     1 Dimension    12 NMult     0 NNew     12
 Iteration     2 Dimension    24 NMult    12 NNew     12
 Iteration     3 Dimension    27 NMult    24 NNew      3
 Iteration     4 Dimension    30 NMult    27 NNew      3
 Iteration     5 Dimension    33 NMult    30 NNew      3
 Iteration     6 Dimension    36 NMult    33 NNew      3
 ***********************************************************************
 Stability analysis using <AA,BB:AA,BB> singles matrix:
 ***********************************************************************
 Ground to excited state transition densities written to RWF  633

 Eigenvectors of the stability matrix:
 
 Excited state symmetry could not be determined.
 Eigenvector   1:      Singlet-?Sym  Eigenvalue= 0.2823138  <S**2>=0.000
      33 -> 35         0.54852
      33 -> 41        -0.40713
 The wavefunction is stable under the perturbations considered.
 The wavefunction is already stable.

 **********************************************************************

            Population analysis using the SCF Density.

 **********************************************************************

 Alpha  occ. eigenvalues --  -80.14031 -26.37734 -26.37732 -26.37540 -26.36303
 Alpha  occ. eigenvalues --  -26.36302 -11.53605  -7.66295  -5.55701  -5.55573
 Alpha  occ. eigenvalues --   -5.55328  -1.75527  -1.67622  -1.66333  -1.66270
 Alpha  occ. eigenvalues --   -1.64393  -1.02312  -0.92439  -0.84591  -0.84545
 Alpha  occ. eigenvalues --   -0.83182  -0.77481  -0.75406  -0.73167  -0.73060
 Alpha  occ. eigenvalues --   -0.72527  -0.71106  -0.68701  -0.68627  -0.67974
 Alpha  occ. eigenvalues --   -0.67160  -0.59627  -0.45336
 Alpha virt. eigenvalues --    0.05395   0.05819   0.07094   0.07746   0.11199
 Alpha virt. eigenvalues --    0.11404   0.11568   0.14225   0.14283   0.20242
 Alpha virt. eigenvalues --    0.20465   0.22361   0.26009   0.26305   0.28242
 Alpha virt. eigenvalues --    0.28897   0.29647   0.30502   0.31625   0.32088
 Alpha virt. eigenvalues --    0.33240   0.34136   0.35746   0.37061   0.37683
 Alpha virt. eigenvalues --    0.37893   0.38320   0.40045   0.41865   0.43125
 Alpha virt. eigenvalues --    0.43717   0.46669   0.46772   0.47655   0.49193
 Alpha virt. eigenvalues --    0.51981   0.55035   0.57675   0.59483   0.64938
 Alpha virt. eigenvalues --    0.69620   0.73491   0.74617   0.76563   0.77251
 Alpha virt. eigenvalues --    0.84873   0.88804   0.88884   0.90127   0.91647
 Alpha virt. eigenvalues --    0.98371   1.01684   1.03435   1.07472   1.07681
 Alpha virt. eigenvalues --    1.11642   1.29825   1.29907   1.34376   1.34831
 Alpha virt. eigenvalues --    1.36530   1.39644   1.45180   1.48547   1.49740
 Alpha virt. eigenvalues --    1.50464   1.52311   1.52602   1.56621   1.56640
 Alpha virt. eigenvalues --    1.57737   1.58762   1.59132   1.61593   1.66381
 Alpha virt. eigenvalues --    1.68454   1.69037   1.70872   1.72165   1.72426
 Alpha virt. eigenvalues --    1.76845   1.79778   1.82763   1.87414   1.91928
 Alpha virt. eigenvalues --    1.94053   1.97751   2.00579   2.05797   2.10680
 Alpha virt. eigenvalues --    2.12283   2.14246   2.18268   2.22449   2.28951
 Alpha virt. eigenvalues --    2.31926   2.41494   2.46981   2.48153   2.64439
 Alpha virt. eigenvalues --    2.68872   2.68920   3.19902   3.23610   3.50532
 Alpha virt. eigenvalues --    3.52323   3.66126   4.82511   4.84615   4.85717
 Alpha virt. eigenvalues --    4.85959   4.89882   4.90067   4.92034   4.92161
 Alpha virt. eigenvalues --    4.93086   4.93319   4.95235   4.97631   4.97982
 Alpha virt. eigenvalues --    4.98904   5.01246   5.01731   5.02406   5.04157
 Alpha virt. eigenvalues --    5.05671   5.07526   5.11036   5.16197   5.16796
 Alpha virt. eigenvalues --    5.24628   5.25561
          Condensed to atoms (all electrons):
 Mulliken charges:
               1
     1  C    1.388989
     2  P    1.667468
     3  F   -0.577486
     4  F   -0.605557
     5  F   -0.577486
     6  F   -0.647964
     7  F   -0.647964
 Sum of Mulliken charges =  -0.00000
 Mulliken charges with hydrogens summed into heavy atoms:
               1
     1  C    1.388989
     2  P    1.667468
     3  F   -0.577486
     4  F   -0.605557
     5  F   -0.577486
     6  F   -0.647964
     7  F   -0.647964
 Electronic spatial extent (au):  <R**2>=            735.1073
 Charge=             -0.0000 electrons
 Dipole moment (field-independent basis, Debye):
    X=             -1.5542    Y=             -0.3225    Z=             -0.0000  Tot=              1.5873
 Unable to Open any file for archive entry.
 1\1\GINC-SE341\Stability\RHF\Aug-CC-pVDZ\C1F5P1\OHZDE\08-Apr-2025\0\\#
 t hf aug-cc-pvdz symm=none int=(grid=ultrafine) guess=(read,tcheck) st
 able=(opt,rrhf)\\title\\0,1\C,0,0.228634,0.810872,0.\P,0,-0.84148,-0.7
 63886,0.\F,0,-0.073666,1.542825,1.091159\F,0,1.544706,0.572196,0.\F,0,
 -0.073666,1.542825,-1.091159\F,0,-0.073666,-1.462642,-1.222881\F,0,-0.
 073666,-1.462642,1.222881\\Version=ES64L-G16RevC.01\HF=-875.9089089\RM
 SD=7.956e-09\Dipole=-0.6114733,-0.1268813,0.\Quadrupole=1.0654647,-0.4
 664917,-0.598973,0.8151355,0.,0.\PG=Unknown\\@
 The archive entry for this job was punched.


 IF AT FIRST YOU DON'T SUCCEED, TRY, TRY AGAIN.
 THEN GIVE UP;
 THERE'S NO USE BEING A DAMN FOOL ABOUT IT.

                                 -- W. C. FIELDS
 Job cpu time:       0 days  0 hours  0 minutes 55.8 seconds.
 Elapsed time:       0 days  0 hours  0 minutes  6.7 seconds.
 File lengths (MBytes):  RWF=    199 Int=      0 D2E=      0 Chk=      5 Scr=      1
 Normal termination of Gaussian 16 at Tue Apr  8 23:28:03 2025.
 Initial command:
 /arc/software/Gaussian/g16.c01/l1.exe "/tmp/slurm/4844819/Gau-1963675.inp" -scrdir="/tmp/slurm/4844819/"
 Entering Link 1 = /arc/software/Gaussian/g16.c01/l1.exe PID=   1964010.
  
 Copyright (c) 1988-2019, Gaussian, Inc.  All Rights Reserved.
  
 This is part of the Gaussian(R) 16 program.  It is based on
 the Gaussian(R) 09 system (copyright 2009, Gaussian, Inc.),
 the Gaussian(R) 03 system (copyright 2003, Gaussian, Inc.),
 the Gaussian(R) 98 system (copyright 1998, Gaussian, Inc.),
 the Gaussian(R) 94 system (copyright 1995, Gaussian, Inc.),
 the Gaussian 92(TM) system (copyright 1992, Gaussian, Inc.),
 the Gaussian 90(TM) system (copyright 1990, Gaussian, Inc.),
 the Gaussian 88(TM) system (copyright 1988, Gaussian, Inc.),
 the Gaussian 86(TM) system (copyright 1986, Carnegie Mellon
 University), and the Gaussian 82(TM) system (copyright 1983,
 Carnegie Mellon University). Gaussian is a federally registered
 trademark of Gaussian, Inc.
  
 This software contains proprietary and confidential information,
 including trade secrets, belonging to Gaussian, Inc.
  
 This software is provided under written license and may be
 used, copied, transmitted, or stored only in accord with that
 written license.
  
 The following legend is applicable only to US Government
 contracts under FAR:
  
                    RESTRICTED RIGHTS LEGEND
  
 Use, reproduction and disclosure by the US Government is
 subject to restrictions as set forth in subparagraphs (a)
 and (c) of the Commercial Computer Software - Restricted
 Rights clause in FAR 52.227-19.
  
 Gaussian, Inc.
 340 Quinnipiac St., Bldg. 40, Wallingford CT 06492
  
  
 ---------------------------------------------------------------
 Warning -- This program may not be used in any manner that
 competes with the business of Gaussian, Inc. or will provide
 assistance to any competitor of Gaussian, Inc.  The licensee
 of this program is prohibited from giving any competitor of
 Gaussian, Inc. access to this program.  By using this program,
 the user acknowledges that Gaussian, Inc. is engaged in the
 business of creating and licensing software in the field of
 computational chemistry and represents and warrants to the
 licensee that it is not a competitor of Gaussian, Inc. and that
 it will not use this program in any manner prohibited above.
 ---------------------------------------------------------------
  

 Cite this work as:
 Gaussian 16, Revision C.01,
 M. J. Frisch, G. W. Trucks, H. B. Schlegel, G. E. Scuseria, 
 M. A. Robb, J. R. Cheeseman, G. Scalmani, V. Barone, 
 G. A. Petersson, H. Nakatsuji, X. Li, M. Caricato, A. V. Marenich, 
 J. Bloino, B. G. Janesko, R. Gomperts, B. Mennucci, H. P. Hratchian, 
 J. V. Ortiz, A. F. Izmaylov, J. L. Sonnenberg, D. Williams-Young, 
 F. Ding, F. Lipparini, F. Egidi, J. Goings, B. Peng, A. Petrone, 
 T. Henderson, D. Ranasinghe, V. G. Zakrzewski, J. Gao, N. Rega, 
 G. Zheng, W. Liang, M. Hada, M. Ehara, K. Toyota, R. Fukuda, 
 J. Hasegawa, M. Ishida, T. Nakajima, Y. Honda, O. Kitao, H. Nakai, 
 T. Vreven, K. Throssell, J. A. Montgomery, Jr., J. E. Peralta, 
 F. Ogliaro, M. J. Bearpark, J. J. Heyd, E. N. Brothers, K. N. Kudin, 
 V. N. Staroverov, T. A. Keith, R. Kobayashi, J. Normand, 
 K. Raghavachari, A. P. Rendell, J. C. Burant, S. S. Iyengar, 
 J. Tomasi, M. Cossi, J. M. Millam, M. Klene, C. Adamo, R. Cammi, 
 J. W. Ochterski, R. L. Martin, K. Morokuma, O. Farkas, 
 J. B. Foresman, and D. J. Fox, Gaussian, Inc., Wallingford CT, 2019.
 
 ******************************************
 Gaussian 16:  ES64L-G16RevC.01  3-Jul-2019
                 8-Apr-2025 
 ******************************************
 %nprocs=16
 Will use up to   16 processors via shared memory.
 %mem=30GB
 %chk=BDE49_nonexpt_1300_mol1.chk
 ----------------------------------------------------------------------
 #t hf aug-cc-pvdz iop(5/13=1,5/36=2,99/5=2) pseudo=read geom=check gue
 ss=(read,tcheck) scf=(maxcycle=1)
 ----------------------------------------------------------------------
 -----
 title
 -----
 Structure from the checkpoint file:  "BDE49_nonexpt_1300_mol1.chk"
 Charge =  0 Multiplicity = 1
 Z-Matrix found in chk file.
 C,0,0.228634,0.810872,0.
 P,0,-0.84148,-0.763886,0.
 F,0,-0.073666,1.542825,1.091159
 F,0,1.544706,0.572196,0.
 F,0,-0.073666,1.542825,-1.091159
 F,0,-0.073666,-1.462642,-1.222881
 F,0,-0.073666,-1.462642,1.222881
 Recover connectivity data from disk.
                    Distance matrix (angstroms):
                    1          2          3          4          5
     1  C    0.000000
     2  P    1.903945   0.000000
     3  F    1.348246   2.664786   0.000000
     4  F    1.337539   2.734776   2.179880   0.000000
     5  F    1.348246   2.664786   2.182318   2.179880   0.000000
     6  F    2.599171   1.604131   3.793101   2.873174   3.008352
     7  F    2.599171   1.604131   3.008352   2.873174   3.793101
                    6          7
     6  F    0.000000
     7  F    2.445762   0.000000
 Framework group  CS[SG(CFP),X(F4)]
 Deg. of freedom     9
                         Standard orientation:                         
 ---------------------------------------------------------------------
 Center     Atomic      Atomic             Coordinates (Angstroms)
 Number     Number       Type             X           Y           Z
 ---------------------------------------------------------------------
      1          6           0        0.228634    0.810872    0.000000
      2         15           0       -0.841480   -0.763886   -0.000000
      3          9           0       -0.073666    1.542825    1.091159
      4          9           0        1.544706    0.572196    0.000000
      5          9           0       -0.073666    1.542825   -1.091159
      6          9           0       -0.073666   -1.462642   -1.222881
      7          9           0       -0.073666   -1.462642    1.222881
 ---------------------------------------------------------------------
 Rotational constants (GHZ):           3.1567034           1.8565183           1.5980592
 ======================================================================================================
                                       Pseudopotential Parameters
 ======================================================================================================
  Center     Atomic      Valence      Angular      Power
  Number     Number     Electrons     Momentum     of R      Exponent        Coefficient   SO-Coeffient
 ======================================================================================================
    1          6            6
                                      G and up 
                                                     0        0.0000010       -0.00286759    0.00000000
                                                     2        0.1200000        0.03193960    0.00000000
                                                     2        0.1600000       -0.04027782    0.00000000
                                                     2        0.2600000        0.24782456    0.00000000
                                                     2        0.4000000       -0.62266671    0.00000000
                                                     2        0.7000000        0.35695227    0.00000000
                                      S - G
                                                     0        0.0000010       -0.06602313    0.00000000
                                                     2        0.1200000        1.47277455    0.00000000
                                                     2        0.1600000       -4.06924166    0.00000000
                                                     2        0.3000000        5.02952802    0.00000000
                                                     2        0.7000000       -5.65856978    0.00000000
                                                     2        1.7000000        8.57604414    0.00000000
                                      P - G
                                                     0        0.0000010        0.49434425    0.00000000
                                                     2        0.1200000       -1.37391547    0.00000000
                                                     2        0.1600000        3.65411806    0.00000000
                                                     2        0.2800000       -7.36479843    0.00000000
                                                     2        0.6000000       17.22091285    0.00000000
                                                     2        1.1000000      -23.50107827    0.00000000
                                                     2        3.0000000       16.29464063    0.00000000
                                      D - G
                                                     0        0.0000010       -0.28693103    0.00000000
                                                     2        0.1200000        0.12273044    0.00000000
                                                     2        0.3000000       -0.43416384    0.00000000
                                                     2        0.7000000        2.23358493    0.00000000
                                      F - G
                                                     0        0.0000010        0.07263570    0.00000000
                                                     2        0.1400000       -0.76152861    0.00000000
                                                     2        0.2200000        1.98045593    0.00000000
                                                     2        0.4000000       -2.42426427    0.00000000
                                                     2        0.7000000        0.52335237    0.00000000
    2         15           15
                                      G and up 
                                                     0        0.0000010       -0.00145681    0.00000000
                                                     2        0.1200000        0.02697735    0.00000000
                                                     2        0.1400000        0.02594622    0.00000000
                                                     2        0.2600000       -0.05991007    0.00000000
                                                     2        0.6000000       -2.12394768    0.00000000
                                                     2        1.6000000       12.29328771    0.00000000
                                      S - G
                                                     0        0.0000010       -0.08137818    0.00000000
                                                     2        0.1200000        0.02366916    0.00000000
                                                     2        0.2600000       -0.53803258    0.00000000
                                                     2        1.1000000        1.71477614    0.00000000
                                      P - G
                                                     0        0.0000010        0.47741067    0.00000000
                                                     2        0.1600000       -1.08317867    0.00000000
                                                     2        0.3000000        2.71093215    0.00000000
                                                     2        0.8000000       -7.73495474    0.00000000
                                      D - G
                                                     0        0.0000010        0.42779013    0.00000000
                                                     2        0.1200000       -0.35854051    0.00000000
                                                     2        0.4000000        1.12806605    0.00000000
                                      F - G
                                                     0        0.0000010       -0.49842471    0.00000000
                                                     2        0.1400000        0.07039594    0.00000000
                                                     2        0.2200000        0.02972181    0.00000000
    3          9            9
                                      G and up 
                                                     0        0.0000010       -0.00152163    0.00000000
                                                     2        0.1200000       -0.09043016    0.00000000
                                                     2        0.1400000        0.25628512    0.00000000
                                                     2        0.2000000       -0.31987377    0.00000000
                                                     2        0.3000000        0.48912429    0.00000000
                                                     2        0.4000000        0.12183688    0.00000000
                                                     2        0.6000000       -0.79963093    0.00000000
                                                     2        1.3000000        1.98943307    0.00000000
                                      S - G
                                                     0        0.0000010       -0.05404402    0.00000000
                                                     2        0.1200000        1.31674577    0.00000000
                                                     2        0.2400000       -4.28550771    0.00000000
                                                     2        0.8000000        7.13027769    0.00000000
                                      P - G
                                                     0        0.0000010       -0.03280113    0.00000000
                                                     2        0.1200000       -0.11684768    0.00000000
                                                     2        0.2200000       -0.54710751    0.00000000
                                                     2        0.6000000        1.00412264    0.00000000
                                      D - G
                                                     0        0.0000010       -0.09872413    0.00000000
                                                     2        0.1600000        0.32020158    0.00000000
                                                     2        0.5000000       -3.54424892    0.00000000
                                      F - G
                                                     0        0.0000010        0.17152509    0.00000000
                                                     2        0.1200000       -0.51731546    0.00000000
                                                     2        0.4000000        2.52461867    0.00000000
    4          9            9
                                      G and up 
                                                     0        0.0000010       -0.00152163    0.00000000
                                                     2        0.1200000       -0.09043016    0.00000000
                                                     2        0.1400000        0.25628512    0.00000000
                                                     2        0.2000000       -0.31987377    0.00000000
                                                     2        0.3000000        0.48912429    0.00000000
                                                     2        0.4000000        0.12183688    0.00000000
                                                     2        0.6000000       -0.79963093    0.00000000
                                                     2        1.3000000        1.98943307    0.00000000
                                      S - G
                                                     0        0.0000010       -0.05404402    0.00000000
                                                     2        0.1200000        1.31674577    0.00000000
                                                     2        0.2400000       -4.28550771    0.00000000
                                                     2        0.8000000        7.13027769    0.00000000
                                      P - G
                                                     0        0.0000010       -0.03280113    0.00000000
                                                     2        0.1200000       -0.11684768    0.00000000
                                                     2        0.2200000       -0.54710751    0.00000000
                                                     2        0.6000000        1.00412264    0.00000000
                                      D - G
                                                     0        0.0000010       -0.09872413    0.00000000
                                                     2        0.1600000        0.32020158    0.00000000
                                                     2        0.5000000       -3.54424892    0.00000000
                                      F - G
                                                     0        0.0000010        0.17152509    0.00000000
                                                     2        0.1200000       -0.51731546    0.00000000
                                                     2        0.4000000        2.52461867    0.00000000
    5          9            9
                                      G and up 
                                                     0        0.0000010       -0.00152163    0.00000000
                                                     2        0.1200000       -0.09043016    0.00000000
                                                     2        0.1400000        0.25628512    0.00000000
                                                     2        0.2000000       -0.31987377    0.00000000
                                                     2        0.3000000        0.48912429    0.00000000
                                                     2        0.4000000        0.12183688    0.00000000
                                                     2        0.6000000       -0.79963093    0.00000000
                                                     2        1.3000000        1.98943307    0.00000000
                                      S - G
                                                     0        0.0000010       -0.05404402    0.00000000
                                                     2        0.1200000        1.31674577    0.00000000
                                                     2        0.2400000       -4.28550771    0.00000000
                                                     2        0.8000000        7.13027769    0.00000000
                                      P - G
                                                     0        0.0000010       -0.03280113    0.00000000
                                                     2        0.1200000       -0.11684768    0.00000000
                                                     2        0.2200000       -0.54710751    0.00000000
                                                     2        0.6000000        1.00412264    0.00000000
                                      D - G
                                                     0        0.0000010       -0.09872413    0.00000000
                                                     2        0.1600000        0.32020158    0.00000000
                                                     2        0.5000000       -3.54424892    0.00000000
                                      F - G
                                                     0        0.0000010        0.17152509    0.00000000
                                                     2        0.1200000       -0.51731546    0.00000000
                                                     2        0.4000000        2.52461867    0.00000000
    6          9            9
                                      G and up 
                                                     0        0.0000010       -0.00152163    0.00000000
                                                     2        0.1200000       -0.09043016    0.00000000
                                                     2        0.1400000        0.25628512    0.00000000
                                                     2        0.2000000       -0.31987377    0.00000000
                                                     2        0.3000000        0.48912429    0.00000000
                                                     2        0.4000000        0.12183688    0.00000000
                                                     2        0.6000000       -0.79963093    0.00000000
                                                     2        1.3000000        1.98943307    0.00000000
                                      S - G
                                                     0        0.0000010       -0.05404402    0.00000000
                                                     2        0.1200000        1.31674577    0.00000000
                                                     2        0.2400000       -4.28550771    0.00000000
                                                     2        0.8000000        7.13027769    0.00000000
                                      P - G
                                                     0        0.0000010       -0.03280113    0.00000000
                                                     2        0.1200000       -0.11684768    0.00000000
                                                     2        0.2200000       -0.54710751    0.00000000
                                                     2        0.6000000        1.00412264    0.00000000
                                      D - G
                                                     0        0.0000010       -0.09872413    0.00000000
                                                     2        0.1600000        0.32020158    0.00000000
                                                     2        0.5000000       -3.54424892    0.00000000
                                      F - G
                                                     0        0.0000010        0.17152509    0.00000000
                                                     2        0.1200000       -0.51731546    0.00000000
                                                     2        0.4000000        2.52461867    0.00000000
    7          9            9
                                      G and up 
                                                     0        0.0000010       -0.00152163    0.00000000
                                                     2        0.1200000       -0.09043016    0.00000000
                                                     2        0.1400000        0.25628512    0.00000000
                                                     2        0.2000000       -0.31987377    0.00000000
                                                     2        0.3000000        0.48912429    0.00000000
                                                     2        0.4000000        0.12183688    0.00000000
                                                     2        0.6000000       -0.79963093    0.00000000
                                                     2        1.3000000        1.98943307    0.00000000
                                      S - G
                                                     0        0.0000010       -0.05404402    0.00000000
                                                     2        0.1200000        1.31674577    0.00000000
                                                     2        0.2400000       -4.28550771    0.00000000
                                                     2        0.8000000        7.13027769    0.00000000
                                      P - G
                                                     0        0.0000010       -0.03280113    0.00000000
                                                     2        0.1200000       -0.11684768    0.00000000
                                                     2        0.2200000       -0.54710751    0.00000000
                                                     2        0.6000000        1.00412264    0.00000000
                                      D - G
                                                     0        0.0000010       -0.09872413    0.00000000
                                                     2        0.1600000        0.32020158    0.00000000
                                                     2        0.5000000       -3.54424892    0.00000000
                                      F - G
                                                     0        0.0000010        0.17152509    0.00000000
                                                     2        0.1200000       -0.51731546    0.00000000
                                                     2        0.4000000        2.52461867    0.00000000
 ======================================================================================================
   165 basis functions,   339 primitive gaussians,   179 cartesian basis functions
    33 alpha electrons       33 beta electrons
       nuclear repulsion energy       436.9911715249 Hartrees.
 NAtoms=    7 NActive=    7 NUniq=    5 SFac= 1.96D+00 NAtFMM=   60 NAOKFM=F Big=F
   2 Symmetry operations used in ECPInt.
 ECPInt:  NShTT=    2145 NPrTT=   16863 LenC2=    2132 LenP2D=   11285.
 LDataN:  DoStor=T MaxTD1= 6 Len=  172
 Initial guess from the checkpoint file:  "BDE49_nonexpt_1300_mol1.chk"
 B after Tr=     0.000001   -0.000000   -0.000000
         Rot=    1.000000   -0.000000   -0.000000    0.000000 Ang=   0.00 deg.
 Initial guess orbital symmetries:
       Occupied  (A') (A") (A') (A') (A") (A') (A') (A') (A") (A')
                 (A') (A') (A') (A") (A') (A") (A') (A') (A") (A')
                 (A') (A") (A') (A') (A") (A') (A") (A") (A') (A")
                 (A") (A') (A')
       Virtual   (A') (A") (A') (A') (A') (A") (A') (A") (A') (A')
                 (A") (A') (A') (A") (A') (A") (A') (A') (A") (A')
                 (A") (A') (A') (A") (A') (A") (A") (A') (A') (A')
                 (A") (A') (A") (A') (A') (A') (A") (A') (A") (A')
                 (A') (A') (A") (A") (A') (A') (A") (A') (A') (A")
                 (A') (A') (A') (A') (A") (A") (A") (A') (A") (A')
                 (A") (A') (A") (A') (A') (A") (A") (A') (A") (A')
                 (A") (A") (A') (A') (A") (A') (A") (A') (A') (A")
                 (A') (A") (A") (A') (A') (A") (A') (A') (A") (A')
                 (A") (A') (A') (A") (A") (A') (A') (A') (A") (A')
                 (A") (A') (A") (A') (A') (A") (A') (A") (A') (A")
                 (A') (A') (A") (A') (A") (A") (A') (A') (A") (A')
                 (A") (A") (A') (A') (A') (A') (A") (A') (A") (A")
                 (A") (A')
 >>>>>>>>>> Convergence criterion not met.
 SCF Done:  E(RHF) =  -877.938590173     A.U. after    2 cycles
            NFock=  1  Conv=0.82D-01     -V/T= 2.1639

 **********************************************************************

            Population analysis using the SCF Density.

 **********************************************************************

 Orbital symmetries:
       Occupied  (A') (A") (A') (A') (A") (A') (A') (A') (A") (A')
                 (A') (A') (A') (A") (A') (A') (A") (A') (A') (A")
                 (A') (A') (A') (A") (A") (A') (A") (A') (A") (A")
                 (A") (A') (A')
       Virtual   (A') (A") (A') (A') (A') (A") (A') (A") (A') (A')
                 (A") (A') (A') (A') (A") (A') (A") (A') (A") (A')
                 (A") (A') (A") (A') (A") (A') (A") (A") (A') (A')
                 (A') (A') (A') (A") (A') (A") (A') (A") (A') (A')
                 (A') (A") (A") (A') (A') (A") (A") (A') (A') (A")
                 (A') (A") (A') (A") (A') (A") (A') (A") (A') (A")
                 (A") (A") (A') (A') (A") (A') (A') (A') (A') (A")
                 (A") (A') (A') (A") (A') (A") (A') (A') (A') (A")
                 (A") (A') (A") (A') (A") (A') (A') (A") (A') (A')
                 (A") (A') (A") (A') (A') (A") (A') (A') (A") (A')
                 (A') (A") (A") (A') (A') (A") (A") (A') (A") (A")
                 (A') (A') (A") (A') (A') (A") (A') (A") (A') (A")
                 (A') (A') (A") (A") (A") (A') (A') (A') (A") (A')
                 (A') (A")
 The electronic state is 1-A'.
 Alpha  occ. eigenvalues -- -105.33472 -29.33375 -29.33336 -29.33148 -29.32529
 Alpha  occ. eigenvalues --  -29.32526 -11.58445  -2.93732  -1.68420  -1.63917
 Alpha  occ. eigenvalues --   -1.62451  -1.36912  -0.95121  -0.90259  -0.90096
 Alpha  occ. eigenvalues --   -0.62981  -0.59861  -0.50279  -0.47019  -0.46130
 Alpha  occ. eigenvalues --   -0.45277  -0.42492  -0.39900  -0.39473  -0.38007
 Alpha  occ. eigenvalues --   -0.36524  -0.32123  -0.27931  -0.27165  -0.23548
 Alpha  occ. eigenvalues --   -0.22120  -0.15692  -0.02247
 Alpha virt. eigenvalues --    0.08106   0.10006   0.10830   0.11860   0.13653
 Alpha virt. eigenvalues --    0.13770   0.16441   0.20632   0.20649   0.21716
 Alpha virt. eigenvalues --    0.22450   0.23347   0.25988   0.27221   0.27665
 Alpha virt. eigenvalues --    0.27745   0.30108   0.31344   0.31694   0.33992
 Alpha virt. eigenvalues --    0.34705   0.35283   0.36964   0.37473   0.38395
 Alpha virt. eigenvalues --    0.38795   0.39562   0.40166   0.40621   0.43045
 Alpha virt. eigenvalues --    0.47484   0.51505   0.52229   0.53571   0.54930
 Alpha virt. eigenvalues --    0.56726   0.57659   0.58790   0.59533   0.60425
 Alpha virt. eigenvalues --    0.63380   0.64753   0.66579   0.67322   0.69080
 Alpha virt. eigenvalues --    0.71708   0.74925   0.75201   0.75642   0.76060
 Alpha virt. eigenvalues --    0.80598   0.81155   0.82026   0.82261   0.84355
 Alpha virt. eigenvalues --    0.85695   0.88300   0.88696   0.92976   0.98558
 Alpha virt. eigenvalues --    1.02334   1.04540   1.05291   1.08343   1.13002
 Alpha virt. eigenvalues --    1.16494   1.19361   1.32492   1.34114   1.35552
 Alpha virt. eigenvalues --    1.40102   1.44049   1.49988   1.50219   1.62963
 Alpha virt. eigenvalues --    1.76123   1.76217   1.91801   2.09038   2.16679
 Alpha virt. eigenvalues --    2.18573   2.22855   2.25868   2.27687   2.32212
 Alpha virt. eigenvalues --    2.32610   2.33214   2.38266   2.43035   2.46804
 Alpha virt. eigenvalues --    2.49223   2.54356   2.54656   2.71602   2.80428
 Alpha virt. eigenvalues --    2.86846   2.95408   3.10344   3.11564   3.42456
 Alpha virt. eigenvalues --    3.47221   3.49100   3.52219   3.52592   3.54695
 Alpha virt. eigenvalues --    3.56004   3.59892   3.61000   3.61088   3.61958
 Alpha virt. eigenvalues --    3.63527   3.65265   3.66268   3.68385   3.72086
 Alpha virt. eigenvalues --    3.72336   3.73872   3.77773   3.79622   3.83871
 Alpha virt. eigenvalues --    3.85317   3.90103   3.95179   3.99996   4.13146
 Alpha virt. eigenvalues --    4.14128   4.21670   4.73364   4.81173   4.82498
 Alpha virt. eigenvalues --    4.86092   4.90905
          Condensed to atoms (all electrons):
 Mulliken charges:
               1
     1  C   -1.990437
     2  P    1.316248
     3  F    0.308748
     4  F    0.362127
     5  F    0.308748
     6  F   -0.152717
     7  F   -0.152717
 Sum of Mulliken charges =  -0.00000
 Mulliken charges with hydrogens summed into heavy atoms:
               1
     1  C   -1.990437
     2  P    1.316248
     3  F    0.308748
     4  F    0.362127
     5  F    0.308748
     6  F   -0.152717
     7  F   -0.152717
 Electronic spatial extent (au):  <R**2>=            824.7382
 Charge=              0.0000 electrons
 Dipole moment (field-independent basis, Debye):
    X=              5.3467    Y=             -2.3716    Z=              0.0000  Tot=              5.8491

 Test job not archived.
 1\1\GINC-SE341\SP\RHF\Aug-CC-pVDZ\C1F5P1\OHZDE\08-Apr-2025\0\\#t hf au
 g-cc-pvdz iop(5/13=1,5/36=2,99/5=2) pseudo=read geom=check guess=(read
 ,tcheck) scf=(maxcycle=1)\\title\\0,1\C,0,0.228634,0.810872,0.\P,0,-0.
 84148,-0.763886,0.\F,0,-0.073666,1.542825,1.091159\F,0,1.544706,0.5721
 96,0.\F,0,-0.073666,1.542825,-1.091159\F,0,-0.073666,-1.462642,-1.2228
 81\F,0,-0.073666,-1.462642,1.222881\\Version=ES64L-G16RevC.01\State=1-
 A'\HF=-877.9385902\RMSD=8.214e-02\Dipole=2.1035572,-0.9330735,0.\Quadr
 upole=-11.3004235,5.5278768,5.7725467,-2.6595814,0.,0.\PG=CS [SG(C1F1P
 1),X(F4)]\\@


 Any fool can criticize, condemn, and complain -- and most do.
 -- Dale Carnegie
 Job cpu time:       0 days  0 hours  0 minutes 22.2 seconds.
 Elapsed time:       0 days  0 hours  0 minutes  2.2 seconds.
 File lengths (MBytes):  RWF=     10 Int=      0 D2E=      0 Chk=      5 Scr=      1
 Normal termination of Gaussian 16 at Tue Apr  8 23:28:05 2025.
