 Entering Gaussian System, Link 0=g16
 Input=BDE49_expt_621_mol2.gjf
 Output=BDE49_expt_621_mol2.log
 Initial command:
 /arc/software/Gaussian/g16.c01/l1.exe "/tmp/slurm/4843562/Gau-2400705.inp" -scrdir="/tmp/slurm/4843562/"
 Entering Link 1 = /arc/software/Gaussian/g16.c01/l1.exe PID=   2400706.
  
 Copyright (c) 1988-2019, Gaussian, Inc.  All Rights Reserved.
  
 This is part of the Gaussian(R) 16 program.  It is based on
 the Gaussian(R) 09 system (copyright 2009, Gaussian, Inc.),
 the Gaussian(R) 03 system (copyright 2003, Gaussian, Inc.),
 the Gaussian(R) 98 system (copyright 1998, Gaussian, Inc.),
 the Gaussian(R) 94 system (copyright 1995, Gaussian, Inc.),
 the Gaussian 92(TM) system (copyright 1992, Gaussian, Inc.),
 the Gaussian 90(TM) system (copyright 1990, Gaussian, Inc.),
 the Gaussian 88(TM) system (copyright 1988, Gaussian, Inc.),
 the Gaussian 86(TM) system (copyright 1986, Carnegie Mellon
 University), and the Gaussian 82(TM) system (copyright 1983,
 Carnegie Mellon University). Gaussian is a federally registered
 trademark of Gaussian, Inc.
  
 This software contains proprietary and confidential information,
 including trade secrets, belonging to Gaussian, Inc.
  
 This software is provided under written license and may be
 used, copied, transmitted, or stored only in accord with that
 written license.
  
 The following legend is applicable only to US Government
 contracts under FAR:
  
                    RESTRICTED RIGHTS LEGEND
  
 Use, reproduction and disclosure by the US Government is
 subject to restrictions as set forth in subparagraphs (a)
 and (c) of the Commercial Computer Software - Restricted
 Rights clause in FAR 52.227-19.
  
 Gaussian, Inc.
 340 Quinnipiac St., Bldg. 40, Wallingford CT 06492
  
  
 ---------------------------------------------------------------
 Warning -- This program may not be used in any manner that
 competes with the business of Gaussian, Inc. or will provide
 assistance to any competitor of Gaussian, Inc.  The licensee
 of this program is prohibited from giving any competitor of
 Gaussian, Inc. access to this program.  By using this program,
 the user acknowledges that Gaussian, Inc. is engaged in the
 business of creating and licensing software in the field of
 computational chemistry and represents and warrants to the
 licensee that it is not a competitor of Gaussian, Inc. and that
 it will not use this program in any manner prohibited above.
 ---------------------------------------------------------------
  

 Cite this work as:
 Gaussian 16, Revision C.01,
 M. J. Frisch, G. W. Trucks, H. B. Schlegel, G. E. Scuseria, 
 M. A. Robb, J. R. Cheeseman, G. Scalmani, V. Barone, 
 G. A. Petersson, H. Nakatsuji, X. Li, M. Caricato, A. V. Marenich, 
 J. Bloino, B. G. Janesko, R. Gomperts, B. Mennucci, H. P. Hratchian, 
 J. V. Ortiz, A. F. Izmaylov, J. L. Sonnenberg, D. Williams-Young, 
 F. Ding, F. Lipparini, F. Egidi, J. Goings, B. Peng, A. Petrone, 
 T. Henderson, D. Ranasinghe, V. G. Zakrzewski, J. Gao, N. Rega, 
 G. Zheng, W. Liang, M. Hada, M. Ehara, K. Toyota, R. Fukuda, 
 J. Hasegawa, M. Ishida, T. Nakajima, Y. Honda, O. Kitao, H. Nakai, 
 T. Vreven, K. Throssell, J. A. Montgomery, Jr., J. E. Peralta, 
 F. Ogliaro, M. J. Bearpark, J. J. Heyd, E. N. Brothers, K. N. Kudin, 
 V. N. Staroverov, T. A. Keith, R. Kobayashi, J. Normand, 
 K. Raghavachari, A. P. Rendell, J. C. Burant, S. S. Iyengar, 
 J. Tomasi, M. Cossi, J. M. Millam, M. Klene, C. Adamo, R. Cammi, 
 J. W. Ochterski, R. L. Martin, K. Morokuma, O. Farkas, 
 J. B. Foresman, and D. J. Fox, Gaussian, Inc., Wallingford CT, 2019.
 
 ******************************************
 Gaussian 16:  ES64L-G16RevC.01  3-Jul-2019
                 8-Apr-2025 
 ******************************************
 %nprocs=16
 Will use up to   16 processors via shared memory.
 %mem=30GB
 %chk=BDE49_expt_621_mol2.chk
 ----------------------------------------------------------------------
 #t hf aug-cc-pvdz symm=none int=(grid=ultrafine) guess=(read,tcheck) s
 table=opt
 ----------------------------------------------------------------------
 -----
 title
 -----
 Symbolic Z-matrix:
 Charge =  0 Multiplicity = 2
 C                     0.02      0.77497   0.26065 
 O                     1.16521   0.31202  -0.45782 
 O                     1.8034   -0.64022   0.2015 
 H                     0.23521   0.76158   1.32508 
 H                    -0.19468   1.76431  -0.13323 
 Cl                   -1.40643  -0.26765  -0.04148 
 
                    Distance matrix (angstroms):
                    1          2          3          4          5
     1  C    0.000000
     2  O    1.428992   0.000000
     3  O    2.277450   1.322398   0.000000
     4  H    1.086049   2.060512   2.384679   0.000000
     5  H    1.086287   2.015889   3.144221   1.821241   0.000000
     6  Cl   1.792501   2.668839   3.240503   2.371030   2.367629
                    6
     6  Cl   0.000000
 Symmetry turned off by external request.
 Rotational constants (GHZ):          17.9873127           3.3785271           3.0726577
   114 basis functions,   232 primitive gaussians,   122 cartesian basis functions
    21 alpha electrons       20 beta electrons
       nuclear repulsion energy       154.8327441058 Hartrees.
 NAtoms=    6 NActive=    6 NUniq=    6 SFac= 1.00D+00 NAtFMM=   60 NAOKFM=F Big=F
 ExpMin= 2.97D-02 ExpMax= 1.28D+05 ExpMxC= 1.24D+03 IAcc=3 IRadAn=         5 AccDes= 0.00D+00
 Harris functional with IExCor=  205 and IRadAn=       5 diagonalized for initial guess.
 HarFok:  IExCor=  205 AccDes= 0.00D+00 IRadAn=         5 IDoV= 1 UseB2=F ITyADJ=14
 ICtDFT=  3500011 ScaDFX=  1.000000  1.000000  1.000000  1.000000
 FoFCou: FMM=F IPFlag=           0 FMFlag=      100000 FMFlg1=           0
         NFxFlg=           0 DoJE=T BraDBF=F KetDBF=T FulRan=T
         wScrn=  0.000000 ICntrl=       500 IOpCl=  0 I1Cent=   200000004 NGrid=           0
         NMat0=    1 NMatS0=      1 NMatT0=    0 NMatD0=    1 NMtDS0=    0 NMtDT0=    0
 Symmetry not used in FoFCou.
 Initial guess <Sx>= 0.0000 <Sy>= 0.0000 <Sz>= 0.5000 <S**2>= 0.7500 S= 0.5000
 SCF Done:  E(UHF) =  -648.155513873     A.U. after   23 cycles
            NFock= 23  Conv=0.60D-08     -V/T= 2.0003
 <Sx>= 0.0000 <Sy>= 0.0000 <Sz>= 0.5000 <S**2>= 0.7626 S= 0.5063
 <L.S>=  0.00000000000    
 Annihilation of the first spin contaminant:
 S**2 before annihilation     0.7626,   after     0.7501

 **********************************************************************

            Population analysis using the SCF Density.

 **********************************************************************

 Alpha  occ. eigenvalues -- -104.84634 -20.70960 -20.69792 -11.38423 -10.57284
 Alpha  occ. eigenvalues --   -8.04067  -8.03713  -8.03704  -1.60325  -1.25837
 Alpha  occ. eigenvalues --   -1.13082  -0.92499  -0.78153  -0.74283  -0.72716
 Alpha  occ. eigenvalues --   -0.62315  -0.60994  -0.53114  -0.50385  -0.46744
 Alpha  occ. eigenvalues --   -0.45955
 Alpha virt. eigenvalues --    0.03411   0.05018   0.07393   0.09345   0.12942
 Alpha virt. eigenvalues --    0.13969   0.15176   0.15951   0.16044   0.17665
 Alpha virt. eigenvalues --    0.20563   0.21607   0.24215   0.25542   0.27230
 Alpha virt. eigenvalues --    0.27235   0.28467   0.30235   0.31843   0.34685
 Alpha virt. eigenvalues --    0.35828   0.41178   0.43082   0.43215   0.45571
 Alpha virt. eigenvalues --    0.48510   0.49427   0.50229   0.51984   0.54928
 Alpha virt. eigenvalues --    0.57684   0.60324   0.63341   0.65175   0.68768
 Alpha virt. eigenvalues --    0.71268   0.73697   0.76286   0.79220   0.90207
 Alpha virt. eigenvalues --    0.94069   0.96091   1.01121   1.02139   1.03446
 Alpha virt. eigenvalues --    1.06751   1.11710   1.12199   1.16365   1.18357
 Alpha virt. eigenvalues --    1.21764   1.25454   1.28857   1.32576   1.34272
 Alpha virt. eigenvalues --    1.40317   1.41625   1.41995   1.44739   1.48214
 Alpha virt. eigenvalues --    1.52493   1.53828   1.64066   1.65429   1.67788
 Alpha virt. eigenvalues --    1.73192   1.75178   1.79004   1.92113   1.95553
 Alpha virt. eigenvalues --    1.97264   2.05769   2.12301   2.22358   2.23355
 Alpha virt. eigenvalues --    2.37090   2.42890   2.51110   2.65375   2.78955
 Alpha virt. eigenvalues --    2.87196   2.99929   3.30203   3.34426   3.46004
 Alpha virt. eigenvalues --    3.55672   3.56996   3.66455   3.70350   3.77725
 Alpha virt. eigenvalues --    3.91542   3.98877   4.38105
  Beta  occ. eigenvalues -- -104.84623 -20.69054 -20.66813 -11.38487 -10.57274
  Beta  occ. eigenvalues --   -8.04021  -8.03712  -8.03694  -1.54406  -1.18692
  Beta  occ. eigenvalues --   -1.10481  -0.91184  -0.73174  -0.71216  -0.64932
  Beta  occ. eigenvalues --   -0.60988  -0.52237  -0.49946  -0.46397  -0.45911
  Beta virt. eigenvalues --    0.03392   0.04953   0.07441   0.08218   0.09425
  Beta virt. eigenvalues --    0.13247   0.14280   0.15304   0.16039   0.16393
  Beta virt. eigenvalues --    0.17746   0.20709   0.22154   0.25777   0.26922
  Beta virt. eigenvalues --    0.27498   0.28685   0.28977   0.30650   0.32030
  Beta virt. eigenvalues --    0.34748   0.37633   0.41670   0.43137   0.43353
  Beta virt. eigenvalues --    0.46050   0.48666   0.49575   0.50408   0.52166
  Beta virt. eigenvalues --    0.54964   0.57863   0.60659   0.63410   0.65331
  Beta virt. eigenvalues --    0.68991   0.71421   0.73926   0.76540   0.79368
  Beta virt. eigenvalues --    0.90375   0.94553   0.96532   1.01679   1.03381
  Beta virt. eigenvalues --    1.05079   1.07995   1.12047   1.14135   1.17461
  Beta virt. eigenvalues --    1.19737   1.22960   1.26953   1.33357   1.34970
  Beta virt. eigenvalues --    1.35279   1.40371   1.42264   1.43969   1.46883
  Beta virt. eigenvalues --    1.48958   1.52833   1.54081   1.64872   1.66999
  Beta virt. eigenvalues --    1.70366   1.73784   1.76375   1.79344   1.92564
  Beta virt. eigenvalues --    1.95840   1.97723   2.05941   2.12463   2.22446
  Beta virt. eigenvalues --    2.23431   2.37445   2.43199   2.51180   2.66092
  Beta virt. eigenvalues --    2.79488   2.87571   3.00735   3.32577   3.39858
  Beta virt. eigenvalues --    3.49970   3.62575   3.64732   3.68516   3.72104
  Beta virt. eigenvalues --    3.79941   3.96448   3.99554   4.40178
          Condensed to atoms (all electrons):
          Atomic-Atomic Spin Densities.
 Mulliken charges and spin densities:
               1          2
     1  C    0.621035  -0.023929
     2  O   -0.425273   0.059657
     3  O   -0.137171   0.957424
     4  H    0.063090  -0.003301
     5  H   -0.008507   0.001281
     6  Cl  -0.113175   0.008867
 Sum of Mulliken charges =  -0.00000   1.00000
 Mulliken charges and spin densities with hydrogens summed into heavy atoms:
               1          2
     1  C    0.675618  -0.025948
     2  O   -0.425273   0.059657
     3  O   -0.137171   0.957424
     6  Cl  -0.113175   0.008867
 Electronic spatial extent (au):  <R**2>=            379.3922
 Charge=             -0.0000 electrons
 Dipole moment (field-independent basis, Debye):
    X=             -0.2132    Y=              1.9527    Z=              1.0839  Tot=              2.2435
                          Isotropic Fermi Contact Couplings
        Atom                 a.u.       MegaHertz       Gauss      10(-4) cm-1
     1  C(13)             -0.01056     -11.87441      -4.23709      -3.96088
     2  O(17)              0.07960     -48.25285     -17.21782     -16.09542
     3  O(17)              0.29317    -177.71578     -63.41341     -59.27960
     4  H(1)               0.00027       1.22034       0.43545       0.40706
     5  H(1)              -0.00063      -2.79722      -0.99812      -0.93305
     6  Cl(35)            -0.00165      -0.72384      -0.25828      -0.24145
 --------------------------------------------------------
       Center         ----  Spin Dipole Couplings  ----
                      3XX-RR        3YY-RR        3ZZ-RR
 --------------------------------------------------------
     1   Atom        0.006897     -0.001447     -0.005450
     2   Atom        0.026385      0.156010     -0.182395
     3   Atom       -0.111990      0.841865     -0.729876
     4   Atom        0.003812     -0.000887     -0.002926
     5   Atom        0.002627      0.003444     -0.006071
     6   Atom        0.008009      0.022417     -0.030426
 --------------------------------------------------------
                        XY            XZ            YZ
 --------------------------------------------------------
     1   Atom       -0.013494     -0.001770     -0.002255
     2   Atom        0.516891      0.247100      0.506815
     3   Atom        2.144939      1.373109      1.669542
     4   Atom       -0.010425     -0.010724      0.007941
     5   Atom       -0.008796      0.000152      0.001175
     6   Atom        0.054464     -0.011423     -0.011244
 --------------------------------------------------------


 ---------------------------------------------------------------------------------
              Anisotropic Spin Dipole Couplings in Principal Axis System
 ---------------------------------------------------------------------------------

       Atom             a.u.   MegaHertz   Gauss  10(-4) cm-1        Axes

              Baa    -0.0126    -1.685    -0.601    -0.562  0.5514  0.7457  0.3740
     1 C(13)  Bbb    -0.0043    -0.576    -0.206    -0.192 -0.2190 -0.3033  0.9274
              Bcc     0.0168     2.261     0.807     0.754  0.8050 -0.5932 -0.0039
 
              Baa    -0.5800    41.970    14.976    14.000 -0.3011  0.6751 -0.6734
     2 O(17)  Bbb    -0.3116    22.547     8.045     7.521  0.7799 -0.2321 -0.5813
              Bcc     0.8916   -64.517   -23.021   -21.520  0.5487  0.7002  0.4567
 
              Baa    -1.8451   133.513    47.641    44.535  0.8178 -0.3895 -0.4238
     3 O(17)  Bbb    -1.7880   129.378    46.165    43.156  0.1227 -0.6013  0.7895
              Bcc     3.6331  -262.891   -93.806   -87.691  0.5623  0.6976  0.4439
 
              Baa    -0.0108    -5.774    -2.060    -1.926  0.5407 -0.1003  0.8352
     4 H(1)   Bbb    -0.0091    -4.861    -1.735    -1.621  0.4955  0.8403 -0.2198
              Bcc     0.0199    10.635     3.795     3.547  0.6798 -0.5327 -0.5040
 
              Baa    -0.0069    -3.666    -1.308    -1.223 -0.4428 -0.4649  0.7667
     5 H(1)   Bbb    -0.0050    -2.668    -0.952    -0.890  0.5746  0.5093  0.6407
              Bcc     0.0119     6.335     2.260     2.113 -0.6883  0.7242  0.0416
 
              Baa    -0.0399    -2.089    -0.746    -0.697  0.7574 -0.6325  0.1622
     6 Cl(35) Bbb    -0.0327    -1.712    -0.611    -0.571 -0.0234  0.2219  0.9748
              Bcc     0.0726     3.801     1.356     1.268  0.6525  0.7421 -0.1533
 

 ---------------------------------------------------------------------------------

 NROrb=    114 NOA=    21 NOB=    20 NVA=    93 NVB=    94

 **** Warning!!: The largest alpha MO coefficient is  0.12131836D+02


 **** Warning!!: The largest beta MO coefficient is  0.12141709D+02

    12 initial guesses have been made.
 Iteration     1 Dimension    12 NMult     0 NNew     12
 New state      1 was old state      3
 Iteration     2 Dimension    24 NMult    12 NNew     12
 Iteration     3 Dimension    27 NMult    24 NNew      3
 Iteration     4 Dimension    30 NMult    27 NNew      3
 Iteration     5 Dimension    33 NMult    30 NNew      3
 Iteration     6 Dimension    36 NMult    33 NNew      3
 Iteration     7 Dimension    39 NMult    36 NNew      3
 Iteration     8 Dimension    42 NMult    39 NNew      3
 ***********************************************************************
 Stability analysis using <AA,BB:AA,BB> singles matrix:
 ***********************************************************************
 Ground to excited state transition densities written to RWF  633

 Eigenvectors of the stability matrix:
 
 Excited state symmetry could not be determined.
 Eigenvector   1:  2.026-?Sym  Eigenvalue= 0.0238864  <S**2>=0.776
     13B -> 24B        0.18166
     16B -> 24B        0.15248
     18B -> 22B       -0.11923
     18B -> 24B        0.71852
     18B -> 25B       -0.10048
     18B -> 26B        0.14166
     18B -> 30B        0.14347
     18B -> 35B       -0.11787
     18B -> 37B       -0.16632
     18B -> 38B       -0.22882
     19B -> 24B       -0.34265
     19B -> 38B        0.10340
 The wavefunction is stable under the perturbations considered.
 The wavefunction is already stable.

 **********************************************************************

            Population analysis using the SCF Density.

 **********************************************************************

 Alpha  occ. eigenvalues -- -104.84634 -20.70960 -20.69792 -11.38423 -10.57284
 Alpha  occ. eigenvalues --   -8.04067  -8.03713  -8.03704  -1.60325  -1.25837
 Alpha  occ. eigenvalues --   -1.13082  -0.92499  -0.78153  -0.74283  -0.72716
 Alpha  occ. eigenvalues --   -0.62315  -0.60994  -0.53114  -0.50385  -0.46744
 Alpha  occ. eigenvalues --   -0.45955
 Alpha virt. eigenvalues --    0.03411   0.05018   0.07393   0.09345   0.12942
 Alpha virt. eigenvalues --    0.13969   0.15176   0.15951   0.16044   0.17665
 Alpha virt. eigenvalues --    0.20563   0.21607   0.24215   0.25542   0.27230
 Alpha virt. eigenvalues --    0.27235   0.28467   0.30235   0.31843   0.34685
 Alpha virt. eigenvalues --    0.35828   0.41178   0.43082   0.43215   0.45571
 Alpha virt. eigenvalues --    0.48510   0.49427   0.50229   0.51984   0.54928
 Alpha virt. eigenvalues --    0.57684   0.60324   0.63341   0.65175   0.68768
 Alpha virt. eigenvalues --    0.71268   0.73697   0.76286   0.79220   0.90207
 Alpha virt. eigenvalues --    0.94069   0.96091   1.01121   1.02139   1.03446
 Alpha virt. eigenvalues --    1.06751   1.11710   1.12199   1.16365   1.18357
 Alpha virt. eigenvalues --    1.21764   1.25454   1.28857   1.32576   1.34272
 Alpha virt. eigenvalues --    1.40317   1.41625   1.41995   1.44739   1.48214
 Alpha virt. eigenvalues --    1.52493   1.53828   1.64066   1.65429   1.67788
 Alpha virt. eigenvalues --    1.73192   1.75178   1.79004   1.92113   1.95553
 Alpha virt. eigenvalues --    1.97264   2.05769   2.12301   2.22358   2.23355
 Alpha virt. eigenvalues --    2.37090   2.42890   2.51110   2.65375   2.78955
 Alpha virt. eigenvalues --    2.87196   2.99929   3.30203   3.34426   3.46004
 Alpha virt. eigenvalues --    3.55672   3.56996   3.66455   3.70350   3.77725
 Alpha virt. eigenvalues --    3.91542   3.98877   4.38105
  Beta  occ. eigenvalues -- -104.84623 -20.69054 -20.66813 -11.38487 -10.57274
  Beta  occ. eigenvalues --   -8.04021  -8.03712  -8.03694  -1.54406  -1.18692
  Beta  occ. eigenvalues --   -1.10481  -0.91184  -0.73174  -0.71216  -0.64932
  Beta  occ. eigenvalues --   -0.60988  -0.52237  -0.49946  -0.46397  -0.45911
  Beta virt. eigenvalues --    0.03392   0.04953   0.07441   0.08218   0.09425
  Beta virt. eigenvalues --    0.13247   0.14280   0.15304   0.16039   0.16393
  Beta virt. eigenvalues --    0.17746   0.20709   0.22154   0.25777   0.26922
  Beta virt. eigenvalues --    0.27498   0.28685   0.28977   0.30650   0.32030
  Beta virt. eigenvalues --    0.34748   0.37633   0.41670   0.43137   0.43353
  Beta virt. eigenvalues --    0.46050   0.48666   0.49575   0.50408   0.52166
  Beta virt. eigenvalues --    0.54964   0.57863   0.60659   0.63410   0.65331
  Beta virt. eigenvalues --    0.68991   0.71421   0.73926   0.76540   0.79368
  Beta virt. eigenvalues --    0.90375   0.94553   0.96532   1.01679   1.03381
  Beta virt. eigenvalues --    1.05079   1.07995   1.12047   1.14135   1.17461
  Beta virt. eigenvalues --    1.19737   1.22960   1.26953   1.33357   1.34970
  Beta virt. eigenvalues --    1.35279   1.40371   1.42264   1.43969   1.46883
  Beta virt. eigenvalues --    1.48958   1.52833   1.54081   1.64872   1.66999
  Beta virt. eigenvalues --    1.70366   1.73784   1.76375   1.79344   1.92564
  Beta virt. eigenvalues --    1.95840   1.97723   2.05941   2.12463   2.22446
  Beta virt. eigenvalues --    2.23431   2.37445   2.43199   2.51180   2.66092
  Beta virt. eigenvalues --    2.79488   2.87571   3.00735   3.32577   3.39858
  Beta virt. eigenvalues --    3.49970   3.62575   3.64732   3.68516   3.72104
  Beta virt. eigenvalues --    3.79941   3.96448   3.99554   4.40178
          Condensed to atoms (all electrons):
          Atomic-Atomic Spin Densities.
 Mulliken charges and spin densities:
               1          2
     1  C    0.621035  -0.023929
     2  O   -0.425273   0.059657
     3  O   -0.137171   0.957424
     4  H    0.063090  -0.003301
     5  H   -0.008507   0.001281
     6  Cl  -0.113175   0.008867
 Sum of Mulliken charges =  -0.00000   1.00000
 Mulliken charges and spin densities with hydrogens summed into heavy atoms:
               1          2
     1  C    0.675618  -0.025948
     2  O   -0.425273   0.059657
     3  O   -0.137171   0.957424
     6  Cl  -0.113175   0.008867
 Electronic spatial extent (au):  <R**2>=            379.3922
 Charge=             -0.0000 electrons
 Dipole moment (field-independent basis, Debye):
    X=             -0.2132    Y=              1.9527    Z=              1.0839  Tot=              2.2435
                          Isotropic Fermi Contact Couplings
        Atom                 a.u.       MegaHertz       Gauss      10(-4) cm-1
     1  C(13)             -0.01056     -11.87441      -4.23709      -3.96088
     2  O(17)              0.07960     -48.25285     -17.21782     -16.09542
     3  O(17)              0.29317    -177.71578     -63.41341     -59.27960
     4  H(1)               0.00027       1.22034       0.43545       0.40706
     5  H(1)              -0.00063      -2.79722      -0.99812      -0.93305
     6  Cl(35)            -0.00165      -0.72384      -0.25828      -0.24145
 --------------------------------------------------------
       Center         ----  Spin Dipole Couplings  ----
                      3XX-RR        3YY-RR        3ZZ-RR
 --------------------------------------------------------
     1   Atom        0.006897     -0.001447     -0.005450
     2   Atom        0.026385      0.156010     -0.182395
     3   Atom       -0.111990      0.841865     -0.729876
     4   Atom        0.003812     -0.000887     -0.002926
     5   Atom        0.002627      0.003444     -0.006071
     6   Atom        0.008009      0.022417     -0.030426
 --------------------------------------------------------
                        XY            XZ            YZ
 --------------------------------------------------------
     1   Atom       -0.013494     -0.001770     -0.002255
     2   Atom        0.516891      0.247100      0.506815
     3   Atom        2.144939      1.373109      1.669542
     4   Atom       -0.010425     -0.010724      0.007941
     5   Atom       -0.008796      0.000152      0.001175
     6   Atom        0.054464     -0.011423     -0.011244
 --------------------------------------------------------


 ---------------------------------------------------------------------------------
              Anisotropic Spin Dipole Couplings in Principal Axis System
 ---------------------------------------------------------------------------------

       Atom             a.u.   MegaHertz   Gauss  10(-4) cm-1        Axes

              Baa    -0.0126    -1.685    -0.601    -0.562  0.5514  0.7457  0.3740
     1 C(13)  Bbb    -0.0043    -0.576    -0.206    -0.192 -0.2190 -0.3033  0.9274
              Bcc     0.0168     2.261     0.807     0.754  0.8050 -0.5932 -0.0039
 
              Baa    -0.5800    41.970    14.976    14.000 -0.3011  0.6751 -0.6734
     2 O(17)  Bbb    -0.3116    22.547     8.045     7.521  0.7799 -0.2321 -0.5813
              Bcc     0.8916   -64.517   -23.021   -21.520  0.5487  0.7002  0.4567
 
              Baa    -1.8451   133.513    47.641    44.535  0.8178 -0.3895 -0.4238
     3 O(17)  Bbb    -1.7880   129.378    46.165    43.156  0.1227 -0.6013  0.7895
              Bcc     3.6331  -262.891   -93.806   -87.691  0.5623  0.6976  0.4439
 
              Baa    -0.0108    -5.774    -2.060    -1.926  0.5407 -0.1003  0.8352
     4 H(1)   Bbb    -0.0091    -4.861    -1.735    -1.621  0.4955  0.8403 -0.2198
              Bcc     0.0199    10.635     3.795     3.547  0.6798 -0.5327 -0.5040
 
              Baa    -0.0069    -3.666    -1.308    -1.223 -0.4428 -0.4649  0.7667
     5 H(1)   Bbb    -0.0050    -2.668    -0.952    -0.890  0.5746  0.5093  0.6407
              Bcc     0.0119     6.335     2.260     2.113 -0.6883  0.7242  0.0416
 
              Baa    -0.0399    -2.089    -0.746    -0.697  0.7574 -0.6325  0.1622
     6 Cl(35) Bbb    -0.0327    -1.712    -0.611    -0.571 -0.0234  0.2219  0.9748
              Bcc     0.0726     3.801     1.356     1.268  0.6525  0.7421 -0.1533
 

 ---------------------------------------------------------------------------------

 Unable to Open any file for archive entry.
 1\1\GINC-SE403\Stability\UHF\Aug-CC-pVDZ\C1H2Cl1O2\OHZDE\08-Apr-2025\0
 \\#t hf aug-cc-pvdz symm=none int=(grid=ultrafine) guess=(read,tcheck)
  stable=opt\\title\\0,2\C,0,0.02,0.774972,0.260646\O,0,1.165209,0.3120
 18,-0.457817\O,0,1.803397,-0.640222,0.201495\H,0,0.235209,0.76158,1.32
 5075\H,0,-0.194675,1.764314,-0.133227\Cl,0,-1.406434,-0.267653,-0.0414
 79\\Version=ES64L-G16RevC.01\HF=-648.1555139\S2=0.762594\S2-1=0.\S2A=0
 .750119\RMSD=5.954e-09\Dipole=-0.0838973,0.7682436,0.4264321\Quadrupol
 e=-2.4361765,2.0343161,0.4018604,0.3652682,0.8750217,0.6743199\PG=Unkn
 own\\@
 The archive entry for this job was punched.


 THOUGH I SPEAK WITH THE TONGUES OF MEN AND OF ANGELS, 
 AND HAVE NOT LOVE,
 I AM BECOME AS SOUNDING BRASS, A TINKLING CYMBAL.
 AND THOUGH I HAVE THE GIFT OF PROPHECY,
 AND UNDERSTAND ALL MYSTERIES, AND ALL KNOWLEDGE.
 AND THOUGH I HAVE ALL FAITH, SO THAT I COULD REMOVE MOUNTAINS,
 AND HAVE NOT LOVE, I AM NOTHING.
 AND THOUGH I BESTOW ALL MY GOODS TO FEED THE POOR,
 AND THOUGH I GIVE MY BODY TO BE BURNED,
 AND HAVE NOT LOVE IT PROFITETH ME NOTHING.
 LOVE SUFFERETH LONG, AND IS KIND,
 LOVE ENVIETH NOT,
 LOVE VAUNTETH NOT ITSELF, IS NOT PUFFED UP,
 DOTH NOT BEHAVE ITSELF UNSEEMLY, SEEKETH NOT HER OWN,
 IS NOT EASILY PROVOKED, THINKETH NO EVIL,
 REJOICETH NOT IN INIQUITY, BUT REJOICETH IN THE TRUTH,
 BEARETH ALL THINGS, BELIEVETH ALL THINGS,
 HOPETH ALL THINGS, ENDURETH ALL THINGS.
 LOVE NEVER FAILETH, BUT WHETHER THERE BE PROPHECIES, THEY SHALL FAIL, 
 WHETHER THERE BE TONGUES, THEY SHALL CEASE,
 WHETHER THERE BE KNOWLEDGE, IT SHALL VANISH AWAY.
 FOR WE KNOW IN PART, AND WE PROPHESY IN PART.
 BUT WHEN THAT WHICH IS PERFECT IS COME, THEN THAT WHICH IS IN PART 
 SHALL BE DONE AWAY. 
 WHEN I WAS A CHILD, I SPAKE AS A CHILD, I UNDERSTOOD AS A CHILD, 
 I THOUGHT AS A CHILD.
 BUT WHEN I BECAME A MAN, I PUT AWAY CHILDISH THINGS.
 FOR NOW WE SEE THROUGH A GLASS, DARKLY, BUT THEN FACE TO FACE.
 NOW I KNOW IN PART. BUT THEN SHALL I KNOW EVEN AS ALSO I AM KNOWN.
 AND NOW ABIDETH FAITH, HOPE AND LOVE, THESE THREE.
 BUT THE GREATEST OF THESE IS LOVE.

                     I CORINTHIANS 13
 Job cpu time:       0 days  0 hours  1 minutes  6.3 seconds.
 Elapsed time:       0 days  0 hours  0 minutes  6.7 seconds.
 File lengths (MBytes):  RWF=    107 Int=      0 D2E=      0 Chk=      3 Scr=      1
 Normal termination of Gaussian 16 at Tue Apr  8 23:10:47 2025.
 Initial command:
 /arc/software/Gaussian/g16.c01/l1.exe "/tmp/slurm/4843562/Gau-2400705.inp" -scrdir="/tmp/slurm/4843562/"
 Entering Link 1 = /arc/software/Gaussian/g16.c01/l1.exe PID=   2400917.
  
 Copyright (c) 1988-2019, Gaussian, Inc.  All Rights Reserved.
  
 This is part of the Gaussian(R) 16 program.  It is based on
 the Gaussian(R) 09 system (copyright 2009, Gaussian, Inc.),
 the Gaussian(R) 03 system (copyright 2003, Gaussian, Inc.),
 the Gaussian(R) 98 system (copyright 1998, Gaussian, Inc.),
 the Gaussian(R) 94 system (copyright 1995, Gaussian, Inc.),
 the Gaussian 92(TM) system (copyright 1992, Gaussian, Inc.),
 the Gaussian 90(TM) system (copyright 1990, Gaussian, Inc.),
 the Gaussian 88(TM) system (copyright 1988, Gaussian, Inc.),
 the Gaussian 86(TM) system (copyright 1986, Carnegie Mellon
 University), and the Gaussian 82(TM) system (copyright 1983,
 Carnegie Mellon University). Gaussian is a federally registered
 trademark of Gaussian, Inc.
  
 This software contains proprietary and confidential information,
 including trade secrets, belonging to Gaussian, Inc.
  
 This software is provided under written license and may be
 used, copied, transmitted, or stored only in accord with that
 written license.
  
 The following legend is applicable only to US Government
 contracts under FAR:
  
                    RESTRICTED RIGHTS LEGEND
  
 Use, reproduction and disclosure by the US Government is
 subject to restrictions as set forth in subparagraphs (a)
 and (c) of the Commercial Computer Software - Restricted
 Rights clause in FAR 52.227-19.
  
 Gaussian, Inc.
 340 Quinnipiac St., Bldg. 40, Wallingford CT 06492
  
  
 ---------------------------------------------------------------
 Warning -- This program may not be used in any manner that
 competes with the business of Gaussian, Inc. or will provide
 assistance to any competitor of Gaussian, Inc.  The licensee
 of this program is prohibited from giving any competitor of
 Gaussian, Inc. access to this program.  By using this program,
 the user acknowledges that Gaussian, Inc. is engaged in the
 business of creating and licensing software in the field of
 computational chemistry and represents and warrants to the
 licensee that it is not a competitor of Gaussian, Inc. and that
 it will not use this program in any manner prohibited above.
 ---------------------------------------------------------------
  

 Cite this work as:
 Gaussian 16, Revision C.01,
 M. J. Frisch, G. W. Trucks, H. B. Schlegel, G. E. Scuseria, 
 M. A. Robb, J. R. Cheeseman, G. Scalmani, V. Barone, 
 G. A. Petersson, H. Nakatsuji, X. Li, M. Caricato, A. V. Marenich, 
 J. Bloino, B. G. Janesko, R. Gomperts, B. Mennucci, H. P. Hratchian, 
 J. V. Ortiz, A. F. Izmaylov, J. L. Sonnenberg, D. Williams-Young, 
 F. Ding, F. Lipparini, F. Egidi, J. Goings, B. Peng, A. Petrone, 
 T. Henderson, D. Ranasinghe, V. G. Zakrzewski, J. Gao, N. Rega, 
 G. Zheng, W. Liang, M. Hada, M. Ehara, K. Toyota, R. Fukuda, 
 J. Hasegawa, M. Ishida, T. Nakajima, Y. Honda, O. Kitao, H. Nakai, 
 T. Vreven, K. Throssell, J. A. Montgomery, Jr., J. E. Peralta, 
 F. Ogliaro, M. J. Bearpark, J. J. Heyd, E. N. Brothers, K. N. Kudin, 
 V. N. Staroverov, T. A. Keith, R. Kobayashi, J. Normand, 
 K. Raghavachari, A. P. Rendell, J. C. Burant, S. S. Iyengar, 
 J. Tomasi, M. Cossi, J. M. Millam, M. Klene, C. Adamo, R. Cammi, 
 J. W. Ochterski, R. L. Martin, K. Morokuma, O. Farkas, 
 J. B. Foresman, and D. J. Fox, Gaussian, Inc., Wallingford CT, 2019.
 
 ******************************************
 Gaussian 16:  ES64L-G16RevC.01  3-Jul-2019
                 8-Apr-2025 
 ******************************************
 %nprocs=16
 Will use up to   16 processors via shared memory.
 %mem=30GB
 %chk=BDE49_expt_621_mol2.chk
 ----------------------------------------------------------------------
 #t hf aug-cc-pvdz iop(5/13=1,5/36=2,99/5=2) pseudo=read geom=check gue
 ss=(read,tcheck) scf=(maxcycle=1)
 ----------------------------------------------------------------------
 -----
 title
 -----
 Structure from the checkpoint file:  "BDE49_expt_621_mol2.chk"
 Charge =  0 Multiplicity = 2
 Z-Matrix found in chk file.
 C,0,0.02,0.774972,0.260646
 O,0,1.165209,0.312018,-0.457817
 O,0,1.803397,-0.640222,0.201495
 H,0,0.235209,0.76158,1.325075
 H,0,-0.194675,1.764314,-0.133227
 Cl,0,-1.406434,-0.267653,-0.041479
 Recover connectivity data from disk.
                    Distance matrix (angstroms):
                    1          2          3          4          5
     1  C    0.000000
     2  O    1.428992   0.000000
     3  O    2.277450   1.322398   0.000000
     4  H    1.086049   2.060512   2.384679   0.000000
     5  H    1.086287   2.015889   3.144221   1.821241   0.000000
     6  Cl   1.792501   2.668839   3.240503   2.371030   2.367629
                    6
     6  Cl   0.000000
 Framework group  C1[X(CH2ClO2)]
 Deg. of freedom    12
                         Standard orientation:                         
 ---------------------------------------------------------------------
 Center     Atomic      Atomic             Coordinates (Angstroms)
 Number     Number       Type             X           Y           Z
 ---------------------------------------------------------------------
      1          6           0        0.020000    0.774972    0.260646
      2          8           0        1.165209    0.312018   -0.457817
      3          8           0        1.803397   -0.640222    0.201495
      4          1           0        0.235209    0.761580    1.325075
      5          1           0       -0.194675    1.764314   -0.133227
      6         17           0       -1.406434   -0.267653   -0.041479
 ---------------------------------------------------------------------
 Rotational constants (GHZ):          17.9873127           3.3785271           3.0726577
 ======================================================================================================
                                       Pseudopotential Parameters
 ======================================================================================================
  Center     Atomic      Valence      Angular      Power
  Number     Number     Electrons     Momentum     of R      Exponent        Coefficient   SO-Coeffient
 ======================================================================================================
    1          6            6
                                      G and up 
                                                     0        0.0000010       -0.00286759    0.00000000
                                                     2        0.1200000        0.03193960    0.00000000
                                                     2        0.1600000       -0.04027782    0.00000000
                                                     2        0.2600000        0.24782456    0.00000000
                                                     2        0.4000000       -0.62266671    0.00000000
                                                     2        0.7000000        0.35695227    0.00000000
                                      S - G
                                                     0        0.0000010       -0.06602313    0.00000000
                                                     2        0.1200000        1.47277455    0.00000000
                                                     2        0.1600000       -4.06924166    0.00000000
                                                     2        0.3000000        5.02952802    0.00000000
                                                     2        0.7000000       -5.65856978    0.00000000
                                                     2        1.7000000        8.57604414    0.00000000
                                      P - G
                                                     0        0.0000010        0.49434425    0.00000000
                                                     2        0.1200000       -1.37391547    0.00000000
                                                     2        0.1600000        3.65411806    0.00000000
                                                     2        0.2800000       -7.36479843    0.00000000
                                                     2        0.6000000       17.22091285    0.00000000
                                                     2        1.1000000      -23.50107827    0.00000000
                                                     2        3.0000000       16.29464063    0.00000000
                                      D - G
                                                     0        0.0000010       -0.28693103    0.00000000
                                                     2        0.1200000        0.12273044    0.00000000
                                                     2        0.3000000       -0.43416384    0.00000000
                                                     2        0.7000000        2.23358493    0.00000000
                                      F - G
                                                     0        0.0000010        0.07263570    0.00000000
                                                     2        0.1400000       -0.76152861    0.00000000
                                                     2        0.2200000        1.98045593    0.00000000
                                                     2        0.4000000       -2.42426427    0.00000000
                                                     2        0.7000000        0.52335237    0.00000000
    2          8            8
                                      G and up 
                                                     0        0.0000010       -0.00165251    0.00000000
                                                     2        0.1200000       -0.10937202    0.00000000
                                                     2        0.1400000        0.35668905    0.00000000
                                                     2        0.1800000       -0.51696033    0.00000000
                                                     2        0.2400000        0.52446472    0.00000000
                                                     2        0.4000000       -0.07754493    0.00000000
                                                     2        0.8000000       -1.90560988    0.00000000
                                                     2        1.7000000        0.19857963    0.00000000
                                      S - G
                                                     0        0.0000010       -0.03845181    0.00000000
                                                     2        0.1400000        0.42024558    0.00000000
                                                     2        0.4000000       -4.10467779    0.00000000
                                                     2        1.3000000        9.99571838    0.00000000
                                      P - G
                                                     0        0.0000010        0.33206183    0.00000000
                                                     2        0.1200000       -0.18708141    0.00000000
                                                     2        0.2800000       -0.18179081    0.00000000
                                                     2        0.7000000        1.18820394    0.00000000
                                      D - G
                                                     0        0.0000010       -0.57891674    0.00000000
                                                     2        0.1200000        0.60487490    0.00000000
                                                     2        0.2400000       -0.24931464    0.00000000
                                                     2        0.3000000       -2.75054612    0.00000000
                                                     2        1.0000000       15.96776040    0.00000000
                                      F - G
                                                     0        0.0000010        0.37449041    0.00000000
                                                     2        0.1200000       -0.63373642    0.00000000
                                                     2        0.1400000       -0.08412804    0.00000000
                                                     2        0.2800000        2.62321406    0.00000000
                                                     2        0.6000000       -2.68223623    0.00000000
    3          8            8
                                      G and up 
                                                     0        0.0000010       -0.00165251    0.00000000
                                                     2        0.1200000       -0.10937202    0.00000000
                                                     2        0.1400000        0.35668905    0.00000000
                                                     2        0.1800000       -0.51696033    0.00000000
                                                     2        0.2400000        0.52446472    0.00000000
                                                     2        0.4000000       -0.07754493    0.00000000
                                                     2        0.8000000       -1.90560988    0.00000000
                                                     2        1.7000000        0.19857963    0.00000000
                                      S - G
                                                     0        0.0000010       -0.03845181    0.00000000
                                                     2        0.1400000        0.42024558    0.00000000
                                                     2        0.4000000       -4.10467779    0.00000000
                                                     2        1.3000000        9.99571838    0.00000000
                                      P - G
                                                     0        0.0000010        0.33206183    0.00000000
                                                     2        0.1200000       -0.18708141    0.00000000
                                                     2        0.2800000       -0.18179081    0.00000000
                                                     2        0.7000000        1.18820394    0.00000000
                                      D - G
                                                     0        0.0000010       -0.57891674    0.00000000
                                                     2        0.1200000        0.60487490    0.00000000
                                                     2        0.2400000       -0.24931464    0.00000000
                                                     2        0.3000000       -2.75054612    0.00000000
                                                     2        1.0000000       15.96776040    0.00000000
                                      F - G
                                                     0        0.0000010        0.37449041    0.00000000
                                                     2        0.1200000       -0.63373642    0.00000000
                                                     2        0.1400000       -0.08412804    0.00000000
                                                     2        0.2800000        2.62321406    0.00000000
                                                     2        0.6000000       -2.68223623    0.00000000
    4          1            1
                                      F and up 
                                                     0        0.0000010        0.00072061    0.00000000
                                                     2        0.1200000        0.03832357    0.00000000
                                                     2        0.1400000       -0.08683256    0.00000000
                                                     2        0.1800000        0.09312970    0.00000000
                                                     2        0.2800000       -0.02532572    0.00000000
                                                     2        0.4000000       -0.09430787    0.00000000
                                                     2        0.7000000        0.42710831    0.00000000
                                                     2        1.2000000       -2.11746981    0.00000000
                                      S - F
                                                     0        0.0000010        0.14449603    0.00000000
                                                     2        0.1200000       -0.56378993    0.00000000
                                                     2        0.1400000        0.63941249    0.00000000
                                                     2        0.2600000       -0.58461015    0.00000000
                                                     2        0.5000000        1.00157293    0.00000000
                                                     2        1.8000000       -0.14135838    0.00000000
                                      P - F
                                                     0        0.0000010       -0.09353646    0.00000000
                                                     2        0.1200000        0.31768975    0.00000000
                                                     2        0.2000000       -0.71747951    0.00000000
                                                     2        0.4000000        0.65752308    0.00000000
                                                     2        1.7000000        2.94052587    0.00000000
                                      D - F
                                                     0        0.0000010       -0.04491202    0.00000000
                                                     2        0.1200000       -0.02862031    0.00000000
                                                     2        0.1800000       -0.21515263    0.00000000
                                                     2        0.3000000        0.80560647    0.00000000
                                                     2        0.4000000        0.47351754    0.00000000
                                                     2        0.7000000       -4.57051794    0.00000000
                                                     2        1.6000000       18.53737826    0.00000000
    5          1            1
                                      F and up 
                                                     0        0.0000010        0.00072061    0.00000000
                                                     2        0.1200000        0.03832357    0.00000000
                                                     2        0.1400000       -0.08683256    0.00000000
                                                     2        0.1800000        0.09312970    0.00000000
                                                     2        0.2800000       -0.02532572    0.00000000
                                                     2        0.4000000       -0.09430787    0.00000000
                                                     2        0.7000000        0.42710831    0.00000000
                                                     2        1.2000000       -2.11746981    0.00000000
                                      S - F
                                                     0        0.0000010        0.14449603    0.00000000
                                                     2        0.1200000       -0.56378993    0.00000000
                                                     2        0.1400000        0.63941249    0.00000000
                                                     2        0.2600000       -0.58461015    0.00000000
                                                     2        0.5000000        1.00157293    0.00000000
                                                     2        1.8000000       -0.14135838    0.00000000
                                      P - F
                                                     0        0.0000010       -0.09353646    0.00000000
                                                     2        0.1200000        0.31768975    0.00000000
                                                     2        0.2000000       -0.71747951    0.00000000
                                                     2        0.4000000        0.65752308    0.00000000
                                                     2        1.7000000        2.94052587    0.00000000
                                      D - F
                                                     0        0.0000010       -0.04491202    0.00000000
                                                     2        0.1200000       -0.02862031    0.00000000
                                                     2        0.1800000       -0.21515263    0.00000000
                                                     2        0.3000000        0.80560647    0.00000000
                                                     2        0.4000000        0.47351754    0.00000000
                                                     2        0.7000000       -4.57051794    0.00000000
                                                     2        1.6000000       18.53737826    0.00000000
    6         17           17
                                      G and up 
                                                     0        0.0000010        0.00409650    0.00000000
                                                     2        0.1200000        0.06945192    0.00000000
                                                     2        0.1400000       -0.06660574    0.00000000
                                                     2        0.2200000        0.15305308    0.00000000
                                      S - G
                                                     0        0.0000010        0.00555482    0.00000000
                                                     2        0.2000000       -0.53060378    0.00000000
                                      P - G
                                                     0        0.0000010       -0.16962542    0.00000000
                                                     2        0.1200000        0.15585357    0.00000000
                                                     2        0.1800000       -0.79460714    0.00000000
                                                     2        0.5000000        1.36495881    0.00000000
                                      D - G
                                                     0        0.0000010        0.91266089    0.00000000
                                                     2        0.2400000       -1.50552862    0.00000000
                                      F - G
                                                     0        0.0000010       -0.76620800    0.00000000
                                                     2        0.1200000       -0.23737626    0.00000000
                                                     2        0.1800000        0.28531204    0.00000000
 ======================================================================================================
   114 basis functions,   232 primitive gaussians,   122 cartesian basis functions
    21 alpha electrons       20 beta electrons
       nuclear repulsion energy       154.8327441058 Hartrees.
 NAtoms=    6 NActive=    6 NUniq=    6 SFac= 1.00D+00 NAtFMM=   60 NAOKFM=F Big=F
   1 Symmetry operations used in ECPInt.
 ECPInt:  NShTT=    1176 NPrTT=    8264 LenC2=    1174 LenP2D=    6351.
 LDataN:  DoStor=T MaxTD1= 6 Len=  172
 Initial guess from the checkpoint file:  "BDE49_expt_621_mol2.chk"
 B after Tr=    -0.000000    0.000000   -0.000000
         Rot=    1.000000    0.000000    0.000000    0.000000 Ang=   0.00 deg.
 Initial guess <Sx>= 0.0000 <Sy>= 0.0000 <Sz>= 0.5000 <S**2>= 0.7626 S= 0.5063
 >>>>>>>>>> Convergence criterion not met.
 SCF Done:  E(UHF) =  -649.145763736     A.U. after    2 cycles
            NFock=  1  Conv=0.65D-01     -V/T= 2.0095
 <Sx>= 0.0000 <Sy>= 0.0000 <Sz>= 0.5000 <S**2>= 0.7629 S= 0.5064
 <L.S>=  0.00000000000    
 Annihilation of the first spin contaminant:
 S**2 before annihilation     0.7629,   after     0.7501

 **********************************************************************

            Population analysis using the SCF Density.

 **********************************************************************

 Orbital symmetries:
 Alpha Orbitals:
       Occupied  (A) (A) (A) (A) (A) (A) (A) (A) (A) (A) (A) (A)
                 (A) (A) (A) (A) (A) (A) (A) (A) (A)
       Virtual   (A) (A) (A) (A) (A) (A) (A) (A) (A) (A) (A) (A)
                 (A) (A) (A) (A) (A) (A) (A) (A) (A) (A) (A) (A)
                 (A) (A) (A) (A) (A) (A) (A) (A) (A) (A) (A) (A)
                 (A) (A) (A) (A) (A) (A) (A) (A) (A) (A) (A) (A)
                 (A) (A) (A) (A) (A) (A) (A) (A) (A) (A) (A) (A)
                 (A) (A) (A) (A) (A) (A) (A) (A) (A) (A) (A) (A)
                 (A) (A) (A) (A) (A) (A) (A) (A) (A) (A) (A) (A)
                 (A) (A) (A) (A) (A) (A) (A) (A) (A)
 Beta  Orbitals:
       Occupied  (A) (A) (A) (A) (A) (A) (A) (A) (A) (A) (A) (A)
                 (A) (A) (A) (A) (A) (A) (A) (A)
       Virtual   (A) (A) (A) (A) (A) (A) (A) (A) (A) (A) (A) (A)
                 (A) (A) (A) (A) (A) (A) (A) (A) (A) (A) (A) (A)
                 (A) (A) (A) (A) (A) (A) (A) (A) (A) (A) (A) (A)
                 (A) (A) (A) (A) (A) (A) (A) (A) (A) (A) (A) (A)
                 (A) (A) (A) (A) (A) (A) (A) (A) (A) (A) (A) (A)
                 (A) (A) (A) (A) (A) (A) (A) (A) (A) (A) (A) (A)
                 (A) (A) (A) (A) (A) (A) (A) (A) (A) (A) (A) (A)
                 (A) (A) (A) (A) (A) (A) (A) (A) (A) (A)
 The electronic state is 2-A.
 Alpha  occ. eigenvalues --  -99.90087 -21.17406 -21.15894 -11.49261 -10.47424
 Alpha  occ. eigenvalues --   -9.67235  -9.66483  -9.66469  -2.07414  -1.43154
 Alpha  occ. eigenvalues --   -1.30964  -0.97771  -0.72608  -0.68872  -0.63350
 Alpha  occ. eigenvalues --   -0.57550  -0.52633  -0.51047  -0.47772  -0.36246
 Alpha  occ. eigenvalues --   -0.33017
 Alpha virt. eigenvalues --    0.03248   0.05577   0.06701   0.10428   0.11051
 Alpha virt. eigenvalues --    0.13399   0.14202   0.14994   0.15453   0.18026
 Alpha virt. eigenvalues --    0.19507   0.20762   0.23167   0.23792   0.25129
 Alpha virt. eigenvalues --    0.26154   0.27180   0.29411   0.30185   0.30296
 Alpha virt. eigenvalues --    0.34621   0.36705   0.38174   0.39270   0.41170
 Alpha virt. eigenvalues --    0.43440   0.45580   0.47160   0.49453   0.50125
 Alpha virt. eigenvalues --    0.55405   0.57314   0.60637   0.63243   0.63663
 Alpha virt. eigenvalues --    0.66191   0.70942   0.73983   0.78373   0.83005
 Alpha virt. eigenvalues --    0.91194   0.91864   0.94888   0.97597   0.99494
 Alpha virt. eigenvalues --    1.01110   1.06018   1.15590   1.16426   1.23208
 Alpha virt. eigenvalues --    1.25677   1.26438   1.28572   1.30180   1.32273
 Alpha virt. eigenvalues --    1.33919   1.35012   1.46808   1.54636   1.59628
 Alpha virt. eigenvalues --    1.70268   1.74146   1.82999   1.88977   1.93875
 Alpha virt. eigenvalues --    1.95902   2.00607   2.03392   2.11167   2.15051
 Alpha virt. eigenvalues --    2.25848   2.36110   2.41042   2.46537   2.48835
 Alpha virt. eigenvalues --    2.60309   2.70351   2.83029   3.16914   3.33871
 Alpha virt. eigenvalues --    3.34843   3.63826   3.91441   5.51385   5.52290
 Alpha virt. eigenvalues --    5.66363   5.82591   5.84450   5.98860   6.03191
 Alpha virt. eigenvalues --    6.32832   6.38001   6.83615
  Beta  occ. eigenvalues --  -99.90076 -21.15289 -21.13487 -11.49322 -10.47413
  Beta  occ. eigenvalues --   -9.67185  -9.66480  -9.66459  -2.02257  -1.37470
  Beta  occ. eigenvalues --   -1.27751  -0.96952  -0.72385  -0.66773  -0.62402
  Beta  occ. eigenvalues --   -0.52225  -0.50786  -0.46842  -0.44047  -0.33904
  Beta virt. eigenvalues --    0.03286   0.05541   0.06209   0.09769   0.10724
  Beta virt. eigenvalues --    0.12075   0.13935   0.14373   0.15094   0.16555
  Beta virt. eigenvalues --    0.18076   0.19790   0.21114   0.23827   0.24108
  Beta virt. eigenvalues --    0.26231   0.27346   0.29319   0.29775   0.30611
  Beta virt. eigenvalues --    0.34165   0.34788   0.36795   0.38688   0.40289
  Beta virt. eigenvalues --    0.41853   0.43564   0.45682   0.47452   0.49829
  Beta virt. eigenvalues --    0.50364   0.55805   0.57425   0.60892   0.63705
  Beta virt. eigenvalues --    0.65196   0.66562   0.71519   0.74235   0.78573
  Beta virt. eigenvalues --    0.83184   0.91683   0.92686   0.96370   0.98092
  Beta virt. eigenvalues --    0.99876   1.02499   1.06452   1.16126   1.17400
  Beta virt. eigenvalues --    1.23946   1.26315   1.27150   1.28847   1.30524
  Beta virt. eigenvalues --    1.32706   1.34625   1.35981   1.47501   1.59452
  Beta virt. eigenvalues --    1.63213   1.70669   1.76538   1.83500   1.91217
  Beta virt. eigenvalues --    1.96798   2.01131   2.04273   2.06705   2.11967
  Beta virt. eigenvalues --    2.17647   2.28470   2.36237   2.41325   2.46704
  Beta virt. eigenvalues --    2.49788   2.60493   2.70884   2.83008   3.19517
  Beta virt. eigenvalues --    3.34181   3.35411   3.63859   3.93689   5.54715
  Beta virt. eigenvalues --    5.57484   5.69148   5.91003   5.93627   6.01160
  Beta virt. eigenvalues --    6.06143   6.38182   6.38940   6.85743
          Condensed to atoms (all electrons):
          Atomic-Atomic Spin Densities.
 Mulliken charges and spin densities:
               1          2
     1  C   -2.076789  -0.016874
     2  O   -0.960173   0.094365
     3  O   -0.232415   0.913708
     4  H    1.739475  -0.009181
     5  H    1.471412  -0.000046
     6  Cl   0.058490   0.018028
 Sum of Mulliken charges =  -0.00000   1.00000
 Mulliken charges and spin densities with hydrogens summed into heavy atoms:
               1          2
     1  C    1.134099  -0.026100
     2  O   -0.960173   0.094365
     3  O   -0.232415   0.913708
     6  Cl   0.058490   0.018028
 Electronic spatial extent (au):  <R**2>=            388.9181
 Charge=             -0.0000 electrons
 Dipole moment (field-independent basis, Debye):
    X=              1.0903    Y=              1.3885    Z=              0.6037  Tot=              1.8657
                          Isotropic Fermi Contact Couplings
        Atom                 a.u.       MegaHertz       Gauss      10(-4) cm-1
     1  C(13)             -0.00880      -9.88876      -3.52856      -3.29854
     2  O(17)              0.05532     -33.53489     -11.96608     -11.18604
     3  O(17)              0.19652    -119.12904     -42.50820     -39.73717
     4  H(1)               0.00035       1.57359       0.56150       0.52489
     5  H(1)              -0.00043      -1.90699      -0.68046      -0.63610
     6  Cl(35)             0.01427       6.25766       2.23289       2.08733
 --------------------------------------------------------
       Center         ----  Spin Dipole Couplings  ----
                      3XX-RR        3YY-RR        3ZZ-RR
 --------------------------------------------------------
     1   Atom        0.009944     -0.004163     -0.005780
     2   Atom       -0.003070      0.125772     -0.122702
     3   Atom       -0.085299      0.526908     -0.441608
     4   Atom        0.003451     -0.001752     -0.001698
     5   Atom        0.003255      0.003644     -0.006898
     6   Atom        0.024086      0.017792     -0.041878
 --------------------------------------------------------
                        XY            XZ            YZ
 --------------------------------------------------------
     1   Atom       -0.010913     -0.002680      0.000900
     2   Atom        0.346203      0.191526      0.343827
     3   Atom        1.334384      0.827390      1.048598
     4   Atom       -0.009164     -0.009825      0.006857
     5   Atom       -0.008850     -0.000168      0.001618
     6   Atom        0.069358     -0.015675     -0.013399
 --------------------------------------------------------


 ---------------------------------------------------------------------------------
              Anisotropic Spin Dipole Couplings in Principal Axis System
 ---------------------------------------------------------------------------------

       Atom             a.u.   MegaHertz   Gauss  10(-4) cm-1        Axes

              Baa    -0.0102    -1.364    -0.487    -0.455  0.4859  0.8659  0.1193
     1 C(13)  Bbb    -0.0061    -0.815    -0.291    -0.272  0.0523 -0.1651  0.9849
              Bcc     0.0162     2.179     0.777     0.727  0.8725 -0.4723 -0.1255
 
              Baa    -0.3749    27.129     9.680     9.049  0.2477 -0.6590  0.7102
     2 O(17)  Bbb    -0.2424    17.539     6.258     5.850  0.8067 -0.2656 -0.5279
              Bcc     0.6173   -44.668   -15.939   -14.900  0.5365  0.7037  0.4658
 
              Baa    -1.1489    83.135    29.665    27.731  0.7430 -0.6603  0.1097
     3 O(17)  Bbb    -1.1032    79.829    28.485    26.628 -0.3702 -0.2689  0.8892
              Bcc     2.2522  -162.964   -58.150   -54.359  0.5576  0.7013  0.4442
 
              Baa    -0.0093    -4.965    -1.772    -1.656  0.6688  0.1505  0.7280
     4 H(1)   Bbb    -0.0084    -4.504    -1.607    -1.503  0.2896  0.8492 -0.4416
              Bcc     0.0177     9.470     3.379     3.159  0.6847 -0.5061 -0.5244
 
              Baa    -0.0075    -3.988    -1.423    -1.330 -0.2727 -0.3477  0.8971
     5 H(1)   Bbb    -0.0049    -2.621    -0.935    -0.874  0.6652  0.6055  0.4369
              Bcc     0.0124     6.609     2.358     2.204 -0.6951  0.7159  0.0662
 
              Baa    -0.0488    -2.555    -0.912    -0.852  0.6925 -0.6645  0.2809
     6 Cl(35) Bbb    -0.0447    -2.338    -0.834    -0.780 -0.0917  0.3051  0.9479
              Bcc     0.0935     4.894     1.746     1.632  0.7156  0.6822 -0.1504
 

 ---------------------------------------------------------------------------------


 Test job not archived.
 1\1\GINC-SE403\SP\UHF\Aug-CC-pVDZ\C1H2Cl1O2(2)\OHZDE\08-Apr-2025\0\\#t
  hf aug-cc-pvdz iop(5/13=1,5/36=2,99/5=2) pseudo=read geom=check guess
 =(read,tcheck) scf=(maxcycle=1)\\title\\0,2\C,0,0.02,0.774972,0.260646
 \O,0,1.165209,0.312018,-0.457817\O,0,1.803397,-0.640222,0.201495\H,0,0
 .235209,0.76158,1.325075\H,0,-0.194675,1.764314,-0.133227\Cl,0,-1.4064
 34,-0.267653,-0.041479\\Version=ES64L-G16RevC.01\State=2-A\HF=-649.145
 7637\S2=0.762936\S2-1=0.\S2A=0.750113\RMSD=6.503e-02\Dipole=0.4289608,
 0.54626,0.2375001\Quadrupole=-1.3012997,1.5114011,-0.2101014,0.4406961
 ,0.806792,0.485885\PG=C01 [X(C1H2Cl1O2)]\\@


 THE LENGTH OF A MEETING IS PROPORTIONAL TO THE
 SQUARE OF THE PARTICIPANTS.
 Job cpu time:       0 days  0 hours  0 minutes 20.5 seconds.
 Elapsed time:       0 days  0 hours  0 minutes  2.1 seconds.
 File lengths (MBytes):  RWF=      6 Int=      0 D2E=      0 Chk=      3 Scr=      1
 Normal termination of Gaussian 16 at Tue Apr  8 23:10:49 2025.
