 Entering Gaussian System, Link 0=g16
 Input=BDE49_expt_1596_mol2.gjf
 Output=BDE49_expt_1596_mol2.log
 Initial command:
 /arc/software/Gaussian/g16.c01/l1.exe "/tmp/slurm/4842060/Gau-354466.inp" -scrdir="/tmp/slurm/4842060/"
 Entering Link 1 = /arc/software/Gaussian/g16.c01/l1.exe PID=    354467.
  
 Copyright (c) 1988-2019, Gaussian, Inc.  All Rights Reserved.
  
 This is part of the Gaussian(R) 16 program.  It is based on
 the Gaussian(R) 09 system (copyright 2009, Gaussian, Inc.),
 the Gaussian(R) 03 system (copyright 2003, Gaussian, Inc.),
 the Gaussian(R) 98 system (copyright 1998, Gaussian, Inc.),
 the Gaussian(R) 94 system (copyright 1995, Gaussian, Inc.),
 the Gaussian 92(TM) system (copyright 1992, Gaussian, Inc.),
 the Gaussian 90(TM) system (copyright 1990, Gaussian, Inc.),
 the Gaussian 88(TM) system (copyright 1988, Gaussian, Inc.),
 the Gaussian 86(TM) system (copyright 1986, Carnegie Mellon
 University), and the Gaussian 82(TM) system (copyright 1983,
 Carnegie Mellon University). Gaussian is a federally registered
 trademark of Gaussian, Inc.
  
 This software contains proprietary and confidential information,
 including trade secrets, belonging to Gaussian, Inc.
  
 This software is provided under written license and may be
 used, copied, transmitted, or stored only in accord with that
 written license.
  
 The following legend is applicable only to US Government
 contracts under FAR:
  
                    RESTRICTED RIGHTS LEGEND
  
 Use, reproduction and disclosure by the US Government is
 subject to restrictions as set forth in subparagraphs (a)
 and (c) of the Commercial Computer Software - Restricted
 Rights clause in FAR 52.227-19.
  
 Gaussian, Inc.
 340 Quinnipiac St., Bldg. 40, Wallingford CT 06492
  
  
 ---------------------------------------------------------------
 Warning -- This program may not be used in any manner that
 competes with the business of Gaussian, Inc. or will provide
 assistance to any competitor of Gaussian, Inc.  The licensee
 of this program is prohibited from giving any competitor of
 Gaussian, Inc. access to this program.  By using this program,
 the user acknowledges that Gaussian, Inc. is engaged in the
 business of creating and licensing software in the field of
 computational chemistry and represents and warrants to the
 licensee that it is not a competitor of Gaussian, Inc. and that
 it will not use this program in any manner prohibited above.
 ---------------------------------------------------------------
  

 Cite this work as:
 Gaussian 16, Revision C.01,
 M. J. Frisch, G. W. Trucks, H. B. Schlegel, G. E. Scuseria, 
 M. A. Robb, J. R. Cheeseman, G. Scalmani, V. Barone, 
 G. A. Petersson, H. Nakatsuji, X. Li, M. Caricato, A. V. Marenich, 
 J. Bloino, B. G. Janesko, R. Gomperts, B. Mennucci, H. P. Hratchian, 
 J. V. Ortiz, A. F. Izmaylov, J. L. Sonnenberg, D. Williams-Young, 
 F. Ding, F. Lipparini, F. Egidi, J. Goings, B. Peng, A. Petrone, 
 T. Henderson, D. Ranasinghe, V. G. Zakrzewski, J. Gao, N. Rega, 
 G. Zheng, W. Liang, M. Hada, M. Ehara, K. Toyota, R. Fukuda, 
 J. Hasegawa, M. Ishida, T. Nakajima, Y. Honda, O. Kitao, H. Nakai, 
 T. Vreven, K. Throssell, J. A. Montgomery, Jr., J. E. Peralta, 
 F. Ogliaro, M. J. Bearpark, J. J. Heyd, E. N. Brothers, K. N. Kudin, 
 V. N. Staroverov, T. A. Keith, R. Kobayashi, J. Normand, 
 K. Raghavachari, A. P. Rendell, J. C. Burant, S. S. Iyengar, 
 J. Tomasi, M. Cossi, J. M. Millam, M. Klene, C. Adamo, R. Cammi, 
 J. W. Ochterski, R. L. Martin, K. Morokuma, O. Farkas, 
 J. B. Foresman, and D. J. Fox, Gaussian, Inc., Wallingford CT, 2019.
 
 ******************************************
 Gaussian 16:  ES64L-G16RevC.01  3-Jul-2019
                 8-Apr-2025 
 ******************************************
 %nprocs=16
 Will use up to   16 processors via shared memory.
 %mem=30GB
 %chk=BDE49_expt_1596_mol2.chk
 ----------------------------------------------------------------------
 #t hf aug-cc-pvdz symm=none int=(grid=ultrafine) guess=(read,tcheck) s
 table=opt
 ----------------------------------------------------------------------
 -----
 title
 -----
 Symbolic Z-matrix:
 Charge =  0 Multiplicity = 2
 S                    -0.14286   0.06667   0.25397 
 O                     1.22051  -0.79948  -0.10802 
 O                     0.06981   1.43793  -0.18817 
 O                    -1.25003  -0.74991  -0.19707 
 H                     1.96337  -0.17503  -0.1174 
 
                    Distance matrix (angstroms):
                    1          2          3          4          5
     1  S    0.000000
     2  O    1.655300   0.000000
     3  O    1.456384   2.517250   0.000000
     4  O    1.447780   2.472636   2.555124   0.000000
     5  H    2.152333   0.970503   2.488423   3.265389   0.000000
 Symmetry turned off by external request.
 Rotational constants (GHZ):           9.0573804           8.8736350           4.7743787
   105 basis functions,   221 primitive gaussians,   113 cartesian basis functions
    21 alpha electrons       20 beta electrons
       nuclear repulsion energy       185.9131180757 Hartrees.
 NAtoms=    5 NActive=    5 NUniq=    5 SFac= 1.00D+00 NAtFMM=   60 NAOKFM=F Big=F
 ExpMin= 2.97D-02 ExpMax= 1.11D+05 ExpMxC= 1.07D+03 IAcc=3 IRadAn=         5 AccDes= 0.00D+00
 Harris functional with IExCor=  205 and IRadAn=       5 diagonalized for initial guess.
 HarFok:  IExCor=  205 AccDes= 0.00D+00 IRadAn=         5 IDoV= 1 UseB2=F ITyADJ=14
 ICtDFT=  3500011 ScaDFX=  1.000000  1.000000  1.000000  1.000000
 FoFCou: FMM=F IPFlag=           0 FMFlag=      100000 FMFlg1=           0
         NFxFlg=           0 DoJE=T BraDBF=F KetDBF=T FulRan=T
         wScrn=  0.000000 ICntrl=       500 IOpCl=  0 I1Cent=   200000004 NGrid=           0
         NMat0=    1 NMatS0=      1 NMatT0=    0 NMatD0=    1 NMtDS0=    0 NMtDT0=    0
 Symmetry not used in FoFCou.
 Initial guess <Sx>= 0.0000 <Sy>= 0.0000 <Sz>= 0.5000 <S**2>= 0.7500 S= 0.5000
 SCF Done:  E(UHF) =  -622.616397172     A.U. after   20 cycles
            NFock= 20  Conv=0.88D-08     -V/T= 2.0009
 <Sx>= 0.0000 <Sy>= 0.0000 <Sz>= 0.5000 <S**2>= 0.7825 S= 0.5161
 <L.S>=  0.00000000000    
 Annihilation of the first spin contaminant:
 S**2 before annihilation     0.7825,   after     0.7507

 **********************************************************************

            Population analysis using the SCF Density.

 **********************************************************************

 Alpha  occ. eigenvalues --  -92.25286 -20.67508 -20.63393 -20.63338  -9.22571
 Alpha  occ. eigenvalues --   -6.91391  -6.90666  -6.90596  -1.54417  -1.43170
 Alpha  occ. eigenvalues --   -1.42123  -0.94109  -0.78810  -0.73584  -0.72836
 Alpha  occ. eigenvalues --   -0.68105  -0.61110  -0.57715  -0.56223  -0.53806
 Alpha  occ. eigenvalues --   -0.46531
 Alpha virt. eigenvalues --    0.03002   0.08164   0.08881   0.09126   0.13005
 Alpha virt. eigenvalues --    0.16532   0.18627   0.19526   0.20560   0.21344
 Alpha virt. eigenvalues --    0.22244   0.25339   0.26328   0.27022   0.27762
 Alpha virt. eigenvalues --    0.29781   0.29996   0.31785   0.37068   0.38360
 Alpha virt. eigenvalues --    0.40952   0.45026   0.47612   0.49240   0.52383
 Alpha virt. eigenvalues --    0.59565   0.60753   0.64533   0.71430   0.74559
 Alpha virt. eigenvalues --    0.80702   0.84169   0.90766   0.92886   0.93552
 Alpha virt. eigenvalues --    0.97520   1.03799   1.05799   1.07091   1.07649
 Alpha virt. eigenvalues --    1.09859   1.10130   1.18485   1.20781   1.23222
 Alpha virt. eigenvalues --    1.24892   1.29872   1.30764   1.36715   1.39912
 Alpha virt. eigenvalues --    1.44236   1.45831   1.52495   1.55441   1.56956
 Alpha virt. eigenvalues --    1.60533   1.65201   1.74679   1.76606   1.87514
 Alpha virt. eigenvalues --    2.00718   2.01740   2.11382   2.27025   2.40369
 Alpha virt. eigenvalues --    2.70004   2.88187   2.95246   3.04210   3.56622
 Alpha virt. eigenvalues --    3.58129   3.59402   3.59956   3.61166   3.62271
 Alpha virt. eigenvalues --    3.62670   3.64091   3.66454   3.67507   3.69649
 Alpha virt. eigenvalues --    3.73864   3.79521   3.90620   4.17417
  Beta  occ. eigenvalues --  -92.24859 -20.66749 -20.61981 -20.61915  -9.21988
  Beta  occ. eigenvalues --   -6.90684  -6.90583  -6.89502  -1.51518  -1.40310
  Beta  occ. eigenvalues --   -1.37963  -0.88838  -0.75894  -0.70374  -0.67543
  Beta  occ. eigenvalues --   -0.64483  -0.55831  -0.55054  -0.52532  -0.48773
  Beta virt. eigenvalues --   -0.02205   0.03565   0.08642   0.09081   0.09408
  Beta virt. eigenvalues --    0.14054   0.17346   0.18911   0.20466   0.21093
  Beta virt. eigenvalues --    0.21861   0.23389   0.25931   0.27122   0.27912
  Beta virt. eigenvalues --    0.28173   0.30143   0.31136   0.32040   0.37126
  Beta virt. eigenvalues --    0.38444   0.41662   0.46687   0.48960   0.49728
  Beta virt. eigenvalues --    0.53763   0.60076   0.61187   0.66303   0.72131
  Beta virt. eigenvalues --    0.76881   0.81024   0.84388   0.91107   0.93648
  Beta virt. eigenvalues --    0.93840   0.98067   1.04112   1.06058   1.07608
  Beta virt. eigenvalues --    1.09589   1.10283   1.13574   1.19043   1.21738
  Beta virt. eigenvalues --    1.23722   1.26299   1.31897   1.32846   1.37447
  Beta virt. eigenvalues --    1.40704   1.44865   1.46940   1.53661   1.57517
  Beta virt. eigenvalues --    1.58290   1.61795   1.67631   1.76337   1.77485
  Beta virt. eigenvalues --    1.88163   2.01352   2.02329   2.11646   2.27159
  Beta virt. eigenvalues --    2.40781   2.70607   2.88725   2.96286   3.05335
  Beta virt. eigenvalues --    3.59090   3.59915   3.61045   3.61969   3.62771
  Beta virt. eigenvalues --    3.64156   3.64795   3.65677   3.69017   3.69452
  Beta virt. eigenvalues --    3.71688   3.74873   3.81202   3.92382   4.18034
          Condensed to atoms (all electrons):
          Atomic-Atomic Spin Densities.
 Mulliken charges and spin densities:
               1          2
     1  S    2.198261   0.348019
     2  O   -0.735664   0.121949
     3  O   -0.861548   0.260197
     4  O   -0.812398   0.289577
     5  H    0.211348  -0.019742
 Sum of Mulliken charges =  -0.00000   1.00000
 Mulliken charges and spin densities with hydrogens summed into heavy atoms:
               1          2
     1  S    2.198261   0.348019
     2  O   -0.524316   0.102207
     3  O   -0.861548   0.260197
     4  O   -0.812398   0.289577
 Electronic spatial extent (au):  <R**2>=            268.5114
 Charge=             -0.0000 electrons
 Dipole moment (field-independent basis, Debye):
    X=              2.6090    Y=              0.1469    Z=              1.3120  Tot=              2.9240
                          Isotropic Fermi Contact Couplings
        Atom                 a.u.       MegaHertz       Gauss      10(-4) cm-1
     1  S(33)              0.76816     263.84346      94.14591      88.00870
     2  O(17)              0.09158     -55.51398     -19.80877     -18.51747
     3  O(17)              0.08714     -52.82580     -18.84956     -17.62079
     4  O(17)              0.09270     -56.19590     -20.05209     -18.74493
     5  H(1)              -0.00358     -16.02404      -5.71778      -5.34504
 --------------------------------------------------------
       Center         ----  Spin Dipole Couplings  ----
                      3XX-RR        3YY-RR        3ZZ-RR
 --------------------------------------------------------
     1   Atom       -1.010680     -1.046654      2.057334
     2   Atom       -0.047054     -0.129875      0.176929
     3   Atom       -0.603796     -0.511639      1.115435
     4   Atom       -0.627667     -0.589332      1.216999
     5   Atom        0.019560     -0.001491     -0.018069
 --------------------------------------------------------
                        XY            XZ            YZ
 --------------------------------------------------------
     1   Atom       -0.045418      0.384115     -0.189172
     2   Atom       -0.216582     -0.378646      0.310030
     3   Atom        0.062005     -0.136508     -0.484186
     4   Atom        0.052014      0.340090      0.336067
     5   Atom        0.018386     -0.011395      0.003767
 --------------------------------------------------------


 ---------------------------------------------------------------------------------
              Anisotropic Spin Dipole Couplings in Principal Axis System
 ---------------------------------------------------------------------------------

       Atom             a.u.   MegaHertz   Gauss  10(-4) cm-1        Axes

              Baa    -1.0801   -44.285   -15.802   -14.772  0.7036  0.7092 -0.0434
     1 S(33)  Bbb    -1.0364   -42.490   -15.162   -14.173 -0.6999  0.7023  0.1298
              Bcc     2.1165    86.775    30.963    28.945  0.1226 -0.0610  0.9906
 
              Baa    -0.3355    24.277     8.663     8.098  0.5954 -0.4124  0.6895
     2 O(17)  Bbb    -0.3089    22.350     7.975     7.455  0.6007  0.7984 -0.0413
              Bcc     0.6444   -46.627   -16.638   -15.553 -0.5334  0.4388  0.7231
 
              Baa    -0.6579    47.604    16.986    15.879 -0.4841  0.8529  0.1956
     3 O(17)  Bbb    -0.6025    43.596    15.556    14.542  0.8714  0.4497  0.1960
              Bcc     1.2604   -91.200   -32.543   -30.421 -0.0792 -0.2653  0.9609
 
              Baa    -0.6898    49.917    17.811    16.650  0.9614  0.1846 -0.2040
     4 O(17)  Bbb    -0.6478    46.877    16.727    15.637 -0.2144  0.9673 -0.1352
              Bcc     1.3377   -96.794   -34.538   -32.287  0.1724  0.1737  0.9696
 
              Baa    -0.0253   -13.512    -4.822    -4.507  0.3823 -0.4246  0.8207
     5 H(1)   Bbb    -0.0062    -3.321    -1.185    -1.108 -0.3120  0.7767  0.5472
              Bcc     0.0315    16.833     6.007     5.615  0.8698  0.4653 -0.1644
 

 ---------------------------------------------------------------------------------

 NROrb=    105 NOA=    21 NOB=    20 NVA=    84 NVB=    85
    12 initial guesses have been made.
 Iteration     1 Dimension    12 NMult     0 NNew     12
 Iteration     2 Dimension    24 NMult    12 NNew     12
 Iteration     3 Dimension    27 NMult    24 NNew      3
 Iteration     4 Dimension    30 NMult    27 NNew      3
 Iteration     5 Dimension    33 NMult    30 NNew      3
 Iteration     6 Dimension    36 NMult    33 NNew      3
 Iteration     7 Dimension    39 NMult    36 NNew      3
 Iteration     8 Dimension    42 NMult    39 NNew      3
 ***********************************************************************
 Stability analysis using <AA,BB:AA,BB> singles matrix:
 ***********************************************************************
 Ground to excited state transition densities written to RWF  633

 Eigenvectors of the stability matrix:
 
 Excited state symmetry could not be determined.
 Eigenvector   1:  2.223-?Sym  Eigenvalue= 0.0612822  <S**2>=0.985
     20B -> 21B        0.83392
     20B -> 22B        0.23862
     20B -> 26B       -0.18294
     20B -> 32B        0.10938
 The wavefunction is stable under the perturbations considered.
 The wavefunction is already stable.

 **********************************************************************

            Population analysis using the SCF Density.

 **********************************************************************

 Alpha  occ. eigenvalues --  -92.25286 -20.67508 -20.63393 -20.63338  -9.22571
 Alpha  occ. eigenvalues --   -6.91391  -6.90666  -6.90596  -1.54417  -1.43170
 Alpha  occ. eigenvalues --   -1.42123  -0.94109  -0.78810  -0.73584  -0.72836
 Alpha  occ. eigenvalues --   -0.68105  -0.61110  -0.57715  -0.56223  -0.53806
 Alpha  occ. eigenvalues --   -0.46531
 Alpha virt. eigenvalues --    0.03002   0.08164   0.08881   0.09126   0.13005
 Alpha virt. eigenvalues --    0.16532   0.18627   0.19526   0.20560   0.21344
 Alpha virt. eigenvalues --    0.22244   0.25339   0.26328   0.27022   0.27762
 Alpha virt. eigenvalues --    0.29781   0.29996   0.31785   0.37068   0.38360
 Alpha virt. eigenvalues --    0.40952   0.45026   0.47612   0.49240   0.52383
 Alpha virt. eigenvalues --    0.59565   0.60753   0.64533   0.71430   0.74559
 Alpha virt. eigenvalues --    0.80702   0.84169   0.90766   0.92886   0.93552
 Alpha virt. eigenvalues --    0.97520   1.03799   1.05799   1.07091   1.07649
 Alpha virt. eigenvalues --    1.09859   1.10130   1.18485   1.20781   1.23222
 Alpha virt. eigenvalues --    1.24892   1.29872   1.30764   1.36715   1.39912
 Alpha virt. eigenvalues --    1.44236   1.45831   1.52495   1.55441   1.56956
 Alpha virt. eigenvalues --    1.60533   1.65201   1.74679   1.76606   1.87514
 Alpha virt. eigenvalues --    2.00718   2.01740   2.11382   2.27025   2.40369
 Alpha virt. eigenvalues --    2.70004   2.88187   2.95246   3.04210   3.56622
 Alpha virt. eigenvalues --    3.58129   3.59402   3.59956   3.61166   3.62271
 Alpha virt. eigenvalues --    3.62670   3.64091   3.66454   3.67507   3.69649
 Alpha virt. eigenvalues --    3.73864   3.79521   3.90620   4.17417
  Beta  occ. eigenvalues --  -92.24859 -20.66749 -20.61981 -20.61915  -9.21988
  Beta  occ. eigenvalues --   -6.90684  -6.90583  -6.89502  -1.51518  -1.40310
  Beta  occ. eigenvalues --   -1.37963  -0.88838  -0.75894  -0.70374  -0.67543
  Beta  occ. eigenvalues --   -0.64483  -0.55831  -0.55054  -0.52532  -0.48773
  Beta virt. eigenvalues --   -0.02205   0.03565   0.08642   0.09081   0.09408
  Beta virt. eigenvalues --    0.14054   0.17346   0.18911   0.20466   0.21093
  Beta virt. eigenvalues --    0.21861   0.23389   0.25931   0.27122   0.27912
  Beta virt. eigenvalues --    0.28173   0.30143   0.31136   0.32040   0.37126
  Beta virt. eigenvalues --    0.38444   0.41662   0.46687   0.48960   0.49728
  Beta virt. eigenvalues --    0.53763   0.60076   0.61187   0.66303   0.72131
  Beta virt. eigenvalues --    0.76881   0.81024   0.84388   0.91107   0.93648
  Beta virt. eigenvalues --    0.93840   0.98067   1.04112   1.06058   1.07608
  Beta virt. eigenvalues --    1.09589   1.10283   1.13574   1.19043   1.21738
  Beta virt. eigenvalues --    1.23722   1.26299   1.31897   1.32846   1.37447
  Beta virt. eigenvalues --    1.40704   1.44865   1.46940   1.53661   1.57517
  Beta virt. eigenvalues --    1.58290   1.61795   1.67631   1.76337   1.77485
  Beta virt. eigenvalues --    1.88163   2.01352   2.02329   2.11646   2.27159
  Beta virt. eigenvalues --    2.40781   2.70607   2.88725   2.96286   3.05335
  Beta virt. eigenvalues --    3.59090   3.59915   3.61045   3.61969   3.62771
  Beta virt. eigenvalues --    3.64156   3.64795   3.65677   3.69017   3.69452
  Beta virt. eigenvalues --    3.71688   3.74873   3.81202   3.92382   4.18034
          Condensed to atoms (all electrons):
          Atomic-Atomic Spin Densities.
 Mulliken charges and spin densities:
               1          2
     1  S    2.198261   0.348019
     2  O   -0.735664   0.121949
     3  O   -0.861548   0.260197
     4  O   -0.812398   0.289577
     5  H    0.211348  -0.019742
 Sum of Mulliken charges =  -0.00000   1.00000
 Mulliken charges and spin densities with hydrogens summed into heavy atoms:
               1          2
     1  S    2.198261   0.348019
     2  O   -0.524316   0.102207
     3  O   -0.861548   0.260197
     4  O   -0.812398   0.289577
 Electronic spatial extent (au):  <R**2>=            268.5114
 Charge=             -0.0000 electrons
 Dipole moment (field-independent basis, Debye):
    X=              2.6090    Y=              0.1469    Z=              1.3120  Tot=              2.9240
                          Isotropic Fermi Contact Couplings
        Atom                 a.u.       MegaHertz       Gauss      10(-4) cm-1
     1  S(33)              0.76816     263.84346      94.14591      88.00870
     2  O(17)              0.09158     -55.51398     -19.80877     -18.51747
     3  O(17)              0.08714     -52.82580     -18.84956     -17.62079
     4  O(17)              0.09270     -56.19590     -20.05209     -18.74493
     5  H(1)              -0.00358     -16.02404      -5.71778      -5.34504
 --------------------------------------------------------
       Center         ----  Spin Dipole Couplings  ----
                      3XX-RR        3YY-RR        3ZZ-RR
 --------------------------------------------------------
     1   Atom       -1.010680     -1.046654      2.057334
     2   Atom       -0.047054     -0.129875      0.176929
     3   Atom       -0.603796     -0.511639      1.115435
     4   Atom       -0.627667     -0.589332      1.216999
     5   Atom        0.019560     -0.001491     -0.018069
 --------------------------------------------------------
                        XY            XZ            YZ
 --------------------------------------------------------
     1   Atom       -0.045418      0.384115     -0.189172
     2   Atom       -0.216582     -0.378646      0.310030
     3   Atom        0.062005     -0.136508     -0.484186
     4   Atom        0.052014      0.340090      0.336067
     5   Atom        0.018386     -0.011395      0.003767
 --------------------------------------------------------


 ---------------------------------------------------------------------------------
              Anisotropic Spin Dipole Couplings in Principal Axis System
 ---------------------------------------------------------------------------------

       Atom             a.u.   MegaHertz   Gauss  10(-4) cm-1        Axes

              Baa    -1.0801   -44.285   -15.802   -14.772  0.7036  0.7092 -0.0434
     1 S(33)  Bbb    -1.0364   -42.490   -15.162   -14.173 -0.6999  0.7023  0.1298
              Bcc     2.1165    86.775    30.963    28.945  0.1226 -0.0610  0.9906
 
              Baa    -0.3355    24.277     8.663     8.098  0.5954 -0.4124  0.6895
     2 O(17)  Bbb    -0.3089    22.350     7.975     7.455  0.6007  0.7984 -0.0413
              Bcc     0.6444   -46.627   -16.638   -15.553 -0.5334  0.4388  0.7231
 
              Baa    -0.6579    47.604    16.986    15.879 -0.4841  0.8529  0.1956
     3 O(17)  Bbb    -0.6025    43.596    15.556    14.542  0.8714  0.4497  0.1960
              Bcc     1.2604   -91.200   -32.543   -30.421 -0.0792 -0.2653  0.9609
 
              Baa    -0.6898    49.917    17.811    16.650  0.9614  0.1846 -0.2040
     4 O(17)  Bbb    -0.6478    46.877    16.727    15.637 -0.2144  0.9673 -0.1352
              Bcc     1.3377   -96.794   -34.538   -32.287  0.1724  0.1737  0.9696
 
              Baa    -0.0253   -13.512    -4.822    -4.507  0.3823 -0.4246  0.8207
     5 H(1)   Bbb    -0.0062    -3.321    -1.185    -1.108 -0.3120  0.7767  0.5472
              Bcc     0.0315    16.833     6.007     5.615  0.8698  0.4653 -0.1644
 

 ---------------------------------------------------------------------------------

 Unable to Open any file for archive entry.
 1\1\GINC-SE454\Stability\UHF\Aug-CC-pVDZ\H1O3S1\OHZDE\08-Apr-2025\0\\#
 t hf aug-cc-pvdz symm=none int=(grid=ultrafine) guess=(read,tcheck) st
 able=opt\\title\\0,2\S,0,-0.142855,0.066672,0.253968\O,0,1.220508,-0.7
 99484,-0.108017\O,0,0.069807,1.437927,-0.188172\O,0,-1.250026,-0.74990
 8,-0.197072\H,0,1.963374,-0.175034,-0.1174\\Version=ES64L-G16RevC.01\H
 F=-622.6163972\S2=0.782454\S2-1=0.\S2A=0.750729\RMSD=8.843e-09\Dipole=
 1.0264418,0.0578067,0.5161893\Quadrupole=2.4307163,-3.7635844,1.332868
 1,-0.3358935,-0.5665706,0.1348855\PG=Unknown\\@
 The archive entry for this job was punched.


 TO ERR IS HUMAN - AND TO BLAME IT ON A COMPUTER IS EVEN MORE SO.
 Job cpu time:       0 days  0 hours  0 minutes 35.1 seconds.
 Elapsed time:       0 days  0 hours  0 minutes  3.9 seconds.
 File lengths (MBytes):  RWF=    100 Int=      0 D2E=      0 Chk=      3 Scr=      1
 Normal termination of Gaussian 16 at Tue Apr  8 22:47:28 2025.
 Initial command:
 /arc/software/Gaussian/g16.c01/l1.exe "/tmp/slurm/4842060/Gau-354466.inp" -scrdir="/tmp/slurm/4842060/"
 Entering Link 1 = /arc/software/Gaussian/g16.c01/l1.exe PID=    354799.
  
 Copyright (c) 1988-2019, Gaussian, Inc.  All Rights Reserved.
  
 This is part of the Gaussian(R) 16 program.  It is based on
 the Gaussian(R) 09 system (copyright 2009, Gaussian, Inc.),
 the Gaussian(R) 03 system (copyright 2003, Gaussian, Inc.),
 the Gaussian(R) 98 system (copyright 1998, Gaussian, Inc.),
 the Gaussian(R) 94 system (copyright 1995, Gaussian, Inc.),
 the Gaussian 92(TM) system (copyright 1992, Gaussian, Inc.),
 the Gaussian 90(TM) system (copyright 1990, Gaussian, Inc.),
 the Gaussian 88(TM) system (copyright 1988, Gaussian, Inc.),
 the Gaussian 86(TM) system (copyright 1986, Carnegie Mellon
 University), and the Gaussian 82(TM) system (copyright 1983,
 Carnegie Mellon University). Gaussian is a federally registered
 trademark of Gaussian, Inc.
  
 This software contains proprietary and confidential information,
 including trade secrets, belonging to Gaussian, Inc.
  
 This software is provided under written license and may be
 used, copied, transmitted, or stored only in accord with that
 written license.
  
 The following legend is applicable only to US Government
 contracts under FAR:
  
                    RESTRICTED RIGHTS LEGEND
  
 Use, reproduction and disclosure by the US Government is
 subject to restrictions as set forth in subparagraphs (a)
 and (c) of the Commercial Computer Software - Restricted
 Rights clause in FAR 52.227-19.
  
 Gaussian, Inc.
 340 Quinnipiac St., Bldg. 40, Wallingford CT 06492
  
  
 ---------------------------------------------------------------
 Warning -- This program may not be used in any manner that
 competes with the business of Gaussian, Inc. or will provide
 assistance to any competitor of Gaussian, Inc.  The licensee
 of this program is prohibited from giving any competitor of
 Gaussian, Inc. access to this program.  By using this program,
 the user acknowledges that Gaussian, Inc. is engaged in the
 business of creating and licensing software in the field of
 computational chemistry and represents and warrants to the
 licensee that it is not a competitor of Gaussian, Inc. and that
 it will not use this program in any manner prohibited above.
 ---------------------------------------------------------------
  

 Cite this work as:
 Gaussian 16, Revision C.01,
 M. J. Frisch, G. W. Trucks, H. B. Schlegel, G. E. Scuseria, 
 M. A. Robb, J. R. Cheeseman, G. Scalmani, V. Barone, 
 G. A. Petersson, H. Nakatsuji, X. Li, M. Caricato, A. V. Marenich, 
 J. Bloino, B. G. Janesko, R. Gomperts, B. Mennucci, H. P. Hratchian, 
 J. V. Ortiz, A. F. Izmaylov, J. L. Sonnenberg, D. Williams-Young, 
 F. Ding, F. Lipparini, F. Egidi, J. Goings, B. Peng, A. Petrone, 
 T. Henderson, D. Ranasinghe, V. G. Zakrzewski, J. Gao, N. Rega, 
 G. Zheng, W. Liang, M. Hada, M. Ehara, K. Toyota, R. Fukuda, 
 J. Hasegawa, M. Ishida, T. Nakajima, Y. Honda, O. Kitao, H. Nakai, 
 T. Vreven, K. Throssell, J. A. Montgomery, Jr., J. E. Peralta, 
 F. Ogliaro, M. J. Bearpark, J. J. Heyd, E. N. Brothers, K. N. Kudin, 
 V. N. Staroverov, T. A. Keith, R. Kobayashi, J. Normand, 
 K. Raghavachari, A. P. Rendell, J. C. Burant, S. S. Iyengar, 
 J. Tomasi, M. Cossi, J. M. Millam, M. Klene, C. Adamo, R. Cammi, 
 J. W. Ochterski, R. L. Martin, K. Morokuma, O. Farkas, 
 J. B. Foresman, and D. J. Fox, Gaussian, Inc., Wallingford CT, 2019.
 
 ******************************************
 Gaussian 16:  ES64L-G16RevC.01  3-Jul-2019
                 8-Apr-2025 
 ******************************************
 %nprocs=16
 Will use up to   16 processors via shared memory.
 %mem=30GB
 %chk=BDE49_expt_1596_mol2.chk
 ----------------------------------------------------------------------
 #t hf aug-cc-pvdz iop(5/13=1,5/36=2,99/5=2) pseudo=read geom=check gue
 ss=(read,tcheck) scf=(maxcycle=1)
 ----------------------------------------------------------------------
 -----
 title
 -----
 Structure from the checkpoint file:  "BDE49_expt_1596_mol2.chk"
 Charge =  0 Multiplicity = 2
 Z-Matrix found in chk file.
 S,0,-0.142855,0.066672,0.253968
 O,0,1.220508,-0.799484,-0.108017
 O,0,0.069807,1.437927,-0.188172
 O,0,-1.250026,-0.749908,-0.197072
 H,0,1.963374,-0.175034,-0.1174
 Recover connectivity data from disk.
                    Distance matrix (angstroms):
                    1          2          3          4          5
     1  S    0.000000
     2  O    1.655300   0.000000
     3  O    1.456384   2.517250   0.000000
     4  O    1.447780   2.472636   2.555124   0.000000
     5  H    2.152333   0.970503   2.488423   3.265389   0.000000
 Framework group  C1[X(HO3S)]
 Deg. of freedom     9
                         Standard orientation:                         
 ---------------------------------------------------------------------
 Center     Atomic      Atomic             Coordinates (Angstroms)
 Number     Number       Type             X           Y           Z
 ---------------------------------------------------------------------
      1         16           0       -0.142855    0.066672    0.253968
      2          8           0        1.220510   -0.799481   -0.108017
      3          8           0        0.069803    1.437927   -0.188172
      4          8           0       -1.250024   -0.749911   -0.197072
      5          1           0        1.963374   -0.175029   -0.117400
 ---------------------------------------------------------------------
 Rotational constants (GHZ):           9.0573804           8.8736350           4.7743787
 ======================================================================================================
                                       Pseudopotential Parameters
 ======================================================================================================
  Center     Atomic      Valence      Angular      Power
  Number     Number     Electrons     Momentum     of R      Exponent        Coefficient   SO-Coeffient
 ======================================================================================================
    1         16           16
                                      G and up 
                                                     0        0.0000010       -0.00444167    0.00000000
                                                     2        0.1200000        0.11677988    0.00000000
                                                     2        0.1400000       -0.22050378    0.00000000
                                                     2        0.1800000        0.26452031    0.00000000
                                                     2        0.2800000       -0.04353316    0.00000000
                                                     2        0.5000000       -1.18567514    0.00000000
                                      S - G
                                                     0        0.0000010        0.03992419    0.00000000
                                                     2        0.1200000       -0.56926432    0.00000000
                                                     2        0.3000000        0.88393965    0.00000000
                                      P - G
                                                     0        0.0000010       -0.92181603    0.00000000
                                                     2        0.1200000        1.30681810    0.00000000
                                                     2        0.2000000       -1.50828653    0.00000000
                                                     2        0.2400000       -2.25148793    0.00000000
                                                     2        0.6000000       10.10218731    0.00000000
                                      D - G
                                                     0        0.0000010        0.72039481    0.00000000
                                                     2        0.1200000       -0.56105075    0.00000000
                                                     2        0.2000000        0.42910414    0.00000000
                                                     2        0.8000000        0.44203418    0.00000000
                                      F - G
                                                     2        0.1200000       -0.62623060    0.00000000
                                                     2        0.1800000        0.89777932    0.00000000
                                                     2        0.5000000       -1.32991832    0.00000000
    2          8            8
                                      G and up 
                                                     0        0.0000010       -0.00165251    0.00000000
                                                     2        0.1200000       -0.10937202    0.00000000
                                                     2        0.1400000        0.35668905    0.00000000
                                                     2        0.1800000       -0.51696033    0.00000000
                                                     2        0.2400000        0.52446472    0.00000000
                                                     2        0.4000000       -0.07754493    0.00000000
                                                     2        0.8000000       -1.90560988    0.00000000
                                                     2        1.7000000        0.19857963    0.00000000
                                      S - G
                                                     0        0.0000010       -0.03845181    0.00000000
                                                     2        0.1400000        0.42024558    0.00000000
                                                     2        0.4000000       -4.10467779    0.00000000
                                                     2        1.3000000        9.99571838    0.00000000
                                      P - G
                                                     0        0.0000010        0.33206183    0.00000000
                                                     2        0.1200000       -0.18708141    0.00000000
                                                     2        0.2800000       -0.18179081    0.00000000
                                                     2        0.7000000        1.18820394    0.00000000
                                      D - G
                                                     0        0.0000010       -0.57891674    0.00000000
                                                     2        0.1200000        0.60487490    0.00000000
                                                     2        0.2400000       -0.24931464    0.00000000
                                                     2        0.3000000       -2.75054612    0.00000000
                                                     2        1.0000000       15.96776040    0.00000000
                                      F - G
                                                     0        0.0000010        0.37449041    0.00000000
                                                     2        0.1200000       -0.63373642    0.00000000
                                                     2        0.1400000       -0.08412804    0.00000000
                                                     2        0.2800000        2.62321406    0.00000000
                                                     2        0.6000000       -2.68223623    0.00000000
    3          8            8
                                      G and up 
                                                     0        0.0000010       -0.00165251    0.00000000
                                                     2        0.1200000       -0.10937202    0.00000000
                                                     2        0.1400000        0.35668905    0.00000000
                                                     2        0.1800000       -0.51696033    0.00000000
                                                     2        0.2400000        0.52446472    0.00000000
                                                     2        0.4000000       -0.07754493    0.00000000
                                                     2        0.8000000       -1.90560988    0.00000000
                                                     2        1.7000000        0.19857963    0.00000000
                                      S - G
                                                     0        0.0000010       -0.03845181    0.00000000
                                                     2        0.1400000        0.42024558    0.00000000
                                                     2        0.4000000       -4.10467779    0.00000000
                                                     2        1.3000000        9.99571838    0.00000000
                                      P - G
                                                     0        0.0000010        0.33206183    0.00000000
                                                     2        0.1200000       -0.18708141    0.00000000
                                                     2        0.2800000       -0.18179081    0.00000000
                                                     2        0.7000000        1.18820394    0.00000000
                                      D - G
                                                     0        0.0000010       -0.57891674    0.00000000
                                                     2        0.1200000        0.60487490    0.00000000
                                                     2        0.2400000       -0.24931464    0.00000000
                                                     2        0.3000000       -2.75054612    0.00000000
                                                     2        1.0000000       15.96776040    0.00000000
                                      F - G
                                                     0        0.0000010        0.37449041    0.00000000
                                                     2        0.1200000       -0.63373642    0.00000000
                                                     2        0.1400000       -0.08412804    0.00000000
                                                     2        0.2800000        2.62321406    0.00000000
                                                     2        0.6000000       -2.68223623    0.00000000
    4          8            8
                                      G and up 
                                                     0        0.0000010       -0.00165251    0.00000000
                                                     2        0.1200000       -0.10937202    0.00000000
                                                     2        0.1400000        0.35668905    0.00000000
                                                     2        0.1800000       -0.51696033    0.00000000
                                                     2        0.2400000        0.52446472    0.00000000
                                                     2        0.4000000       -0.07754493    0.00000000
                                                     2        0.8000000       -1.90560988    0.00000000
                                                     2        1.7000000        0.19857963    0.00000000
                                      S - G
                                                     0        0.0000010       -0.03845181    0.00000000
                                                     2        0.1400000        0.42024558    0.00000000
                                                     2        0.4000000       -4.10467779    0.00000000
                                                     2        1.3000000        9.99571838    0.00000000
                                      P - G
                                                     0        0.0000010        0.33206183    0.00000000
                                                     2        0.1200000       -0.18708141    0.00000000
                                                     2        0.2800000       -0.18179081    0.00000000
                                                     2        0.7000000        1.18820394    0.00000000
                                      D - G
                                                     0        0.0000010       -0.57891674    0.00000000
                                                     2        0.1200000        0.60487490    0.00000000
                                                     2        0.2400000       -0.24931464    0.00000000
                                                     2        0.3000000       -2.75054612    0.00000000
                                                     2        1.0000000       15.96776040    0.00000000
                                      F - G
                                                     0        0.0000010        0.37449041    0.00000000
                                                     2        0.1200000       -0.63373642    0.00000000
                                                     2        0.1400000       -0.08412804    0.00000000
                                                     2        0.2800000        2.62321406    0.00000000
                                                     2        0.6000000       -2.68223623    0.00000000
    5          1            1
                                      F and up 
                                                     0        0.0000010        0.00072061    0.00000000
                                                     2        0.1200000        0.03832357    0.00000000
                                                     2        0.1400000       -0.08683256    0.00000000
                                                     2        0.1800000        0.09312970    0.00000000
                                                     2        0.2800000       -0.02532572    0.00000000
                                                     2        0.4000000       -0.09430787    0.00000000
                                                     2        0.7000000        0.42710831    0.00000000
                                                     2        1.2000000       -2.11746981    0.00000000
                                      S - F
                                                     0        0.0000010        0.14449603    0.00000000
                                                     2        0.1200000       -0.56378993    0.00000000
                                                     2        0.1400000        0.63941249    0.00000000
                                                     2        0.2600000       -0.58461015    0.00000000
                                                     2        0.5000000        1.00157293    0.00000000
                                                     2        1.8000000       -0.14135838    0.00000000
                                      P - F
                                                     0        0.0000010       -0.09353646    0.00000000
                                                     2        0.1200000        0.31768975    0.00000000
                                                     2        0.2000000       -0.71747951    0.00000000
                                                     2        0.4000000        0.65752308    0.00000000
                                                     2        1.7000000        2.94052587    0.00000000
                                      D - F
                                                     0        0.0000010       -0.04491202    0.00000000
                                                     2        0.1200000       -0.02862031    0.00000000
                                                     2        0.1800000       -0.21515263    0.00000000
                                                     2        0.3000000        0.80560647    0.00000000
                                                     2        0.4000000        0.47351754    0.00000000
                                                     2        0.7000000       -4.57051794    0.00000000
                                                     2        1.6000000       18.53737826    0.00000000
 ======================================================================================================
   105 basis functions,   221 primitive gaussians,   113 cartesian basis functions
    21 alpha electrons       20 beta electrons
       nuclear repulsion energy       185.9131180757 Hartrees.
 NAtoms=    5 NActive=    5 NUniq=    5 SFac= 1.00D+00 NAtFMM=   60 NAOKFM=F Big=F
   1 Symmetry operations used in ECPInt.
 ECPInt:  NShTT=     946 NPrTT=    7400 LenC2=     945 LenP2D=    5716.
 LDataN:  DoStor=T MaxTD1= 6 Len=  172
 Initial guess from the checkpoint file:  "BDE49_expt_1596_mol2.chk"
 B after Tr=    -0.000000    0.000000    0.000000
         Rot=    1.000000    0.000000   -0.000000   -0.000001 Ang=  -0.00 deg.
 Initial guess <Sx>= 0.0000 <Sy>= 0.0000 <Sz>= 0.5000 <S**2>= 0.7825 S= 0.5161
 >>>>>>>>>> Convergence criterion not met.
 SCF Done:  E(UHF) =  -623.773421612     A.U. after    2 cycles
            NFock=  1  Conv=0.54D-01     -V/T= 2.0069
 <Sx>= 0.0000 <Sy>= 0.0000 <Sz>= 0.5000 <S**2>= 0.7789 S= 0.5143
 <L.S>=  0.00000000000    
 Annihilation of the first spin contaminant:
 S**2 before annihilation     0.7789,   after     0.7506

 **********************************************************************

            Population analysis using the SCF Density.

 **********************************************************************

 Orbital symmetries:
 Alpha Orbitals:
       Occupied  (A) (A) (A) (A) (A) (A) (A) (A) (A) (A) (A) (A)
                 (A) (A) (A) (A) (A) (A) (A) (A) (A)
       Virtual   (A) (A) (A) (A) (A) (A) (A) (A) (A) (A) (A) (A)
                 (A) (A) (A) (A) (A) (A) (A) (A) (A) (A) (A) (A)
                 (A) (A) (A) (A) (A) (A) (A) (A) (A) (A) (A) (A)
                 (A) (A) (A) (A) (A) (A) (A) (A) (A) (A) (A) (A)
                 (A) (A) (A) (A) (A) (A) (A) (A) (A) (A) (A) (A)
                 (A) (A) (A) (A) (A) (A) (A) (A) (A) (A) (A) (A)
                 (A) (A) (A) (A) (A) (A) (A) (A) (A) (A) (A) (A)
 Beta  Orbitals:
       Occupied  (A) (A) (A) (A) (A) (A) (A) (A) (A) (A) (A) (A)
                 (A) (A) (A) (A) (A) (A) (A) (A)
       Virtual   (A) (A) (A) (A) (A) (A) (A) (A) (A) (A) (A) (A)
                 (A) (A) (A) (A) (A) (A) (A) (A) (A) (A) (A) (A)
                 (A) (A) (A) (A) (A) (A) (A) (A) (A) (A) (A) (A)
                 (A) (A) (A) (A) (A) (A) (A) (A) (A) (A) (A) (A)
                 (A) (A) (A) (A) (A) (A) (A) (A) (A) (A) (A) (A)
                 (A) (A) (A) (A) (A) (A) (A) (A) (A) (A) (A) (A)
                 (A) (A) (A) (A) (A) (A) (A) (A) (A) (A) (A) (A)
                 (A)
 The electronic state is 2-A.
 Alpha  occ. eigenvalues --  -75.93183 -21.16662 -21.12144 -21.11979 -13.54781
 Alpha  occ. eigenvalues --  -13.42568 -13.29067  -8.28084  -1.91887  -1.74927
 Alpha  occ. eigenvalues --   -1.71372  -0.98284  -0.69277  -0.62249  -0.59607
 Alpha  occ. eigenvalues --   -0.50804  -0.47790  -0.44751  -0.41812  -0.40607
 Alpha  occ. eigenvalues --   -0.31428
 Alpha virt. eigenvalues --    0.03399   0.08296   0.09246   0.09456   0.13323
 Alpha virt. eigenvalues --    0.18174   0.18938   0.20176   0.20600   0.21108
 Alpha virt. eigenvalues --    0.23079   0.24004   0.25737   0.26322   0.26888
 Alpha virt. eigenvalues --    0.29814   0.31416   0.32615   0.34610   0.36366
 Alpha virt. eigenvalues --    0.38152   0.43145   0.45513   0.47489   0.52396
 Alpha virt. eigenvalues --    0.58401   0.60959   0.63787   0.64386   0.80110
 Alpha virt. eigenvalues --    0.83030   0.85371   0.87324   0.88073   0.89444
 Alpha virt. eigenvalues --    0.95203   0.96713   0.98529   1.01215   1.03824
 Alpha virt. eigenvalues --    1.06020   1.14475   1.18697   1.20635   1.23635
 Alpha virt. eigenvalues --    1.29180   1.38365   1.43805   1.52853   1.57531
 Alpha virt. eigenvalues --    1.62815   1.68827   1.85136   1.90997   1.93512
 Alpha virt. eigenvalues --    1.98219   2.03227   2.07576   2.11713   2.20781
 Alpha virt. eigenvalues --    2.28172   2.31253   2.41561   2.50429   2.93153
 Alpha virt. eigenvalues --    3.06568   3.24270   3.31625   3.54191   5.81212
 Alpha virt. eigenvalues --    5.83821   5.85404   5.86302   5.87077   5.88877
 Alpha virt. eigenvalues --    5.90666   5.91295   5.91899   5.94154   5.98232
 Alpha virt. eigenvalues --    6.01999   6.04634   6.11676   6.67781
  Beta  occ. eigenvalues --  -75.92738 -21.15955 -21.10782 -21.10724 -13.54929
  Beta  occ. eigenvalues --  -13.42398 -13.26672  -8.27454  -1.89693  -1.72631
  Beta  occ. eigenvalues --   -1.67845  -0.92171  -0.67416  -0.59181  -0.58265
  Beta  occ. eigenvalues --   -0.46367  -0.43288  -0.41207  -0.39658  -0.39246
  Beta virt. eigenvalues --    0.01273   0.05453   0.08919   0.09399   0.10155
  Beta virt. eigenvalues --    0.16488   0.18542   0.19354   0.20559   0.21499
  Beta virt. eigenvalues --    0.21822   0.23515   0.24631   0.26459   0.26855
  Beta virt. eigenvalues --    0.27521   0.30362   0.31851   0.33268   0.35518
  Beta virt. eigenvalues --    0.36702   0.38735   0.44187   0.46904   0.48624
  Beta virt. eigenvalues --    0.53612   0.59114   0.62416   0.64404   0.65186
  Beta virt. eigenvalues --    0.81226   0.83080   0.86342   0.87582   0.88395
  Beta virt. eigenvalues --    0.89780   0.95483   0.97130   0.98776   1.01715
  Beta virt. eigenvalues --    1.04118   1.06261   1.18313   1.20874   1.23552
  Beta virt. eigenvalues --    1.26293   1.31397   1.40749   1.45638   1.53651
  Beta virt. eigenvalues --    1.58208   1.63214   1.69516   1.85715   1.94120
  Beta virt. eigenvalues --    1.97283   1.99213   2.06074   2.11612   2.13784
  Beta virt. eigenvalues --    2.22275   2.28756   2.32657   2.43039   2.51085
  Beta virt. eigenvalues --    2.93760   3.08242   3.25743   3.33479   3.54300
  Beta virt. eigenvalues --    5.84108   5.85479   5.87341   5.87969   5.89819
  Beta virt. eigenvalues --    5.91641   5.92576   5.93556   5.94731   5.96088
  Beta virt. eigenvalues --    6.00013   6.02946   6.06155   6.13650   6.68529
          Condensed to atoms (all electrons):
          Atomic-Atomic Spin Densities.
 Mulliken charges and spin densities:
               1          2
     1  S    5.511764   0.492063
     2  O   -2.200064   0.083184
     3  O   -2.116741   0.211601
     4  O   -2.111632   0.244740
     5  H    0.916674  -0.031587
 Sum of Mulliken charges =   0.00000   1.00000
 Mulliken charges and spin densities with hydrogens summed into heavy atoms:
               1          2
     1  S    5.511764   0.492063
     2  O   -1.283390   0.051596
     3  O   -2.116741   0.211601
     4  O   -2.111632   0.244740
 Electronic spatial extent (au):  <R**2>=            284.4190
 Charge=             -0.0000 electrons
 Dipole moment (field-independent basis, Debye):
    X=              1.6410    Y=             -0.2758    Z=              0.6165  Tot=              1.7746
                          Isotropic Fermi Contact Couplings
        Atom                 a.u.       MegaHertz       Gauss      10(-4) cm-1
     1  S(33)              1.08187     371.59473     132.59424     123.95066
     2  O(17)              0.07104     -43.06620     -15.36709     -14.36534
     3  O(17)              0.07894     -47.85172     -17.07468     -15.96162
     4  O(17)              0.08282     -50.20751     -17.91529     -16.74742
     5  H(1)              -0.00248     -11.09398      -3.95861      -3.70055
 --------------------------------------------------------
       Center         ----  Spin Dipole Couplings  ----
                      3XX-RR        3YY-RR        3ZZ-RR
 --------------------------------------------------------
     1   Atom       -0.135558     -0.133240      0.268798
     2   Atom       -0.036181     -0.086852      0.123033
     3   Atom       -0.403306     -0.273790      0.677095
     4   Atom       -0.372012     -0.365979      0.737990
     5   Atom        0.016306     -0.002386     -0.013920
 --------------------------------------------------------
                        XY            XZ            YZ
 --------------------------------------------------------
     1   Atom        0.002121      0.058384     -0.028274
     2   Atom       -0.150628     -0.246664      0.207909
     3   Atom        0.057397     -0.109911     -0.383233
     4   Atom        0.074775      0.289345      0.275097
     5   Atom        0.014372     -0.011230      0.004448
 --------------------------------------------------------


 ---------------------------------------------------------------------------------
              Anisotropic Spin Dipole Couplings in Principal Axis System
 ---------------------------------------------------------------------------------

       Atom             a.u.   MegaHertz   Gauss  10(-4) cm-1        Axes

              Baa    -0.1469    -6.023    -2.149    -2.009  0.8772 -0.4547 -0.1541
     1 S(33)  Bbb    -0.1320    -5.412    -1.931    -1.805  0.4596  0.8881 -0.0043
              Bcc     0.2789    11.435     4.080     3.814  0.1388 -0.0671  0.9880
 
              Baa    -0.2159    15.626     5.576     5.212  0.6828 -0.2861  0.6723
     2 O(17)  Bbb    -0.2142    15.497     5.530     5.169  0.5062  0.8487 -0.1530
              Bcc     0.4301   -31.123   -11.106   -10.382 -0.5268  0.4448  0.7243
 
              Baa    -0.4301    31.119    11.104    10.380  0.7659 -0.6273 -0.1411
     3 O(17)  Bbb    -0.3945    28.547    10.186     9.522  0.6353  0.7042  0.3170
              Bcc     0.8246   -59.667   -21.291   -19.903 -0.0995 -0.3324  0.9379
 
              Baa    -0.4462    32.287    11.521    10.770  0.9005 -0.4170 -0.1232
     4 O(17)  Bbb    -0.4282    30.981    11.055    10.334  0.3670  0.8809 -0.2989
              Bcc     0.8744   -63.269   -22.576   -21.104  0.2331  0.2239  0.9463
 
              Baa    -0.0223   -11.898    -4.246    -3.969  0.4028 -0.4666  0.7875
     5 H(1)   Bbb    -0.0034    -1.823    -0.650    -0.608 -0.2359  0.7784  0.5818
              Bcc     0.0257    13.721     4.896     4.577  0.8844  0.4201 -0.2034
 

 ---------------------------------------------------------------------------------


 Test job not archived.
 1\1\GINC-SE454\SP\UHF\Aug-CC-pVDZ\H1O3S1(2)\OHZDE\08-Apr-2025\0\\#t hf
  aug-cc-pvdz iop(5/13=1,5/36=2,99/5=2) pseudo=read geom=check guess=(r
 ead,tcheck) scf=(maxcycle=1)\\title\\0,2\S,0,-0.142855,0.066672,0.2539
 68\O,0,1.220508,-0.799484,-0.108017\O,0,0.069807,1.437927,-0.188172\O,
 0,-1.250026,-0.749908,-0.197072\H,0,1.963374,-0.175034,-0.1174\\Versio
 n=ES64L-G16RevC.01\State=2-A\HF=-623.7734216\S2=0.778879\S2-1=0.\S2A=0
 .750561\RMSD=5.431e-02\Dipole=0.6456283,-0.1085005,0.2425359\Quadrupol
 e=1.9462884,-2.2968603,0.350572,-0.1580129,-0.3813611,0.1343648\PG=C01
  [X(H1O3S1)]\\@


 WE TEND TO MEET ANY NEW SITUATION BY REORGANIZING. IT CAN BE A
 WONDERFUL METHOD FOR CREATING THE ILLUSION OF PROGRESS WHILE PRODUCING
 CONFUSION, INEFFICIENCY, AND DEMORALIZATION.
     -- PETRONIUS ARBITER, 210 B.C.
 Job cpu time:       0 days  0 hours  0 minutes 13.3 seconds.
 Elapsed time:       0 days  0 hours  0 minutes  1.5 seconds.
 File lengths (MBytes):  RWF=      6 Int=      0 D2E=      0 Chk=      3 Scr=      1
 Normal termination of Gaussian 16 at Tue Apr  8 22:47:30 2025.
