 Entering Gaussian System, Link 0=g16
 Input=BDE49_expt_1698_mol1.gjf
 Output=BDE49_expt_1698_mol1.log
 Initial command:
 /arc/software/Gaussian/g16.c01/l1.exe "/tmp/slurm/4842277/Gau-4055121.inp" -scrdir="/tmp/slurm/4842277/"
 Entering Link 1 = /arc/software/Gaussian/g16.c01/l1.exe PID=   4055122.
  
 Copyright (c) 1988-2019, Gaussian, Inc.  All Rights Reserved.
  
 This is part of the Gaussian(R) 16 program.  It is based on
 the Gaussian(R) 09 system (copyright 2009, Gaussian, Inc.),
 the Gaussian(R) 03 system (copyright 2003, Gaussian, Inc.),
 the Gaussian(R) 98 system (copyright 1998, Gaussian, Inc.),
 the Gaussian(R) 94 system (copyright 1995, Gaussian, Inc.),
 the Gaussian 92(TM) system (copyright 1992, Gaussian, Inc.),
 the Gaussian 90(TM) system (copyright 1990, Gaussian, Inc.),
 the Gaussian 88(TM) system (copyright 1988, Gaussian, Inc.),
 the Gaussian 86(TM) system (copyright 1986, Carnegie Mellon
 University), and the Gaussian 82(TM) system (copyright 1983,
 Carnegie Mellon University). Gaussian is a federally registered
 trademark of Gaussian, Inc.
  
 This software contains proprietary and confidential information,
 including trade secrets, belonging to Gaussian, Inc.
  
 This software is provided under written license and may be
 used, copied, transmitted, or stored only in accord with that
 written license.
  
 The following legend is applicable only to US Government
 contracts under FAR:
  
                    RESTRICTED RIGHTS LEGEND
  
 Use, reproduction and disclosure by the US Government is
 subject to restrictions as set forth in subparagraphs (a)
 and (c) of the Commercial Computer Software - Restricted
 Rights clause in FAR 52.227-19.
  
 Gaussian, Inc.
 340 Quinnipiac St., Bldg. 40, Wallingford CT 06492
  
  
 ---------------------------------------------------------------
 Warning -- This program may not be used in any manner that
 competes with the business of Gaussian, Inc. or will provide
 assistance to any competitor of Gaussian, Inc.  The licensee
 of this program is prohibited from giving any competitor of
 Gaussian, Inc. access to this program.  By using this program,
 the user acknowledges that Gaussian, Inc. is engaged in the
 business of creating and licensing software in the field of
 computational chemistry and represents and warrants to the
 licensee that it is not a competitor of Gaussian, Inc. and that
 it will not use this program in any manner prohibited above.
 ---------------------------------------------------------------
  

 Cite this work as:
 Gaussian 16, Revision C.01,
 M. J. Frisch, G. W. Trucks, H. B. Schlegel, G. E. Scuseria, 
 M. A. Robb, J. R. Cheeseman, G. Scalmani, V. Barone, 
 G. A. Petersson, H. Nakatsuji, X. Li, M. Caricato, A. V. Marenich, 
 J. Bloino, B. G. Janesko, R. Gomperts, B. Mennucci, H. P. Hratchian, 
 J. V. Ortiz, A. F. Izmaylov, J. L. Sonnenberg, D. Williams-Young, 
 F. Ding, F. Lipparini, F. Egidi, J. Goings, B. Peng, A. Petrone, 
 T. Henderson, D. Ranasinghe, V. G. Zakrzewski, J. Gao, N. Rega, 
 G. Zheng, W. Liang, M. Hada, M. Ehara, K. Toyota, R. Fukuda, 
 J. Hasegawa, M. Ishida, T. Nakajima, Y. Honda, O. Kitao, H. Nakai, 
 T. Vreven, K. Throssell, J. A. Montgomery, Jr., J. E. Peralta, 
 F. Ogliaro, M. J. Bearpark, J. J. Heyd, E. N. Brothers, K. N. Kudin, 
 V. N. Staroverov, T. A. Keith, R. Kobayashi, J. Normand, 
 K. Raghavachari, A. P. Rendell, J. C. Burant, S. S. Iyengar, 
 J. Tomasi, M. Cossi, J. M. Millam, M. Klene, C. Adamo, R. Cammi, 
 J. W. Ochterski, R. L. Martin, K. Morokuma, O. Farkas, 
 J. B. Foresman, and D. J. Fox, Gaussian, Inc., Wallingford CT, 2019.
 
 ******************************************
 Gaussian 16:  ES64L-G16RevC.01  3-Jul-2019
                 8-Apr-2025 
 ******************************************
 %nprocs=16
 Will use up to   16 processors via shared memory.
 %mem=30GB
 %chk=BDE49_expt_1698_mol1.chk
 ----------------------------------------------------------------------
 #t hf aug-cc-pvdz symm=none int=(grid=ultrafine) guess=(read,tcheck) s
 table=(opt,rrhf)
 ----------------------------------------------------------------------
 -----
 title
 -----
 Symbolic Z-matrix:
 Charge =  0 Multiplicity = 1
 C                    -0.83943   0.00001  -1.08726 
 C                    -2.20648   0.00001  -1.33127 
 C                    -3.11072   0.       -0.26753 
 C                    -2.64109  -0.00001   1.04181 
 C                    -1.2694   -0.00001   1.28932 
 C                    -0.36374  0.         0.22754 
 H                    -0.13705   0.00002  -1.91231 
 H                    -2.57019   0.00002  -2.35224 
 C                     1.10368  0.         0.53413 
 H                    -0.90502  -0.00002   2.31112 
 Cl                    1.93528   1.48017  -0.1029 
 Cl                    1.93528  -1.48017  -0.10292 
 H                     1.2907   -0.00001   1.60204 
 H                    -3.33783  -0.00001   1.87198 
 H                    -4.17705   0.       -0.46221 
 
                    Distance matrix (angstroms):
                    1          2          3          4          5
     1  C    0.000000
     2  C    1.388662   0.000000
     3  C    2.414695   1.396134   0.000000
     4  C    2.789082   2.412550   1.391013   0.000000
     5  C    2.415167   2.783094   2.411274   1.393848   0.000000
     6  C    1.398208   2.413625   2.791237   2.418553   1.395565
     7  H    1.083531   2.149460   3.398243   3.872610   3.395979
     8  H    2.143766   1.083826   2.153652   3.394797   3.866919
     9  C    2.530721   3.799585   4.289964   3.779028   2.490341
    10  H    3.399019   3.867921   3.393311   2.150608   1.084828
    11  Cl   3.295273   4.566611   5.261188   4.944136   3.794622
    12  Cl   3.295275   4.566612   5.261188   4.944134   3.794620
    13  H    3.430709   4.564487   4.782023   3.971503   2.579123
    14  H    3.872874   3.397165   2.151524   1.083798   2.148933
    15  H    3.395648   2.153692   1.083957   2.149712   3.394455
                    6          7          8          9         10
     6  C    0.000000
     7  H    2.151825   0.000000
     8  H    3.394662   2.472599   0.000000
     9  C    1.499100   2.743074   4.672093   0.000000
    10  H    2.152742   4.292688   4.951747   2.681895   0.000000
    11  Cl   2.754190   3.123996   5.248778   1.813358   4.010701
    12  Cl   2.754190   3.124000   5.248780   1.813358   4.010698
    13  H    2.150907   3.793298   5.526556   1.084164   2.307369
    14  H    3.398444   4.956398   4.293404   4.638626   2.472134
    15  H    3.875192   4.292367   2.480766   5.373897   4.289244
                   11         12         13         14         15
    11  Cl   0.000000
    12  Cl   2.960332   0.000000
    13  H    2.348025   2.348025   0.000000
    14  H    5.822095   5.822092   4.636394   0.000000
    15  H    6.299251   6.299251   5.844433   2.480472   0.000000
 Symmetry turned off by external request.
 Rotational constants (GHZ):           2.0357264           0.7260433           0.6700242
   269 basis functions,   529 primitive gaussians,   287 cartesian basis functions
    41 alpha electrons       41 beta electrons
       nuclear repulsion energy       555.2040017766 Hartrees.
 NAtoms=   15 NActive=   15 NUniq=   15 SFac= 1.00D+00 NAtFMM=   60 NAOKFM=F Big=F
 ExpMin= 2.97D-02 ExpMax= 1.28D+05 ExpMxC= 1.24D+03 IAcc=3 IRadAn=         5 AccDes= 0.00D+00
 Harris functional with IExCor=  205 and IRadAn=       5 diagonalized for initial guess.
 HarFok:  IExCor=  205 AccDes= 0.00D+00 IRadAn=         5 IDoV= 1 UseB2=F ITyADJ=14
 ICtDFT=  3500011 ScaDFX=  1.000000  1.000000  1.000000  1.000000
 FoFCou: FMM=F IPFlag=           0 FMFlag=      100000 FMFlg1=           0
         NFxFlg=           0 DoJE=T BraDBF=F KetDBF=T FulRan=T
         wScrn=  0.000000 ICntrl=       500 IOpCl=  0 I1Cent=   200000004 NGrid=           0
         NMat0=    1 NMatS0=      1 NMatT0=    0 NMatD0=    1 NMtDS0=    0 NMtDT0=    0
 Symmetry not used in FoFCou.
 SCF Done:  E(RHF) =  -1187.60846223     A.U. after   15 cycles
            NFock= 15  Conv=0.95D-08     -V/T= 2.0002

 **********************************************************************

            Population analysis using the SCF Density.

 **********************************************************************

 Alpha  occ. eigenvalues -- -104.84180-104.84180 -11.38245 -11.27244 -11.26306
 Alpha  occ. eigenvalues --  -11.25851 -11.25821 -11.25661 -11.25573 -10.56757
 Alpha  occ. eigenvalues --  -10.56757  -8.03517  -8.03517  -8.03184  -8.03184
 Alpha  occ. eigenvalues --   -8.03181  -8.03181  -1.20587  -1.15907  -1.08743
 Alpha  occ. eigenvalues --   -1.04517  -1.03582  -0.90935  -0.84970  -0.81053
 Alpha  occ. eigenvalues --   -0.71987  -0.67532  -0.65207  -0.61516  -0.60539
 Alpha  occ. eigenvalues --   -0.59110  -0.59058  -0.52767  -0.51391  -0.51206
 Alpha  occ. eigenvalues --   -0.46706  -0.46497  -0.44630  -0.43931  -0.35395
 Alpha  occ. eigenvalues --   -0.34812
 Alpha virt. eigenvalues --    0.03140   0.03765   0.04518   0.05516   0.06322
 Alpha virt. eigenvalues --    0.07730   0.07981   0.08544   0.09411   0.09790
 Alpha virt. eigenvalues --    0.11397   0.11864   0.12768   0.13300   0.13794
 Alpha virt. eigenvalues --    0.14213   0.14637   0.15289   0.15727   0.16048
 Alpha virt. eigenvalues --    0.16320   0.16698   0.17104   0.17756   0.17936
 Alpha virt. eigenvalues --    0.18374   0.18752   0.18944   0.20435   0.20980
 Alpha virt. eigenvalues --    0.21027   0.21562   0.22505   0.24436   0.24512
 Alpha virt. eigenvalues --    0.24952   0.25557   0.26153   0.29105   0.30397
 Alpha virt. eigenvalues --    0.31375   0.31973   0.32488   0.32841   0.33138
 Alpha virt. eigenvalues --    0.34359   0.35276   0.35541   0.36099   0.36923
 Alpha virt. eigenvalues --    0.37820   0.37939   0.38481   0.40786   0.41444
 Alpha virt. eigenvalues --    0.41564   0.42044   0.44569   0.44835   0.45037
 Alpha virt. eigenvalues --    0.45252   0.45785   0.47694   0.49680   0.49736
 Alpha virt. eigenvalues --    0.50753   0.52818   0.53795   0.53901   0.55245
 Alpha virt. eigenvalues --    0.56576   0.57011   0.57951   0.58706   0.58773
 Alpha virt. eigenvalues --    0.59799   0.60105   0.60960   0.61357   0.63178
 Alpha virt. eigenvalues --    0.64229   0.65512   0.66452   0.66925   0.67874
 Alpha virt. eigenvalues --    0.68147   0.68333   0.69294   0.70827   0.71131
 Alpha virt. eigenvalues --    0.71401   0.72583   0.73264   0.74482   0.75653
 Alpha virt. eigenvalues --    0.76436   0.76823   0.79573   0.79903   0.81523
 Alpha virt. eigenvalues --    0.83493   0.84974   0.85094   0.86004   0.87243
 Alpha virt. eigenvalues --    0.87527   0.88838   0.91374   0.91644   0.92403
 Alpha virt. eigenvalues --    0.93191   0.93903   0.94660   0.95868   0.96682
 Alpha virt. eigenvalues --    0.97210   0.98020   0.99463   1.01444   1.01940
 Alpha virt. eigenvalues --    1.03061   1.03959   1.04382   1.07644   1.09827
 Alpha virt. eigenvalues --    1.10957   1.12077   1.13886   1.16762   1.16896
 Alpha virt. eigenvalues --    1.18284   1.19561   1.21599   1.22546   1.22907
 Alpha virt. eigenvalues --    1.25779   1.32601   1.36726   1.36891   1.40899
 Alpha virt. eigenvalues --    1.43219   1.43412   1.45204   1.46175   1.48586
 Alpha virt. eigenvalues --    1.49299   1.50287   1.51420   1.51433   1.52513
 Alpha virt. eigenvalues --    1.53084   1.55667   1.56415   1.56621   1.57836
 Alpha virt. eigenvalues --    1.60027   1.61209   1.62495   1.62904   1.64486
 Alpha virt. eigenvalues --    1.66411   1.69109   1.71690   1.72018   1.72716
 Alpha virt. eigenvalues --    1.72916   1.74132   1.77130   1.77760   1.79421
 Alpha virt. eigenvalues --    1.81991   1.84239   1.87137   1.87884   1.91718
 Alpha virt. eigenvalues --    1.92007   1.92969   1.94126   1.95062   1.96238
 Alpha virt. eigenvalues --    1.96319   1.97854   1.98443   2.04349   2.09907
 Alpha virt. eigenvalues --    2.09978   2.10408   2.12567   2.15007   2.15308
 Alpha virt. eigenvalues --    2.19242   2.19942   2.24271   2.25223   2.26503
 Alpha virt. eigenvalues --    2.27198   2.27917   2.31271   2.34898   2.36439
 Alpha virt. eigenvalues --    2.36871   2.36876   2.41177   2.42398   2.43570
 Alpha virt. eigenvalues --    2.44984   2.49996   2.52319   2.62814   2.65418
 Alpha virt. eigenvalues --    2.70591   2.79630   2.80029   2.81159   2.83082
 Alpha virt. eigenvalues --    2.90928   2.96935   2.99092   3.03587   3.13247
 Alpha virt. eigenvalues --    3.15765   3.25262   3.28214   3.37032   3.60469
 Alpha virt. eigenvalues --    3.67341   3.86286   4.76031
          Condensed to atoms (all electrons):
 Mulliken charges:
               1
     1  C   -0.221457
     2  C    0.640159
     3  C    0.243194
     4  C    0.644574
     5  C    0.031132
     6  C    1.967128
     7  H   -0.495965
     8  H   -0.432846
     9  C   -0.590812
    10  H   -0.576982
    11  Cl  -0.065262
    12  Cl  -0.065262
    13  H   -0.206536
    14  H   -0.439863
    15  H   -0.431202
 Sum of Mulliken charges =  -0.00000
 Mulliken charges with hydrogens summed into heavy atoms:
               1
     1  C   -0.717421
     2  C    0.207313
     3  C   -0.188008
     4  C    0.204711
     5  C   -0.545850
     6  C    1.967128
     9  C   -0.797348
    11  Cl  -0.065262
    12  Cl  -0.065262
 Electronic spatial extent (au):  <R**2>=           1749.3779
 Charge=             -0.0000 electrons
 Dipole moment (field-independent basis, Debye):
    X=             -2.5024    Y=             -0.0000    Z=              0.9121  Tot=              2.6634
 NROrb=    269 NOA=    41 NOB=    41 NVA=   228 NVB=   228

 **** Warning!!: The largest alpha MO coefficient is  0.12804910D+03

    12 initial guesses have been made.
 Iteration     1 Dimension    12 NMult     0 NNew     12
 New state      1 was old state      2
 Iteration     2 Dimension    24 NMult    12 NNew     12
 Iteration     3 Dimension    27 NMult    24 NNew      3
 Iteration     4 Dimension    30 NMult    27 NNew      3
 Iteration     5 Dimension    33 NMult    30 NNew      3
 Iteration     6 Dimension    36 NMult    33 NNew      3
 ***********************************************************************
 Stability analysis using <AA,BB:AA,BB> singles matrix:
 ***********************************************************************
 Ground to excited state transition densities written to RWF  633

 Eigenvectors of the stability matrix:
 
 Excited state symmetry could not be determined.
 Eigenvector   1:      Singlet-?Sym  Eigenvalue= 0.1668199  <S**2>=0.000
      40 -> 48        -0.42696
      40 -> 49         0.11453
      40 -> 51        -0.15802
      41 -> 49         0.17057
      41 -> 51         0.39011
      41 -> 62         0.14024
 The wavefunction is stable under the perturbations considered.
 The wavefunction is already stable.

 **********************************************************************

            Population analysis using the SCF Density.

 **********************************************************************

 Alpha  occ. eigenvalues -- -104.84180-104.84180 -11.38245 -11.27244 -11.26306
 Alpha  occ. eigenvalues --  -11.25851 -11.25821 -11.25661 -11.25573 -10.56757
 Alpha  occ. eigenvalues --  -10.56757  -8.03517  -8.03517  -8.03184  -8.03184
 Alpha  occ. eigenvalues --   -8.03181  -8.03181  -1.20587  -1.15907  -1.08743
 Alpha  occ. eigenvalues --   -1.04517  -1.03582  -0.90935  -0.84970  -0.81053
 Alpha  occ. eigenvalues --   -0.71987  -0.67532  -0.65207  -0.61516  -0.60539
 Alpha  occ. eigenvalues --   -0.59110  -0.59058  -0.52767  -0.51391  -0.51206
 Alpha  occ. eigenvalues --   -0.46706  -0.46497  -0.44630  -0.43931  -0.35395
 Alpha  occ. eigenvalues --   -0.34812
 Alpha virt. eigenvalues --    0.03140   0.03765   0.04518   0.05516   0.06322
 Alpha virt. eigenvalues --    0.07730   0.07981   0.08544   0.09411   0.09790
 Alpha virt. eigenvalues --    0.11397   0.11864   0.12768   0.13300   0.13794
 Alpha virt. eigenvalues --    0.14213   0.14637   0.15289   0.15727   0.16048
 Alpha virt. eigenvalues --    0.16320   0.16698   0.17104   0.17756   0.17936
 Alpha virt. eigenvalues --    0.18374   0.18752   0.18944   0.20435   0.20980
 Alpha virt. eigenvalues --    0.21027   0.21562   0.22505   0.24436   0.24512
 Alpha virt. eigenvalues --    0.24952   0.25557   0.26153   0.29105   0.30397
 Alpha virt. eigenvalues --    0.31375   0.31973   0.32488   0.32841   0.33138
 Alpha virt. eigenvalues --    0.34359   0.35276   0.35541   0.36099   0.36923
 Alpha virt. eigenvalues --    0.37820   0.37939   0.38481   0.40786   0.41444
 Alpha virt. eigenvalues --    0.41564   0.42044   0.44569   0.44835   0.45037
 Alpha virt. eigenvalues --    0.45252   0.45785   0.47694   0.49680   0.49736
 Alpha virt. eigenvalues --    0.50753   0.52818   0.53795   0.53901   0.55245
 Alpha virt. eigenvalues --    0.56576   0.57011   0.57951   0.58706   0.58773
 Alpha virt. eigenvalues --    0.59799   0.60105   0.60960   0.61357   0.63178
 Alpha virt. eigenvalues --    0.64229   0.65512   0.66452   0.66925   0.67874
 Alpha virt. eigenvalues --    0.68147   0.68333   0.69294   0.70827   0.71131
 Alpha virt. eigenvalues --    0.71401   0.72583   0.73264   0.74482   0.75653
 Alpha virt. eigenvalues --    0.76436   0.76823   0.79573   0.79903   0.81523
 Alpha virt. eigenvalues --    0.83493   0.84974   0.85094   0.86004   0.87243
 Alpha virt. eigenvalues --    0.87527   0.88838   0.91374   0.91644   0.92403
 Alpha virt. eigenvalues --    0.93191   0.93903   0.94660   0.95868   0.96682
 Alpha virt. eigenvalues --    0.97210   0.98020   0.99463   1.01444   1.01940
 Alpha virt. eigenvalues --    1.03061   1.03959   1.04382   1.07644   1.09827
 Alpha virt. eigenvalues --    1.10957   1.12077   1.13886   1.16762   1.16896
 Alpha virt. eigenvalues --    1.18284   1.19561   1.21599   1.22546   1.22907
 Alpha virt. eigenvalues --    1.25779   1.32601   1.36726   1.36891   1.40899
 Alpha virt. eigenvalues --    1.43219   1.43412   1.45204   1.46175   1.48586
 Alpha virt. eigenvalues --    1.49299   1.50287   1.51420   1.51433   1.52513
 Alpha virt. eigenvalues --    1.53084   1.55667   1.56415   1.56621   1.57836
 Alpha virt. eigenvalues --    1.60027   1.61209   1.62495   1.62904   1.64486
 Alpha virt. eigenvalues --    1.66411   1.69109   1.71690   1.72018   1.72716
 Alpha virt. eigenvalues --    1.72916   1.74132   1.77130   1.77760   1.79421
 Alpha virt. eigenvalues --    1.81991   1.84239   1.87137   1.87884   1.91718
 Alpha virt. eigenvalues --    1.92007   1.92969   1.94126   1.95062   1.96238
 Alpha virt. eigenvalues --    1.96319   1.97854   1.98443   2.04349   2.09907
 Alpha virt. eigenvalues --    2.09978   2.10408   2.12567   2.15007   2.15308
 Alpha virt. eigenvalues --    2.19242   2.19942   2.24271   2.25223   2.26503
 Alpha virt. eigenvalues --    2.27198   2.27917   2.31271   2.34898   2.36439
 Alpha virt. eigenvalues --    2.36871   2.36876   2.41177   2.42398   2.43570
 Alpha virt. eigenvalues --    2.44984   2.49996   2.52319   2.62814   2.65418
 Alpha virt. eigenvalues --    2.70591   2.79630   2.80029   2.81159   2.83082
 Alpha virt. eigenvalues --    2.90928   2.96935   2.99092   3.03587   3.13247
 Alpha virt. eigenvalues --    3.15765   3.25262   3.28214   3.37032   3.60469
 Alpha virt. eigenvalues --    3.67341   3.86286   4.76031
          Condensed to atoms (all electrons):
 Mulliken charges:
               1
     1  C   -0.221457
     2  C    0.640159
     3  C    0.243194
     4  C    0.644574
     5  C    0.031132
     6  C    1.967128
     7  H   -0.495965
     8  H   -0.432846
     9  C   -0.590812
    10  H   -0.576982
    11  Cl  -0.065262
    12  Cl  -0.065262
    13  H   -0.206536
    14  H   -0.439863
    15  H   -0.431202
 Sum of Mulliken charges =  -0.00000
 Mulliken charges with hydrogens summed into heavy atoms:
               1
     1  C   -0.717421
     2  C    0.207313
     3  C   -0.188008
     4  C    0.204711
     5  C   -0.545850
     6  C    1.967128
     9  C   -0.797348
    11  Cl  -0.065262
    12  Cl  -0.065262
 Electronic spatial extent (au):  <R**2>=           1749.3779
 Charge=             -0.0000 electrons
 Dipole moment (field-independent basis, Debye):
    X=             -2.5024    Y=             -0.0000    Z=              0.9121  Tot=              2.6634
 Unable to Open any file for archive entry.
 1\1\GINC-SE227\Stability\RHF\Aug-CC-pVDZ\C7H6Cl2\OHZDE\08-Apr-2025\0\\
 #t hf aug-cc-pvdz symm=none int=(grid=ultrafine) guess=(read,tcheck) s
 table=(opt,rrhf)\\title\\0,1\C,0,-0.839425,0.000008,-1.087263\C,0,-2.2
 06482,0.00001,-1.331266\C,0,-3.11072,0.000002,-0.267525\C,0,-2.641094,
 -0.000008,1.041814\C,0,-1.269397,-0.000009,1.289322\C,0,-0.363737,-0.0
 00001,0.22754\H,0,-0.137046,0.000015,-1.912311\H,0,-2.570193,0.000017,
 -2.352243\C,0,1.103677,-0.000003,0.534127\H,0,-0.905015,-0.000016,2.31
 1123\Cl,0,1.93528,1.480166,-0.1029\Cl,0,1.935279,-1.480166,-0.102916\H
 ,0,1.290697,-0.000009,1.602039\H,0,-3.337832,-0.000014,1.871979\H,0,-4
 .17705,0.000003,-0.462214\\Version=ES64L-G16RevC.01\HF=-1187.6084622\R
 MSD=9.472e-09\Dipole=-0.9845217,-0.0000011,0.3588399\Quadrupole=0.8883
 641,-5.5153629,4.6269989,-0.000001,0.9563161,-0.0000686\PG=Unknown\\@
 The archive entry for this job was punched.


 DO YOU KNOW THAT THE LETTERS IN "EPISCOPAL", WHEN
 REARRANGED, SPELL "PEPSI COLA"?
 Job cpu time:       0 days  0 hours 14 minutes 35.8 seconds.
 Elapsed time:       0 days  0 hours  1 minutes  1.3 seconds.
 File lengths (MBytes):  RWF=    389 Int=      0 D2E=      0 Chk=     11 Scr=      1
 Normal termination of Gaussian 16 at Tue Apr  8 22:51:29 2025.
 Initial command:
 /arc/software/Gaussian/g16.c01/l1.exe "/tmp/slurm/4842277/Gau-4055121.inp" -scrdir="/tmp/slurm/4842277/"
 Entering Link 1 = /arc/software/Gaussian/g16.c01/l1.exe PID=   4055691.
  
 Copyright (c) 1988-2019, Gaussian, Inc.  All Rights Reserved.
  
 This is part of the Gaussian(R) 16 program.  It is based on
 the Gaussian(R) 09 system (copyright 2009, Gaussian, Inc.),
 the Gaussian(R) 03 system (copyright 2003, Gaussian, Inc.),
 the Gaussian(R) 98 system (copyright 1998, Gaussian, Inc.),
 the Gaussian(R) 94 system (copyright 1995, Gaussian, Inc.),
 the Gaussian 92(TM) system (copyright 1992, Gaussian, Inc.),
 the Gaussian 90(TM) system (copyright 1990, Gaussian, Inc.),
 the Gaussian 88(TM) system (copyright 1988, Gaussian, Inc.),
 the Gaussian 86(TM) system (copyright 1986, Carnegie Mellon
 University), and the Gaussian 82(TM) system (copyright 1983,
 Carnegie Mellon University). Gaussian is a federally registered
 trademark of Gaussian, Inc.
  
 This software contains proprietary and confidential information,
 including trade secrets, belonging to Gaussian, Inc.
  
 This software is provided under written license and may be
 used, copied, transmitted, or stored only in accord with that
 written license.
  
 The following legend is applicable only to US Government
 contracts under FAR:
  
                    RESTRICTED RIGHTS LEGEND
  
 Use, reproduction and disclosure by the US Government is
 subject to restrictions as set forth in subparagraphs (a)
 and (c) of the Commercial Computer Software - Restricted
 Rights clause in FAR 52.227-19.
  
 Gaussian, Inc.
 340 Quinnipiac St., Bldg. 40, Wallingford CT 06492
  
  
 ---------------------------------------------------------------
 Warning -- This program may not be used in any manner that
 competes with the business of Gaussian, Inc. or will provide
 assistance to any competitor of Gaussian, Inc.  The licensee
 of this program is prohibited from giving any competitor of
 Gaussian, Inc. access to this program.  By using this program,
 the user acknowledges that Gaussian, Inc. is engaged in the
 business of creating and licensing software in the field of
 computational chemistry and represents and warrants to the
 licensee that it is not a competitor of Gaussian, Inc. and that
 it will not use this program in any manner prohibited above.
 ---------------------------------------------------------------
  

 Cite this work as:
 Gaussian 16, Revision C.01,
 M. J. Frisch, G. W. Trucks, H. B. Schlegel, G. E. Scuseria, 
 M. A. Robb, J. R. Cheeseman, G. Scalmani, V. Barone, 
 G. A. Petersson, H. Nakatsuji, X. Li, M. Caricato, A. V. Marenich, 
 J. Bloino, B. G. Janesko, R. Gomperts, B. Mennucci, H. P. Hratchian, 
 J. V. Ortiz, A. F. Izmaylov, J. L. Sonnenberg, D. Williams-Young, 
 F. Ding, F. Lipparini, F. Egidi, J. Goings, B. Peng, A. Petrone, 
 T. Henderson, D. Ranasinghe, V. G. Zakrzewski, J. Gao, N. Rega, 
 G. Zheng, W. Liang, M. Hada, M. Ehara, K. Toyota, R. Fukuda, 
 J. Hasegawa, M. Ishida, T. Nakajima, Y. Honda, O. Kitao, H. Nakai, 
 T. Vreven, K. Throssell, J. A. Montgomery, Jr., J. E. Peralta, 
 F. Ogliaro, M. J. Bearpark, J. J. Heyd, E. N. Brothers, K. N. Kudin, 
 V. N. Staroverov, T. A. Keith, R. Kobayashi, J. Normand, 
 K. Raghavachari, A. P. Rendell, J. C. Burant, S. S. Iyengar, 
 J. Tomasi, M. Cossi, J. M. Millam, M. Klene, C. Adamo, R. Cammi, 
 J. W. Ochterski, R. L. Martin, K. Morokuma, O. Farkas, 
 J. B. Foresman, and D. J. Fox, Gaussian, Inc., Wallingford CT, 2019.
 
 ******************************************
 Gaussian 16:  ES64L-G16RevC.01  3-Jul-2019
                 8-Apr-2025 
 ******************************************
 %nprocs=16
 Will use up to   16 processors via shared memory.
 %mem=30GB
 %chk=BDE49_expt_1698_mol1.chk
 ----------------------------------------------------------------------
 #t hf aug-cc-pvdz iop(5/13=1,5/36=2,99/5=2) pseudo=read geom=check gue
 ss=(read,tcheck) scf=(maxcycle=1)
 ----------------------------------------------------------------------
 -----
 title
 -----
 Structure from the checkpoint file:  "BDE49_expt_1698_mol1.chk"
 Charge =  0 Multiplicity = 1
 Z-Matrix found in chk file.
 C,0,-0.839425,0.000008,-1.087263
 C,0,-2.206482,0.00001,-1.331266
 C,0,-3.11072,0.000002,-0.267525
 C,0,-2.641094,-0.000008,1.041814
 C,0,-1.269397,-0.000009,1.289322
 C,0,-0.363737,-0.000001,0.22754
 H,0,-0.137046,0.000015,-1.912311
 H,0,-2.570193,0.000017,-2.352243
 C,0,1.103677,-0.000003,0.534127
 H,0,-0.905015,-0.000016,2.311123
 Cl,0,1.93528,1.480166,-0.1029
 Cl,0,1.935279,-1.480166,-0.102916
 H,0,1.290697,-0.000009,1.602039
 H,0,-3.337832,-0.000014,1.871979
 H,0,-4.17705,0.000003,-0.462214
 Recover connectivity data from disk.
                    Distance matrix (angstroms):
                    1          2          3          4          5
     1  C    0.000000
     2  C    1.388662   0.000000
     3  C    2.414695   1.396134   0.000000
     4  C    2.789082   2.412550   1.391013   0.000000
     5  C    2.415167   2.783094   2.411274   1.393848   0.000000
     6  C    1.398208   2.413625   2.791237   2.418553   1.395565
     7  H    1.083531   2.149460   3.398243   3.872610   3.395979
     8  H    2.143766   1.083826   2.153652   3.394797   3.866919
     9  C    2.530721   3.799585   4.289964   3.779028   2.490341
    10  H    3.399019   3.867921   3.393311   2.150608   1.084828
    11  Cl   3.295273   4.566611   5.261188   4.944136   3.794622
    12  Cl   3.295275   4.566612   5.261188   4.944134   3.794620
    13  H    3.430709   4.564487   4.782023   3.971503   2.579123
    14  H    3.872874   3.397165   2.151524   1.083798   2.148933
    15  H    3.395648   2.153692   1.083957   2.149712   3.394455
                    6          7          8          9         10
     6  C    0.000000
     7  H    2.151825   0.000000
     8  H    3.394662   2.472599   0.000000
     9  C    1.499100   2.743074   4.672093   0.000000
    10  H    2.152742   4.292688   4.951747   2.681895   0.000000
    11  Cl   2.754190   3.123996   5.248778   1.813358   4.010701
    12  Cl   2.754190   3.124000   5.248780   1.813358   4.010698
    13  H    2.150907   3.793298   5.526556   1.084164   2.307369
    14  H    3.398444   4.956398   4.293404   4.638626   2.472134
    15  H    3.875192   4.292367   2.480766   5.373897   4.289244
                   11         12         13         14         15
    11  Cl   0.000000
    12  Cl   2.960332   0.000000
    13  H    2.348025   2.348025   0.000000
    14  H    5.822095   5.822092   4.636394   0.000000
    15  H    6.299251   6.299251   5.844433   2.480472   0.000000
 Framework group  C1[X(C7H6Cl2)]
 Deg. of freedom    39
                         Standard orientation:                         
 ---------------------------------------------------------------------
 Center     Atomic      Atomic             Coordinates (Angstroms)
 Number     Number       Type             X           Y           Z
 ---------------------------------------------------------------------
      1          6           0       -0.839425    0.000008   -1.087263
      2          6           0       -2.206482    0.000010   -1.331266
      3          6           0       -3.110720    0.000002   -0.267525
      4          6           0       -2.641094   -0.000008    1.041814
      5          6           0       -1.269397   -0.000009    1.289322
      6          6           0       -0.363737   -0.000001    0.227540
      7          1           0       -0.137046    0.000015   -1.912311
      8          1           0       -2.570193    0.000017   -2.352243
      9          6           0        1.103677   -0.000003    0.534127
     10          1           0       -0.905015   -0.000016    2.311123
     11         17           0        1.935280    1.480166   -0.102900
     12         17           0        1.935279   -1.480166   -0.102916
     13          1           0        1.290697   -0.000009    1.602039
     14          1           0       -3.337832   -0.000014    1.871979
     15          1           0       -4.177050    0.000003   -0.462214
 ---------------------------------------------------------------------
 Rotational constants (GHZ):           2.0357264           0.7260433           0.6700242
 ======================================================================================================
                                       Pseudopotential Parameters
 ======================================================================================================
  Center     Atomic      Valence      Angular      Power
  Number     Number     Electrons     Momentum     of R      Exponent        Coefficient   SO-Coeffient
 ======================================================================================================
    1          6            6
                                      G and up 
                                                     0        0.0000010       -0.00286759    0.00000000
                                                     2        0.1200000        0.03193960    0.00000000
                                                     2        0.1600000       -0.04027782    0.00000000
                                                     2        0.2600000        0.24782456    0.00000000
                                                     2        0.4000000       -0.62266671    0.00000000
                                                     2        0.7000000        0.35695227    0.00000000
                                      S - G
                                                     0        0.0000010       -0.06602313    0.00000000
                                                     2        0.1200000        1.47277455    0.00000000
                                                     2        0.1600000       -4.06924166    0.00000000
                                                     2        0.3000000        5.02952802    0.00000000
                                                     2        0.7000000       -5.65856978    0.00000000
                                                     2        1.7000000        8.57604414    0.00000000
                                      P - G
                                                     0        0.0000010        0.49434425    0.00000000
                                                     2        0.1200000       -1.37391547    0.00000000
                                                     2        0.1600000        3.65411806    0.00000000
                                                     2        0.2800000       -7.36479843    0.00000000
                                                     2        0.6000000       17.22091285    0.00000000
                                                     2        1.1000000      -23.50107827    0.00000000
                                                     2        3.0000000       16.29464063    0.00000000
                                      D - G
                                                     0        0.0000010       -0.28693103    0.00000000
                                                     2        0.1200000        0.12273044    0.00000000
                                                     2        0.3000000       -0.43416384    0.00000000
                                                     2        0.7000000        2.23358493    0.00000000
                                      F - G
                                                     0        0.0000010        0.07263570    0.00000000
                                                     2        0.1400000       -0.76152861    0.00000000
                                                     2        0.2200000        1.98045593    0.00000000
                                                     2        0.4000000       -2.42426427    0.00000000
                                                     2        0.7000000        0.52335237    0.00000000
    2          6            6
                                      G and up 
                                                     0        0.0000010       -0.00286759    0.00000000
                                                     2        0.1200000        0.03193960    0.00000000
                                                     2        0.1600000       -0.04027782    0.00000000
                                                     2        0.2600000        0.24782456    0.00000000
                                                     2        0.4000000       -0.62266671    0.00000000
                                                     2        0.7000000        0.35695227    0.00000000
                                      S - G
                                                     0        0.0000010       -0.06602313    0.00000000
                                                     2        0.1200000        1.47277455    0.00000000
                                                     2        0.1600000       -4.06924166    0.00000000
                                                     2        0.3000000        5.02952802    0.00000000
                                                     2        0.7000000       -5.65856978    0.00000000
                                                     2        1.7000000        8.57604414    0.00000000
                                      P - G
                                                     0        0.0000010        0.49434425    0.00000000
                                                     2        0.1200000       -1.37391547    0.00000000
                                                     2        0.1600000        3.65411806    0.00000000
                                                     2        0.2800000       -7.36479843    0.00000000
                                                     2        0.6000000       17.22091285    0.00000000
                                                     2        1.1000000      -23.50107827    0.00000000
                                                     2        3.0000000       16.29464063    0.00000000
                                      D - G
                                                     0        0.0000010       -0.28693103    0.00000000
                                                     2        0.1200000        0.12273044    0.00000000
                                                     2        0.3000000       -0.43416384    0.00000000
                                                     2        0.7000000        2.23358493    0.00000000
                                      F - G
                                                     0        0.0000010        0.07263570    0.00000000
                                                     2        0.1400000       -0.76152861    0.00000000
                                                     2        0.2200000        1.98045593    0.00000000
                                                     2        0.4000000       -2.42426427    0.00000000
                                                     2        0.7000000        0.52335237    0.00000000
    3          6            6
                                      G and up 
                                                     0        0.0000010       -0.00286759    0.00000000
                                                     2        0.1200000        0.03193960    0.00000000
                                                     2        0.1600000       -0.04027782    0.00000000
                                                     2        0.2600000        0.24782456    0.00000000
                                                     2        0.4000000       -0.62266671    0.00000000
                                                     2        0.7000000        0.35695227    0.00000000
                                      S - G
                                                     0        0.0000010       -0.06602313    0.00000000
                                                     2        0.1200000        1.47277455    0.00000000
                                                     2        0.1600000       -4.06924166    0.00000000
                                                     2        0.3000000        5.02952802    0.00000000
                                                     2        0.7000000       -5.65856978    0.00000000
                                                     2        1.7000000        8.57604414    0.00000000
                                      P - G
                                                     0        0.0000010        0.49434425    0.00000000
                                                     2        0.1200000       -1.37391547    0.00000000
                                                     2        0.1600000        3.65411806    0.00000000
                                                     2        0.2800000       -7.36479843    0.00000000
                                                     2        0.6000000       17.22091285    0.00000000
                                                     2        1.1000000      -23.50107827    0.00000000
                                                     2        3.0000000       16.29464063    0.00000000
                                      D - G
                                                     0        0.0000010       -0.28693103    0.00000000
                                                     2        0.1200000        0.12273044    0.00000000
                                                     2        0.3000000       -0.43416384    0.00000000
                                                     2        0.7000000        2.23358493    0.00000000
                                      F - G
                                                     0        0.0000010        0.07263570    0.00000000
                                                     2        0.1400000       -0.76152861    0.00000000
                                                     2        0.2200000        1.98045593    0.00000000
                                                     2        0.4000000       -2.42426427    0.00000000
                                                     2        0.7000000        0.52335237    0.00000000
    4          6            6
                                      G and up 
                                                     0        0.0000010       -0.00286759    0.00000000
                                                     2        0.1200000        0.03193960    0.00000000
                                                     2        0.1600000       -0.04027782    0.00000000
                                                     2        0.2600000        0.24782456    0.00000000
                                                     2        0.4000000       -0.62266671    0.00000000
                                                     2        0.7000000        0.35695227    0.00000000
                                      S - G
                                                     0        0.0000010       -0.06602313    0.00000000
                                                     2        0.1200000        1.47277455    0.00000000
                                                     2        0.1600000       -4.06924166    0.00000000
                                                     2        0.3000000        5.02952802    0.00000000
                                                     2        0.7000000       -5.65856978    0.00000000
                                                     2        1.7000000        8.57604414    0.00000000
                                      P - G
                                                     0        0.0000010        0.49434425    0.00000000
                                                     2        0.1200000       -1.37391547    0.00000000
                                                     2        0.1600000        3.65411806    0.00000000
                                                     2        0.2800000       -7.36479843    0.00000000
                                                     2        0.6000000       17.22091285    0.00000000
                                                     2        1.1000000      -23.50107827    0.00000000
                                                     2        3.0000000       16.29464063    0.00000000
                                      D - G
                                                     0        0.0000010       -0.28693103    0.00000000
                                                     2        0.1200000        0.12273044    0.00000000
                                                     2        0.3000000       -0.43416384    0.00000000
                                                     2        0.7000000        2.23358493    0.00000000
                                      F - G
                                                     0        0.0000010        0.07263570    0.00000000
                                                     2        0.1400000       -0.76152861    0.00000000
                                                     2        0.2200000        1.98045593    0.00000000
                                                     2        0.4000000       -2.42426427    0.00000000
                                                     2        0.7000000        0.52335237    0.00000000
    5          6            6
                                      G and up 
                                                     0        0.0000010       -0.00286759    0.00000000
                                                     2        0.1200000        0.03193960    0.00000000
                                                     2        0.1600000       -0.04027782    0.00000000
                                                     2        0.2600000        0.24782456    0.00000000
                                                     2        0.4000000       -0.62266671    0.00000000
                                                     2        0.7000000        0.35695227    0.00000000
                                      S - G
                                                     0        0.0000010       -0.06602313    0.00000000
                                                     2        0.1200000        1.47277455    0.00000000
                                                     2        0.1600000       -4.06924166    0.00000000
                                                     2        0.3000000        5.02952802    0.00000000
                                                     2        0.7000000       -5.65856978    0.00000000
                                                     2        1.7000000        8.57604414    0.00000000
                                      P - G
                                                     0        0.0000010        0.49434425    0.00000000
                                                     2        0.1200000       -1.37391547    0.00000000
                                                     2        0.1600000        3.65411806    0.00000000
                                                     2        0.2800000       -7.36479843    0.00000000
                                                     2        0.6000000       17.22091285    0.00000000
                                                     2        1.1000000      -23.50107827    0.00000000
                                                     2        3.0000000       16.29464063    0.00000000
                                      D - G
                                                     0        0.0000010       -0.28693103    0.00000000
                                                     2        0.1200000        0.12273044    0.00000000
                                                     2        0.3000000       -0.43416384    0.00000000
                                                     2        0.7000000        2.23358493    0.00000000
                                      F - G
                                                     0        0.0000010        0.07263570    0.00000000
                                                     2        0.1400000       -0.76152861    0.00000000
                                                     2        0.2200000        1.98045593    0.00000000
                                                     2        0.4000000       -2.42426427    0.00000000
                                                     2        0.7000000        0.52335237    0.00000000
    6          6            6
                                      G and up 
                                                     0        0.0000010       -0.00286759    0.00000000
                                                     2        0.1200000        0.03193960    0.00000000
                                                     2        0.1600000       -0.04027782    0.00000000
                                                     2        0.2600000        0.24782456    0.00000000
                                                     2        0.4000000       -0.62266671    0.00000000
                                                     2        0.7000000        0.35695227    0.00000000
                                      S - G
                                                     0        0.0000010       -0.06602313    0.00000000
                                                     2        0.1200000        1.47277455    0.00000000
                                                     2        0.1600000       -4.06924166    0.00000000
                                                     2        0.3000000        5.02952802    0.00000000
                                                     2        0.7000000       -5.65856978    0.00000000
                                                     2        1.7000000        8.57604414    0.00000000
                                      P - G
                                                     0        0.0000010        0.49434425    0.00000000
                                                     2        0.1200000       -1.37391547    0.00000000
                                                     2        0.1600000        3.65411806    0.00000000
                                                     2        0.2800000       -7.36479843    0.00000000
                                                     2        0.6000000       17.22091285    0.00000000
                                                     2        1.1000000      -23.50107827    0.00000000
                                                     2        3.0000000       16.29464063    0.00000000
                                      D - G
                                                     0        0.0000010       -0.28693103    0.00000000
                                                     2        0.1200000        0.12273044    0.00000000
                                                     2        0.3000000       -0.43416384    0.00000000
                                                     2        0.7000000        2.23358493    0.00000000
                                      F - G
                                                     0        0.0000010        0.07263570    0.00000000
                                                     2        0.1400000       -0.76152861    0.00000000
                                                     2        0.2200000        1.98045593    0.00000000
                                                     2        0.4000000       -2.42426427    0.00000000
                                                     2        0.7000000        0.52335237    0.00000000
    7          1            1
                                      F and up 
                                                     0        0.0000010        0.00072061    0.00000000
                                                     2        0.1200000        0.03832357    0.00000000
                                                     2        0.1400000       -0.08683256    0.00000000
                                                     2        0.1800000        0.09312970    0.00000000
                                                     2        0.2800000       -0.02532572    0.00000000
                                                     2        0.4000000       -0.09430787    0.00000000
                                                     2        0.7000000        0.42710831    0.00000000
                                                     2        1.2000000       -2.11746981    0.00000000
                                      S - F
                                                     0        0.0000010        0.14449603    0.00000000
                                                     2        0.1200000       -0.56378993    0.00000000
                                                     2        0.1400000        0.63941249    0.00000000
                                                     2        0.2600000       -0.58461015    0.00000000
                                                     2        0.5000000        1.00157293    0.00000000
                                                     2        1.8000000       -0.14135838    0.00000000
                                      P - F
                                                     0        0.0000010       -0.09353646    0.00000000
                                                     2        0.1200000        0.31768975    0.00000000
                                                     2        0.2000000       -0.71747951    0.00000000
                                                     2        0.4000000        0.65752308    0.00000000
                                                     2        1.7000000        2.94052587    0.00000000
                                      D - F
                                                     0        0.0000010       -0.04491202    0.00000000
                                                     2        0.1200000       -0.02862031    0.00000000
                                                     2        0.1800000       -0.21515263    0.00000000
                                                     2        0.3000000        0.80560647    0.00000000
                                                     2        0.4000000        0.47351754    0.00000000
                                                     2        0.7000000       -4.57051794    0.00000000
                                                     2        1.6000000       18.53737826    0.00000000
    8          1            1
                                      F and up 
                                                     0        0.0000010        0.00072061    0.00000000
                                                     2        0.1200000        0.03832357    0.00000000
                                                     2        0.1400000       -0.08683256    0.00000000
                                                     2        0.1800000        0.09312970    0.00000000
                                                     2        0.2800000       -0.02532572    0.00000000
                                                     2        0.4000000       -0.09430787    0.00000000
                                                     2        0.7000000        0.42710831    0.00000000
                                                     2        1.2000000       -2.11746981    0.00000000
                                      S - F
                                                     0        0.0000010        0.14449603    0.00000000
                                                     2        0.1200000       -0.56378993    0.00000000
                                                     2        0.1400000        0.63941249    0.00000000
                                                     2        0.2600000       -0.58461015    0.00000000
                                                     2        0.5000000        1.00157293    0.00000000
                                                     2        1.8000000       -0.14135838    0.00000000
                                      P - F
                                                     0        0.0000010       -0.09353646    0.00000000
                                                     2        0.1200000        0.31768975    0.00000000
                                                     2        0.2000000       -0.71747951    0.00000000
                                                     2        0.4000000        0.65752308    0.00000000
                                                     2        1.7000000        2.94052587    0.00000000
                                      D - F
                                                     0        0.0000010       -0.04491202    0.00000000
                                                     2        0.1200000       -0.02862031    0.00000000
                                                     2        0.1800000       -0.21515263    0.00000000
                                                     2        0.3000000        0.80560647    0.00000000
                                                     2        0.4000000        0.47351754    0.00000000
                                                     2        0.7000000       -4.57051794    0.00000000
                                                     2        1.6000000       18.53737826    0.00000000
    9          6            6
                                      G and up 
                                                     0        0.0000010       -0.00286759    0.00000000
                                                     2        0.1200000        0.03193960    0.00000000
                                                     2        0.1600000       -0.04027782    0.00000000
                                                     2        0.2600000        0.24782456    0.00000000
                                                     2        0.4000000       -0.62266671    0.00000000
                                                     2        0.7000000        0.35695227    0.00000000
                                      S - G
                                                     0        0.0000010       -0.06602313    0.00000000
                                                     2        0.1200000        1.47277455    0.00000000
                                                     2        0.1600000       -4.06924166    0.00000000
                                                     2        0.3000000        5.02952802    0.00000000
                                                     2        0.7000000       -5.65856978    0.00000000
                                                     2        1.7000000        8.57604414    0.00000000
                                      P - G
                                                     0        0.0000010        0.49434425    0.00000000
                                                     2        0.1200000       -1.37391547    0.00000000
                                                     2        0.1600000        3.65411806    0.00000000
                                                     2        0.2800000       -7.36479843    0.00000000
                                                     2        0.6000000       17.22091285    0.00000000
                                                     2        1.1000000      -23.50107827    0.00000000
                                                     2        3.0000000       16.29464063    0.00000000
                                      D - G
                                                     0        0.0000010       -0.28693103    0.00000000
                                                     2        0.1200000        0.12273044    0.00000000
                                                     2        0.3000000       -0.43416384    0.00000000
                                                     2        0.7000000        2.23358493    0.00000000
                                      F - G
                                                     0        0.0000010        0.07263570    0.00000000
                                                     2        0.1400000       -0.76152861    0.00000000
                                                     2        0.2200000        1.98045593    0.00000000
                                                     2        0.4000000       -2.42426427    0.00000000
                                                     2        0.7000000        0.52335237    0.00000000
   10          1            1
                                      F and up 
                                                     0        0.0000010        0.00072061    0.00000000
                                                     2        0.1200000        0.03832357    0.00000000
                                                     2        0.1400000       -0.08683256    0.00000000
                                                     2        0.1800000        0.09312970    0.00000000
                                                     2        0.2800000       -0.02532572    0.00000000
                                                     2        0.4000000       -0.09430787    0.00000000
                                                     2        0.7000000        0.42710831    0.00000000
                                                     2        1.2000000       -2.11746981    0.00000000
                                      S - F
                                                     0        0.0000010        0.14449603    0.00000000
                                                     2        0.1200000       -0.56378993    0.00000000
                                                     2        0.1400000        0.63941249    0.00000000
                                                     2        0.2600000       -0.58461015    0.00000000
                                                     2        0.5000000        1.00157293    0.00000000
                                                     2        1.8000000       -0.14135838    0.00000000
                                      P - F
                                                     0        0.0000010       -0.09353646    0.00000000
                                                     2        0.1200000        0.31768975    0.00000000
                                                     2        0.2000000       -0.71747951    0.00000000
                                                     2        0.4000000        0.65752308    0.00000000
                                                     2        1.7000000        2.94052587    0.00000000
                                      D - F
                                                     0        0.0000010       -0.04491202    0.00000000
                                                     2        0.1200000       -0.02862031    0.00000000
                                                     2        0.1800000       -0.21515263    0.00000000
                                                     2        0.3000000        0.80560647    0.00000000
                                                     2        0.4000000        0.47351754    0.00000000
                                                     2        0.7000000       -4.57051794    0.00000000
                                                     2        1.6000000       18.53737826    0.00000000
   11         17           17
                                      G and up 
                                                     0        0.0000010        0.00409650    0.00000000
                                                     2        0.1200000        0.06945192    0.00000000
                                                     2        0.1400000       -0.06660574    0.00000000
                                                     2        0.2200000        0.15305308    0.00000000
                                      S - G
                                                     0        0.0000010        0.00555482    0.00000000
                                                     2        0.2000000       -0.53060378    0.00000000
                                      P - G
                                                     0        0.0000010       -0.16962542    0.00000000
                                                     2        0.1200000        0.15585357    0.00000000
                                                     2        0.1800000       -0.79460714    0.00000000
                                                     2        0.5000000        1.36495881    0.00000000
                                      D - G
                                                     0        0.0000010        0.91266089    0.00000000
                                                     2        0.2400000       -1.50552862    0.00000000
                                      F - G
                                                     0        0.0000010       -0.76620800    0.00000000
                                                     2        0.1200000       -0.23737626    0.00000000
                                                     2        0.1800000        0.28531204    0.00000000
   12         17           17
                                      G and up 
                                                     0        0.0000010        0.00409650    0.00000000
                                                     2        0.1200000        0.06945192    0.00000000
                                                     2        0.1400000       -0.06660574    0.00000000
                                                     2        0.2200000        0.15305308    0.00000000
                                      S - G
                                                     0        0.0000010        0.00555482    0.00000000
                                                     2        0.2000000       -0.53060378    0.00000000
                                      P - G
                                                     0        0.0000010       -0.16962542    0.00000000
                                                     2        0.1200000        0.15585357    0.00000000
                                                     2        0.1800000       -0.79460714    0.00000000
                                                     2        0.5000000        1.36495881    0.00000000
                                      D - G
                                                     0        0.0000010        0.91266089    0.00000000
                                                     2        0.2400000       -1.50552862    0.00000000
                                      F - G
                                                     0        0.0000010       -0.76620800    0.00000000
                                                     2        0.1200000       -0.23737626    0.00000000
                                                     2        0.1800000        0.28531204    0.00000000
   13          1            1
                                      F and up 
                                                     0        0.0000010        0.00072061    0.00000000
                                                     2        0.1200000        0.03832357    0.00000000
                                                     2        0.1400000       -0.08683256    0.00000000
                                                     2        0.1800000        0.09312970    0.00000000
                                                     2        0.2800000       -0.02532572    0.00000000
                                                     2        0.4000000       -0.09430787    0.00000000
                                                     2        0.7000000        0.42710831    0.00000000
                                                     2        1.2000000       -2.11746981    0.00000000
                                      S - F
                                                     0        0.0000010        0.14449603    0.00000000
                                                     2        0.1200000       -0.56378993    0.00000000
                                                     2        0.1400000        0.63941249    0.00000000
                                                     2        0.2600000       -0.58461015    0.00000000
                                                     2        0.5000000        1.00157293    0.00000000
                                                     2        1.8000000       -0.14135838    0.00000000
                                      P - F
                                                     0        0.0000010       -0.09353646    0.00000000
                                                     2        0.1200000        0.31768975    0.00000000
                                                     2        0.2000000       -0.71747951    0.00000000
                                                     2        0.4000000        0.65752308    0.00000000
                                                     2        1.7000000        2.94052587    0.00000000
                                      D - F
                                                     0        0.0000010       -0.04491202    0.00000000
                                                     2        0.1200000       -0.02862031    0.00000000
                                                     2        0.1800000       -0.21515263    0.00000000
                                                     2        0.3000000        0.80560647    0.00000000
                                                     2        0.4000000        0.47351754    0.00000000
                                                     2        0.7000000       -4.57051794    0.00000000
                                                     2        1.6000000       18.53737826    0.00000000
   14          1            1
                                      F and up 
                                                     0        0.0000010        0.00072061    0.00000000
                                                     2        0.1200000        0.03832357    0.00000000
                                                     2        0.1400000       -0.08683256    0.00000000
                                                     2        0.1800000        0.09312970    0.00000000
                                                     2        0.2800000       -0.02532572    0.00000000
                                                     2        0.4000000       -0.09430787    0.00000000
                                                     2        0.7000000        0.42710831    0.00000000
                                                     2        1.2000000       -2.11746981    0.00000000
                                      S - F
                                                     0        0.0000010        0.14449603    0.00000000
                                                     2        0.1200000       -0.56378993    0.00000000
                                                     2        0.1400000        0.63941249    0.00000000
                                                     2        0.2600000       -0.58461015    0.00000000
                                                     2        0.5000000        1.00157293    0.00000000
                                                     2        1.8000000       -0.14135838    0.00000000
                                      P - F
                                                     0        0.0000010       -0.09353646    0.00000000
                                                     2        0.1200000        0.31768975    0.00000000
                                                     2        0.2000000       -0.71747951    0.00000000
                                                     2        0.4000000        0.65752308    0.00000000
                                                     2        1.7000000        2.94052587    0.00000000
                                      D - F
                                                     0        0.0000010       -0.04491202    0.00000000
                                                     2        0.1200000       -0.02862031    0.00000000
                                                     2        0.1800000       -0.21515263    0.00000000
                                                     2        0.3000000        0.80560647    0.00000000
                                                     2        0.4000000        0.47351754    0.00000000
                                                     2        0.7000000       -4.57051794    0.00000000
                                                     2        1.6000000       18.53737826    0.00000000
   15          1            1
                                      F and up 
                                                     0        0.0000010        0.00072061    0.00000000
                                                     2        0.1200000        0.03832357    0.00000000
                                                     2        0.1400000       -0.08683256    0.00000000
                                                     2        0.1800000        0.09312970    0.00000000
                                                     2        0.2800000       -0.02532572    0.00000000
                                                     2        0.4000000       -0.09430787    0.00000000
                                                     2        0.7000000        0.42710831    0.00000000
                                                     2        1.2000000       -2.11746981    0.00000000
                                      S - F
                                                     0        0.0000010        0.14449603    0.00000000
                                                     2        0.1200000       -0.56378993    0.00000000
                                                     2        0.1400000        0.63941249    0.00000000
                                                     2        0.2600000       -0.58461015    0.00000000
                                                     2        0.5000000        1.00157293    0.00000000
                                                     2        1.8000000       -0.14135838    0.00000000
                                      P - F
                                                     0        0.0000010       -0.09353646    0.00000000
                                                     2        0.1200000        0.31768975    0.00000000
                                                     2        0.2000000       -0.71747951    0.00000000
                                                     2        0.4000000        0.65752308    0.00000000
                                                     2        1.7000000        2.94052587    0.00000000
                                      D - F
                                                     0        0.0000010       -0.04491202    0.00000000
                                                     2        0.1200000       -0.02862031    0.00000000
                                                     2        0.1800000       -0.21515263    0.00000000
                                                     2        0.3000000        0.80560647    0.00000000
                                                     2        0.4000000        0.47351754    0.00000000
                                                     2        0.7000000       -4.57051794    0.00000000
                                                     2        1.6000000       18.53737826    0.00000000
 ======================================================================================================
   269 basis functions,   529 primitive gaussians,   287 cartesian basis functions
    41 alpha electrons       41 beta electrons
       nuclear repulsion energy       555.2040017766 Hartrees.
 NAtoms=   15 NActive=   15 NUniq=   15 SFac= 1.00D+00 NAtFMM=   60 NAOKFM=F Big=F
   1 Symmetry operations used in ECPInt.
 ECPInt:  NShTT=    6670 NPrTT=   42482 LenC2=    6624 LenP2D=   29047.
 LDataN:  DoStor=T MaxTD1= 6 Len=  172
 Initial guess from the checkpoint file:  "BDE49_expt_1698_mol1.chk"
 B after Tr=     0.000000    0.000000    0.000000
         Rot=    1.000000   -0.000000    0.000000   -0.000000 Ang=  -0.00 deg.
 >>>>>>>>>> Convergence criterion not met.
 SCF Done:  E(RHF) =  -1189.39606007     A.U. after    2 cycles
            NFock=  1  Conv=0.21D+01     -V/T= 1.9936

 **********************************************************************

            Population analysis using the SCF Density.

 **********************************************************************

 Orbital symmetries:
       Occupied  (A) (A) (A) (A) (A) (A) (A) (A) (A) (A) (A) (A)
                 (A) (A) (A) (A) (A) (A) (A) (A) (A) (A) (A) (A)
                 (A) (A) (A) (A) (A) (A) (A) (A) (A) (A) (A) (A)
                 (A) (A) (A) (A) (A)
       Virtual   (A) (A) (A) (A) (A) (A) (A) (A) (A) (A) (A) (A)
                 (A) (A) (A) (A) (A) (A) (A) (A) (A) (A) (A) (A)
                 (A) (A) (A) (A) (A) (A) (A) (A) (A) (A) (A) (A)
                 (A) (A) (A) (A) (A) (A) (A) (A) (A) (A) (A) (A)
                 (A) (A) (A) (A) (A) (A) (A) (A) (A) (A) (A) (A)
                 (A) (A) (A) (A) (A) (A) (A) (A) (A) (A) (A) (A)
                 (A) (A) (A) (A) (A) (A) (A) (A) (A) (A) (A) (A)
                 (A) (A) (A) (A) (A) (A) (A) (A) (A) (A) (A) (A)
                 (A) (A) (A) (A) (A) (A) (A) (A) (A) (A) (A) (A)
                 (A) (A) (A) (A) (A) (A) (A) (A) (A) (A) (A) (A)
                 (A) (A) (A) (A) (A) (A) (A) (A) (A) (A) (A) (A)
                 (A) (A) (A) (A) (A) (A) (A) (A) (A) (A) (A) (A)
                 (A) (A) (A) (A) (A) (A) (A) (A) (A) (A) (A) (A)
                 (A) (A) (A) (A) (A) (A) (A) (A) (A) (A) (A) (A)
                 (A) (A) (A) (A) (A) (A) (A) (A) (A) (A) (A) (A)
                 (A) (A) (A) (A) (A) (A) (A) (A) (A) (A) (A) (A)
                 (A) (A) (A) (A) (A) (A) (A) (A) (A) (A) (A) (A)
                 (A) (A) (A) (A) (A) (A) (A) (A) (A) (A) (A) (A)
                 (A) (A) (A) (A) (A) (A) (A) (A) (A) (A) (A) (A)
 The electronic state is 1-A.
 Alpha  occ. eigenvalues --  -99.89592 -99.89589 -11.53332 -11.51612 -11.45041
 Alpha  occ. eigenvalues --  -11.44724 -11.42460 -11.41965 -11.37779 -10.46919
 Alpha  occ. eigenvalues --  -10.46775  -9.66818  -9.66787  -9.66113  -9.66041
 Alpha  occ. eigenvalues --   -9.65963  -9.65951  -1.42506  -1.32469  -1.27885
 Alpha  occ. eigenvalues --   -1.13481  -1.10846  -0.98669  -0.88287  -0.85328
 Alpha  occ. eigenvalues --   -0.73290  -0.69390  -0.67223  -0.65111  -0.61502
 Alpha  occ. eigenvalues --   -0.59554  -0.56992  -0.53124  -0.52178  -0.50369
 Alpha  occ. eigenvalues --   -0.49047  -0.48871  -0.45781  -0.45038  -0.34545
 Alpha  occ. eigenvalues --   -0.34112
 Alpha virt. eigenvalues --    0.03026   0.03939   0.04739   0.05152   0.05982
 Alpha virt. eigenvalues --    0.06847   0.06970   0.07572   0.09544   0.09962
 Alpha virt. eigenvalues --    0.10510   0.11121   0.12898   0.13020   0.13362
 Alpha virt. eigenvalues --    0.13829   0.14294   0.14880   0.14994   0.15297
 Alpha virt. eigenvalues --    0.16220   0.16557   0.16948   0.17036   0.17505
 Alpha virt. eigenvalues --    0.17950   0.18306   0.18866   0.18987   0.20052
 Alpha virt. eigenvalues --    0.20552   0.21513   0.22035   0.23153   0.23298
 Alpha virt. eigenvalues --    0.23428   0.24127   0.25341   0.27202   0.28263
 Alpha virt. eigenvalues --    0.28746   0.29581   0.29981   0.30281   0.31148
 Alpha virt. eigenvalues --    0.32414   0.33280   0.33295   0.35099   0.35319
 Alpha virt. eigenvalues --    0.35877   0.37655   0.38029   0.38268   0.39079
 Alpha virt. eigenvalues --    0.39123   0.40077   0.40732   0.40843   0.41593
 Alpha virt. eigenvalues --    0.41664   0.42099   0.43069   0.44042   0.44744
 Alpha virt. eigenvalues --    0.45727   0.47418   0.47629   0.49585   0.50967
 Alpha virt. eigenvalues --    0.53946   0.54151   0.56706   0.57079   0.57783
 Alpha virt. eigenvalues --    0.57929   0.59948   0.60209   0.61113   0.62297
 Alpha virt. eigenvalues --    0.63693   0.64079   0.64653   0.65547   0.67232
 Alpha virt. eigenvalues --    0.67563   0.67985   0.68174   0.69114   0.69385
 Alpha virt. eigenvalues --    0.70934   0.70991   0.71898   0.73793   0.76053
 Alpha virt. eigenvalues --    0.76441   0.77258   0.78342   0.78426   0.80109
 Alpha virt. eigenvalues --    0.81395   0.84413   0.86311   0.88264   0.88876
 Alpha virt. eigenvalues --    0.90528   0.90688   0.92257   0.92506   0.94793
 Alpha virt. eigenvalues --    0.94952   0.95765   0.96917   0.97203   0.99130
 Alpha virt. eigenvalues --    1.00551   1.00821   1.02314   1.03498   1.06004
 Alpha virt. eigenvalues --    1.08067   1.08508   1.10668   1.10698   1.12208
 Alpha virt. eigenvalues --    1.13047   1.13911   1.14261   1.15720   1.17570
 Alpha virt. eigenvalues --    1.19184   1.21434   1.24247   1.26363   1.29836
 Alpha virt. eigenvalues --    1.30084   1.31179   1.31993   1.32421   1.35779
 Alpha virt. eigenvalues --    1.36848   1.37040   1.37471   1.41423   1.42767
 Alpha virt. eigenvalues --    1.44620   1.45776   1.47889   1.64509   1.64696
 Alpha virt. eigenvalues --    1.68783   1.68825   1.70352   1.72258   1.74400
 Alpha virt. eigenvalues --    1.74845   1.78590   1.79024   1.81555   1.82281
 Alpha virt. eigenvalues --    1.84746   1.85433   1.87112   1.87498   1.88517
 Alpha virt. eigenvalues --    1.89689   1.89885   1.93469   1.94496   2.00858
 Alpha virt. eigenvalues --    2.02445   2.04826   2.07887   2.07933   2.08372
 Alpha virt. eigenvalues --    2.10263   2.11438   2.13542   2.15151   2.18185
 Alpha virt. eigenvalues --    2.19256   2.21727   2.23382   2.23920   2.25143
 Alpha virt. eigenvalues --    2.28832   2.30807   2.32842   2.35034   2.36681
 Alpha virt. eigenvalues --    2.40361   2.40491   2.43604   2.44085   2.49971
 Alpha virt. eigenvalues --    2.50918   2.52082   2.53091   2.55052   2.55531
 Alpha virt. eigenvalues --    2.56654   2.60253   2.61158   2.62806   2.69934
 Alpha virt. eigenvalues --    2.73907   2.75643   2.78732   2.78745   2.87184
 Alpha virt. eigenvalues --    2.92108   3.03925   3.11263   3.13411   3.14228
 Alpha virt. eigenvalues --    3.27383   3.37461   3.40204   3.49554   3.62381
 Alpha virt. eigenvalues --    3.63830   3.68155   3.75565   3.90216   3.93529
 Alpha virt. eigenvalues --    4.05019   4.14788   4.98848
          Condensed to atoms (all electrons):
 Mulliken charges:
               1
     1  C   -2.232646
     2  C   -0.390721
     3  C   -2.788417
     4  C   -1.587963
     5  C   -3.346983
     6  C    5.843089
     7  H    1.728405
     8  H    1.500619
     9  C   -5.393468
    10  H    1.753232
    11  Cl   0.200379
    12  Cl   0.200380
    13  H    1.501556
    14  H    1.474883
    15  H    1.537656
 Sum of Mulliken charges =  -0.00000
 Mulliken charges with hydrogens summed into heavy atoms:
               1
     1  C   -0.504241
     2  C    1.109898
     3  C   -1.250761
     4  C   -0.113080
     5  C   -1.593752
     6  C    5.843089
     9  C   -3.891912
    11  Cl   0.200379
    12  Cl   0.200380
 Electronic spatial extent (au):  <R**2>=           1766.0829
 Charge=              0.0000 electrons
 Dipole moment (field-independent basis, Debye):
    X=             -2.8883    Y=             -0.0000    Z=              0.8309  Tot=              3.0055

 Test job not archived.
 1\1\GINC-SE227\SP\RHF\Aug-CC-pVDZ\C7H6Cl2\OHZDE\08-Apr-2025\0\\#t hf a
 ug-cc-pvdz iop(5/13=1,5/36=2,99/5=2) pseudo=read geom=check guess=(rea
 d,tcheck) scf=(maxcycle=1)\\title\\0,1\C,0,-0.839425,0.000008,-1.08726
 3\C,0,-2.206482,0.00001,-1.331266\C,0,-3.11072,0.000002,-0.267525\C,0,
 -2.641094,-0.000008,1.041814\C,0,-1.269397,-0.000009,1.289322\C,0,-0.3
 63737,-0.000001,0.22754\H,0,-0.137046,0.000015,-1.912311\H,0,-2.570193
 ,0.000017,-2.352243\C,0,1.103677,-0.000003,0.534127\H,0,-0.905015,-0.0
 00016,2.311123\Cl,0,1.93528,1.480166,-0.1029\Cl,0,1.935279,-1.480166,-
 0.102916\H,0,1.290697,-0.000009,1.602039\H,0,-3.337832,-0.000014,1.871
 979\H,0,-4.17705,0.000003,-0.462214\\Version=ES64L-G16RevC.01\State=1-
 A\HF=-1189.3960601\RMSD=2.069e+00\Dipole=-1.1363547,-0.0000008,0.32688
 69\Quadrupole=0.6337966,-4.5521828,3.9183862,0.0000008,0.6575861,-0.00
 00582\PG=C01 [X(C7H6Cl2)]\\@


 CHEMISTRY BEGAN BY SAYING IT WOULD CHANGE THE BASER
 METALS INTO GOLD.  BY NOT DOING THAT IT HAS DONE MUCH
 GREATER THINGS.  --  RALPH WALDO EMERSON
 Job cpu time:       0 days  0 hours  1 minutes 34.7 seconds.
 Elapsed time:       0 days  0 hours  0 minutes  7.0 seconds.
 File lengths (MBytes):  RWF=     14 Int=      0 D2E=      0 Chk=     11 Scr=      1
 Normal termination of Gaussian 16 at Tue Apr  8 22:51:36 2025.
