 Entering Gaussian System, Link 0=g16
 Input=BDE49_nonexpt_684_mol1.gjf
 Output=BDE49_nonexpt_684_mol1.log
 Initial command:
 /arc/software/Gaussian/g16.c01/l1.exe "/tmp/slurm/4854773/Gau-196501.inp" -scrdir="/tmp/slurm/4854773/"
 Entering Link 1 = /arc/software/Gaussian/g16.c01/l1.exe PID=    196502.
  
 Copyright (c) 1988-2019, Gaussian, Inc.  All Rights Reserved.
  
 This is part of the Gaussian(R) 16 program.  It is based on
 the Gaussian(R) 09 system (copyright 2009, Gaussian, Inc.),
 the Gaussian(R) 03 system (copyright 2003, Gaussian, Inc.),
 the Gaussian(R) 98 system (copyright 1998, Gaussian, Inc.),
 the Gaussian(R) 94 system (copyright 1995, Gaussian, Inc.),
 the Gaussian 92(TM) system (copyright 1992, Gaussian, Inc.),
 the Gaussian 90(TM) system (copyright 1990, Gaussian, Inc.),
 the Gaussian 88(TM) system (copyright 1988, Gaussian, Inc.),
 the Gaussian 86(TM) system (copyright 1986, Carnegie Mellon
 University), and the Gaussian 82(TM) system (copyright 1983,
 Carnegie Mellon University). Gaussian is a federally registered
 trademark of Gaussian, Inc.
  
 This software contains proprietary and confidential information,
 including trade secrets, belonging to Gaussian, Inc.
  
 This software is provided under written license and may be
 used, copied, transmitted, or stored only in accord with that
 written license.
  
 The following legend is applicable only to US Government
 contracts under FAR:
  
                    RESTRICTED RIGHTS LEGEND
  
 Use, reproduction and disclosure by the US Government is
 subject to restrictions as set forth in subparagraphs (a)
 and (c) of the Commercial Computer Software - Restricted
 Rights clause in FAR 52.227-19.
  
 Gaussian, Inc.
 340 Quinnipiac St., Bldg. 40, Wallingford CT 06492
  
  
 ---------------------------------------------------------------
 Warning -- This program may not be used in any manner that
 competes with the business of Gaussian, Inc. or will provide
 assistance to any competitor of Gaussian, Inc.  The licensee
 of this program is prohibited from giving any competitor of
 Gaussian, Inc. access to this program.  By using this program,
 the user acknowledges that Gaussian, Inc. is engaged in the
 business of creating and licensing software in the field of
 computational chemistry and represents and warrants to the
 licensee that it is not a competitor of Gaussian, Inc. and that
 it will not use this program in any manner prohibited above.
 ---------------------------------------------------------------
  

 Cite this work as:
 Gaussian 16, Revision C.01,
 M. J. Frisch, G. W. Trucks, H. B. Schlegel, G. E. Scuseria, 
 M. A. Robb, J. R. Cheeseman, G. Scalmani, V. Barone, 
 G. A. Petersson, H. Nakatsuji, X. Li, M. Caricato, A. V. Marenich, 
 J. Bloino, B. G. Janesko, R. Gomperts, B. Mennucci, H. P. Hratchian, 
 J. V. Ortiz, A. F. Izmaylov, J. L. Sonnenberg, D. Williams-Young, 
 F. Ding, F. Lipparini, F. Egidi, J. Goings, B. Peng, A. Petrone, 
 T. Henderson, D. Ranasinghe, V. G. Zakrzewski, J. Gao, N. Rega, 
 G. Zheng, W. Liang, M. Hada, M. Ehara, K. Toyota, R. Fukuda, 
 J. Hasegawa, M. Ishida, T. Nakajima, Y. Honda, O. Kitao, H. Nakai, 
 T. Vreven, K. Throssell, J. A. Montgomery, Jr., J. E. Peralta, 
 F. Ogliaro, M. J. Bearpark, J. J. Heyd, E. N. Brothers, K. N. Kudin, 
 V. N. Staroverov, T. A. Keith, R. Kobayashi, J. Normand, 
 K. Raghavachari, A. P. Rendell, J. C. Burant, S. S. Iyengar, 
 J. Tomasi, M. Cossi, J. M. Millam, M. Klene, C. Adamo, R. Cammi, 
 J. W. Ochterski, R. L. Martin, K. Morokuma, O. Farkas, 
 J. B. Foresman, and D. J. Fox, Gaussian, Inc., Wallingford CT, 2019.
 
 ******************************************
 Gaussian 16:  ES64L-G16RevC.01  3-Jul-2019
                 9-Apr-2025 
 ******************************************
 %nprocs=16
 Will use up to   16 processors via shared memory.
 %mem=30GB
 %chk=BDE49_nonexpt_684_mol1.chk
 ----------------------------------------------------------------------
 #t hf aug-cc-pvdz symm=none int=(grid=ultrafine) guess=(read,tcheck) s
 table=(opt,rrhf)
 ----------------------------------------------------------------------
 -----
 title
 -----
 Symbolic Z-matrix:
 Charge =  0 Multiplicity = 1
 P                    -0.57047   1.31341  -0.21822 
 B                    -1.58908  -0.33176  -0.03239 
 O                    -1.23109  -1.39897  -0.80064 
 O                    -2.71221  -0.44523   0.74417 
 C                     1.16786   0.68077  -0.50286 
 C                     1.76364  -0.25491   0.55505 
 H                     1.80432   1.56255  -0.6319 
 H                     1.13653   0.17871  -1.47558 
 C                     3.19788  -0.68495   0.22588 
 H                     1.12853  -1.14096   0.64547 
 H                     1.74607   0.24436   1.53032 
 H                     3.24066  -1.21765  -0.72898 
 H                     3.59757  -1.35056   0.99613 
 H                     3.86563   0.17929   0.15404 
 H                    -1.84902  -2.13424  -0.70502 
 H                    -2.91163   0.33696   1.26474 
 H                    -0.48595   1.60732   1.16933 
 
                    Distance matrix (angstroms):
                    1          2          3          4          5
     1  P    0.000000
     2  B    1.943888   0.000000
     3  O    2.851778   1.362824   0.000000
     4  O    2.933609   1.370158   2.343022   0.000000
     5  C    1.871643   2.974436   3.188872   4.228223   0.000000
     6  C    2.916445   3.404662   3.480683   4.483880   1.532853
     7  H    2.423391   3.932299   4.244140   5.130668   1.095111
     8  H    2.404655   3.126076   2.924080   4.486579   1.095084
     9  C    4.288486   4.806917   4.602102   5.937611   2.552886
    10  H    3.107497   2.915434   2.779505   3.904497   2.153815
    11  H    3.092994   3.727896   4.122785   4.579278   2.158385
    12  H    4.603466   4.959482   4.476000   6.180894   2.819866
    13  H    5.093521   5.384904   5.152349   6.379376   3.503822
    14  H    4.593885   5.481768   5.420223   6.633716   2.821520
    15  H    3.709177   1.941376   0.965198   2.387053   4.131182
    16  H    2.938306   1.969481   3.178587   0.960509   4.459241
    17  H    1.420844   2.533985   3.670664   3.057774   2.527804
                    6          7          8          9         10
     6  C    0.000000
     7  H    2.171100   0.000000
     8  H    2.169041   1.752916   0.000000
     9  C    1.533079   2.780111   2.808914   0.000000
    10  H    1.093898   3.065505   2.498090   2.160138   0.000000
    11  H    1.095777   2.533028   3.067777   2.161695   1.755962
    12  H    2.181099   3.130816   2.633363   1.094238   2.521125
    13  H    2.181353   3.788458   3.808502   1.093652   2.502606
    14  H    2.183505   2.603866   3.178618   1.094504   3.078347
    15  H    4.262737   5.197926   3.854479   5.332747   3.417054
    16  H    4.765721   5.228717   4.891011   6.280894   4.346340
    17  H    2.984272   2.914060   3.415974   4.440175   3.230175
                   11         12         13         14         15
    11  H    0.000000
    12  H    3.078263   0.000000
    13  H    2.501437   1.766642   0.000000
    14  H    2.528024   1.766845   1.766741   0.000000
    15  H    4.855833   5.171607   5.759635   6.224752   0.000000
    16  H    4.666184   6.651496   6.729755   6.869477   3.334057
    17  H    2.640053   5.046944   5.045214   4.691085   4.401188
                   16         17
    16  H    0.000000
    17  H    2.739868   0.000000
 Symmetry turned off by external request.
 Rotational constants (GHZ):           3.2851585           1.1159139           0.9532122
   255 basis functions,   449 primitive gaussians,   269 cartesian basis functions
    32 alpha electrons       32 beta electrons
       nuclear repulsion energy       361.6400317750 Hartrees.
 NAtoms=   17 NActive=   17 NUniq=   17 SFac= 1.00D+00 NAtFMM=   60 NAOKFM=F Big=F
 ExpMin= 2.38D-02 ExpMax= 9.48D+04 ExpMxC= 3.24D+03 IAcc=3 IRadAn=         5 AccDes= 0.00D+00
 Harris functional with IExCor=  205 and IRadAn=       5 diagonalized for initial guess.
 HarFok:  IExCor=  205 AccDes= 0.00D+00 IRadAn=         5 IDoV= 1 UseB2=F ITyADJ=14
 ICtDFT=  3500011 ScaDFX=  1.000000  1.000000  1.000000  1.000000
 FoFCou: FMM=F IPFlag=           0 FMFlag=      100000 FMFlg1=           0
         NFxFlg=           0 DoJE=T BraDBF=F KetDBF=T FulRan=T
         wScrn=  0.000000 ICntrl=       500 IOpCl=  0 I1Cent=   200000004 NGrid=           0
         NMat0=    1 NMatS0=      1 NMatT0=    0 NMatD0=    1 NMtDS0=    0 NMtDT0=    0
 Symmetry not used in FoFCou.
 SCF Done:  E(RHF) =  -634.732362930     A.U. after   13 cycles
            NFock= 13  Conv=0.66D-08     -V/T= 2.0006

 **********************************************************************

            Population analysis using the SCF Density.

 **********************************************************************

 Alpha  occ. eigenvalues --  -79.92780 -20.58819 -20.58129 -11.23599 -11.22932
 Alpha  occ. eigenvalues --  -11.22052  -7.66365  -7.46996  -5.36450  -5.36390
 Alpha  occ. eigenvalues --   -5.36274  -1.39699  -1.35628  -1.06130  -0.94643
 Alpha  occ. eigenvalues --   -0.83060  -0.79404  -0.76526  -0.73077  -0.63395
 Alpha  occ. eigenvalues --   -0.61540  -0.58244  -0.57822  -0.57124  -0.54473
 Alpha  occ. eigenvalues --   -0.53302  -0.50905  -0.48865  -0.47613  -0.46438
 Alpha  occ. eigenvalues --   -0.43177  -0.34155
 Alpha virt. eigenvalues --    0.03170   0.04083   0.04515   0.04917   0.05845
 Alpha virt. eigenvalues --    0.06467   0.06620   0.07287   0.07756   0.08802
 Alpha virt. eigenvalues --    0.09125   0.09532   0.10255   0.11644   0.11993
 Alpha virt. eigenvalues --    0.12773   0.14004   0.14140   0.15651   0.16111
 Alpha virt. eigenvalues --    0.17436   0.17648   0.18058   0.18832   0.18948
 Alpha virt. eigenvalues --    0.20019   0.20679   0.21275   0.22061   0.22435
 Alpha virt. eigenvalues --    0.22966   0.23518   0.23869   0.25499   0.25712
 Alpha virt. eigenvalues --    0.25822   0.26697   0.27649   0.27849   0.30468
 Alpha virt. eigenvalues --    0.30724   0.31523   0.32327   0.33748   0.34097
 Alpha virt. eigenvalues --    0.35287   0.36515   0.37637   0.37842   0.39289
 Alpha virt. eigenvalues --    0.40291   0.40995   0.41724   0.43492   0.44253
 Alpha virt. eigenvalues --    0.45297   0.45412   0.46581   0.47021   0.48022
 Alpha virt. eigenvalues --    0.48287   0.49042   0.49290   0.50332   0.51320
 Alpha virt. eigenvalues --    0.51606   0.52733   0.53252   0.53734   0.55084
 Alpha virt. eigenvalues --    0.55605   0.56724   0.57235   0.57991   0.58968
 Alpha virt. eigenvalues --    0.59922   0.60802   0.61275   0.62163   0.62492
 Alpha virt. eigenvalues --    0.63099   0.64236   0.64782   0.64884   0.65767
 Alpha virt. eigenvalues --    0.66197   0.67205   0.68590   0.69308   0.69664
 Alpha virt. eigenvalues --    0.70572   0.71021   0.72817   0.74075   0.75069
 Alpha virt. eigenvalues --    0.76902   0.77375   0.78888   0.79079   0.79649
 Alpha virt. eigenvalues --    0.80872   0.82301   0.83110   0.84303   0.85384
 Alpha virt. eigenvalues --    0.86019   0.87307   0.88993   0.90515   0.91518
 Alpha virt. eigenvalues --    0.93888   0.96347   0.97051   0.99708   1.00433
 Alpha virt. eigenvalues --    1.03151   1.05076   1.05622   1.07362   1.08322
 Alpha virt. eigenvalues --    1.09535   1.11431   1.12771   1.15490   1.17239
 Alpha virt. eigenvalues --    1.17586   1.19394   1.21575   1.22415   1.23587
 Alpha virt. eigenvalues --    1.25556   1.25894   1.29201   1.30163   1.32368
 Alpha virt. eigenvalues --    1.32829   1.33531   1.39295   1.42448   1.43034
 Alpha virt. eigenvalues --    1.45764   1.47254   1.48470   1.51206   1.54518
 Alpha virt. eigenvalues --    1.55331   1.56938   1.58435   1.62685   1.64748
 Alpha virt. eigenvalues --    1.67306   1.70196   1.71485   1.74655   1.79513
 Alpha virt. eigenvalues --    1.80974   1.84127   1.84672   1.85639   1.89461
 Alpha virt. eigenvalues --    1.89910   1.90467   1.94386   1.96510   1.98356
 Alpha virt. eigenvalues --    2.02686   2.04476   2.06216   2.07532   2.08127
 Alpha virt. eigenvalues --    2.09205   2.09837   2.12403   2.14746   2.15542
 Alpha virt. eigenvalues --    2.19199   2.20628   2.23495   2.24067   2.26605
 Alpha virt. eigenvalues --    2.29049   2.33310   2.35949   2.36541   2.37766
 Alpha virt. eigenvalues --    2.39131   2.40525   2.43070   2.45541   2.48660
 Alpha virt. eigenvalues --    2.51970   2.54741   2.55460   2.57975   2.65830
 Alpha virt. eigenvalues --    2.67478   2.68091   2.69235   2.76054   2.77358
 Alpha virt. eigenvalues --    2.82575   2.88714   2.91908   2.94156   2.97796
 Alpha virt. eigenvalues --    3.03700   3.09372   3.12252   3.13714   3.16094
 Alpha virt. eigenvalues --    3.23193   3.27743   3.51968   3.66579   3.68410
 Alpha virt. eigenvalues --    3.72178   3.74302   3.78097   3.80516   3.87174
 Alpha virt. eigenvalues --    3.88925   4.27133   4.30525
          Condensed to atoms (all electrons):
 Mulliken charges:
               1
     1  P   -0.155931
     2  B    1.231860
     3  O   -0.684219
     4  O   -0.681680
     5  C   -0.045541
     6  C    0.078211
     7  H   -0.187934
     8  H   -0.127295
     9  C    0.458674
    10  H   -0.178183
    11  H   -0.138793
    12  H   -0.071901
    13  H   -0.084691
    14  H   -0.079801
    15  H    0.245000
    16  H    0.230966
    17  H    0.191257
 Sum of Mulliken charges =   0.00000
 Mulliken charges with hydrogens summed into heavy atoms:
               1
     1  P    0.035326
     2  B    1.231860
     3  O   -0.439219
     4  O   -0.450714
     5  C   -0.360769
     6  C   -0.238765
     9  C    0.222280
 Electronic spatial extent (au):  <R**2>=           1273.2934
 Charge=              0.0000 electrons
 Dipole moment (field-independent basis, Debye):
    X=              0.0123    Y=             -0.5442    Z=              1.3085  Tot=              1.4172
 NROrb=    255 NOA=    32 NOB=    32 NVA=   223 NVB=   223

 **** Warning!!: The largest alpha MO coefficient is  0.36089421D+02

    12 initial guesses have been made.
 Iteration     1 Dimension    12 NMult     0 NNew     12
 Iteration     2 Dimension    24 NMult    12 NNew     12
 Iteration     3 Dimension    27 NMult    24 NNew      3
 Iteration     4 Dimension    30 NMult    27 NNew      3
 Iteration     5 Dimension    33 NMult    30 NNew      3
 Iteration     6 Dimension    36 NMult    33 NNew      3
 Iteration     7 Dimension    39 NMult    36 NNew      3
 ***********************************************************************
 Stability analysis using <AA,BB:AA,BB> singles matrix:
 ***********************************************************************
 Ground to excited state transition densities written to RWF  633

 Eigenvectors of the stability matrix:
 
 Excited state symmetry could not be determined.
 Eigenvector   1:      Singlet-?Sym  Eigenvalue= 0.2400766  <S**2>=0.000
      32 -> 33         0.44385
      32 -> 34         0.24334
      32 -> 35         0.24551
      32 -> 36         0.11115
      32 -> 37        -0.12331
      32 -> 39         0.13821
      32 -> 41         0.10254
      32 -> 48        -0.21937
 The wavefunction is stable under the perturbations considered.
 The wavefunction is already stable.

 **********************************************************************

            Population analysis using the SCF Density.

 **********************************************************************

 Alpha  occ. eigenvalues --  -79.92780 -20.58819 -20.58129 -11.23599 -11.22932
 Alpha  occ. eigenvalues --  -11.22052  -7.66365  -7.46996  -5.36450  -5.36390
 Alpha  occ. eigenvalues --   -5.36274  -1.39699  -1.35628  -1.06130  -0.94643
 Alpha  occ. eigenvalues --   -0.83060  -0.79404  -0.76526  -0.73077  -0.63395
 Alpha  occ. eigenvalues --   -0.61540  -0.58244  -0.57822  -0.57124  -0.54473
 Alpha  occ. eigenvalues --   -0.53302  -0.50905  -0.48865  -0.47613  -0.46438
 Alpha  occ. eigenvalues --   -0.43177  -0.34155
 Alpha virt. eigenvalues --    0.03170   0.04083   0.04515   0.04917   0.05845
 Alpha virt. eigenvalues --    0.06467   0.06620   0.07287   0.07756   0.08802
 Alpha virt. eigenvalues --    0.09125   0.09532   0.10255   0.11644   0.11993
 Alpha virt. eigenvalues --    0.12773   0.14004   0.14140   0.15651   0.16111
 Alpha virt. eigenvalues --    0.17436   0.17648   0.18058   0.18832   0.18948
 Alpha virt. eigenvalues --    0.20019   0.20679   0.21275   0.22061   0.22435
 Alpha virt. eigenvalues --    0.22966   0.23518   0.23869   0.25499   0.25712
 Alpha virt. eigenvalues --    0.25822   0.26697   0.27649   0.27849   0.30468
 Alpha virt. eigenvalues --    0.30724   0.31523   0.32327   0.33748   0.34097
 Alpha virt. eigenvalues --    0.35287   0.36515   0.37637   0.37842   0.39289
 Alpha virt. eigenvalues --    0.40291   0.40995   0.41724   0.43492   0.44253
 Alpha virt. eigenvalues --    0.45297   0.45412   0.46581   0.47021   0.48022
 Alpha virt. eigenvalues --    0.48287   0.49042   0.49290   0.50332   0.51320
 Alpha virt. eigenvalues --    0.51606   0.52733   0.53252   0.53734   0.55084
 Alpha virt. eigenvalues --    0.55605   0.56724   0.57235   0.57991   0.58968
 Alpha virt. eigenvalues --    0.59922   0.60802   0.61275   0.62163   0.62492
 Alpha virt. eigenvalues --    0.63099   0.64236   0.64782   0.64884   0.65767
 Alpha virt. eigenvalues --    0.66197   0.67205   0.68590   0.69308   0.69664
 Alpha virt. eigenvalues --    0.70572   0.71021   0.72817   0.74075   0.75069
 Alpha virt. eigenvalues --    0.76902   0.77375   0.78888   0.79079   0.79649
 Alpha virt. eigenvalues --    0.80872   0.82301   0.83110   0.84303   0.85384
 Alpha virt. eigenvalues --    0.86019   0.87307   0.88993   0.90515   0.91518
 Alpha virt. eigenvalues --    0.93888   0.96347   0.97051   0.99708   1.00433
 Alpha virt. eigenvalues --    1.03151   1.05076   1.05622   1.07362   1.08322
 Alpha virt. eigenvalues --    1.09535   1.11431   1.12771   1.15490   1.17239
 Alpha virt. eigenvalues --    1.17586   1.19394   1.21575   1.22415   1.23587
 Alpha virt. eigenvalues --    1.25556   1.25894   1.29201   1.30163   1.32368
 Alpha virt. eigenvalues --    1.32829   1.33531   1.39295   1.42448   1.43034
 Alpha virt. eigenvalues --    1.45764   1.47254   1.48470   1.51206   1.54518
 Alpha virt. eigenvalues --    1.55331   1.56938   1.58435   1.62685   1.64748
 Alpha virt. eigenvalues --    1.67306   1.70196   1.71485   1.74655   1.79513
 Alpha virt. eigenvalues --    1.80974   1.84127   1.84672   1.85639   1.89461
 Alpha virt. eigenvalues --    1.89910   1.90467   1.94386   1.96510   1.98356
 Alpha virt. eigenvalues --    2.02686   2.04476   2.06216   2.07532   2.08127
 Alpha virt. eigenvalues --    2.09205   2.09837   2.12403   2.14746   2.15542
 Alpha virt. eigenvalues --    2.19199   2.20628   2.23495   2.24067   2.26605
 Alpha virt. eigenvalues --    2.29049   2.33310   2.35949   2.36541   2.37766
 Alpha virt. eigenvalues --    2.39131   2.40525   2.43070   2.45541   2.48660
 Alpha virt. eigenvalues --    2.51970   2.54741   2.55460   2.57975   2.65830
 Alpha virt. eigenvalues --    2.67478   2.68091   2.69235   2.76054   2.77358
 Alpha virt. eigenvalues --    2.82575   2.88714   2.91908   2.94156   2.97796
 Alpha virt. eigenvalues --    3.03700   3.09372   3.12252   3.13714   3.16094
 Alpha virt. eigenvalues --    3.23193   3.27743   3.51968   3.66579   3.68410
 Alpha virt. eigenvalues --    3.72178   3.74302   3.78097   3.80516   3.87174
 Alpha virt. eigenvalues --    3.88925   4.27133   4.30525
          Condensed to atoms (all electrons):
 Mulliken charges:
               1
     1  P   -0.155931
     2  B    1.231860
     3  O   -0.684219
     4  O   -0.681680
     5  C   -0.045541
     6  C    0.078211
     7  H   -0.187934
     8  H   -0.127295
     9  C    0.458674
    10  H   -0.178183
    11  H   -0.138793
    12  H   -0.071901
    13  H   -0.084691
    14  H   -0.079801
    15  H    0.245000
    16  H    0.230966
    17  H    0.191257
 Sum of Mulliken charges =   0.00000
 Mulliken charges with hydrogens summed into heavy atoms:
               1
     1  P    0.035326
     2  B    1.231860
     3  O   -0.439219
     4  O   -0.450714
     5  C   -0.360769
     6  C   -0.238765
     9  C    0.222280
 Electronic spatial extent (au):  <R**2>=           1273.2934
 Charge=              0.0000 electrons
 Dipole moment (field-independent basis, Debye):
    X=              0.0123    Y=             -0.5442    Z=              1.3085  Tot=              1.4172
 Unable to Open any file for archive entry.
 1\1\GINC-SE366\Stability\RHF\Aug-CC-pVDZ\C3H10B1O2P1\OHZDE\09-Apr-2025
 \0\\#t hf aug-cc-pvdz symm=none int=(grid=ultrafine) guess=(read,tchec
 k) stable=(opt,rrhf)\\title\\0,1\P,0,-0.570472,1.313413,-0.218215\B,0,
 -1.589084,-0.331762,-0.032391\O,0,-1.231092,-1.398966,-0.80064\O,0,-2.
 71221,-0.445233,0.744169\C,0,1.167855,0.680766,-0.502864\C,0,1.763636,
 -0.254914,0.555052\H,0,1.804316,1.562545,-0.631903\H,0,1.136532,0.1787
 11,-1.475576\C,0,3.197878,-0.684945,0.225879\H,0,1.128534,-1.140962,0.
 645474\H,0,1.746066,0.244355,1.530321\H,0,3.24066,-1.217653,-0.728976\
 H,0,3.597572,-1.350558,0.996125\H,0,3.865625,0.179285,0.154044\H,0,-1.
 849016,-2.134244,-0.705024\H,0,-2.911633,0.336956,1.264735\H,0,-0.4859
 48,1.607321,1.169327\\Version=ES64L-G16RevC.01\HF=-634.7323629\RMSD=6.
 632e-09\Dipole=0.004854,-0.2140923,0.514817\Quadrupole=0.9675733,-0.64
 60463,-0.321527,0.9063658,-1.4123624,2.3771305\PG=Unknown\\@
 The archive entry for this job was punched.


 NOT WHAT WE DID SHALL BE THE TEST
 WHEN ACT AND WILL ARE DONE,
 BUT WHAT OUR LORD INFERS WE WOULD-
 HAD WE DIVINER BEEN.
           EMILY DICKINSON  POEMS NO. CLXXV
 Job cpu time:       0 days  0 hours  8 minutes 37.3 seconds.
 Elapsed time:       0 days  0 hours  0 minutes 36.7 seconds.
 File lengths (MBytes):  RWF=    310 Int=      0 D2E=      0 Chk=      9 Scr=      1
 Normal termination of Gaussian 16 at Wed Apr  9 00:42:22 2025.
 Initial command:
 /arc/software/Gaussian/g16.c01/l1.exe "/tmp/slurm/4854773/Gau-196501.inp" -scrdir="/tmp/slurm/4854773/"
 Entering Link 1 = /arc/software/Gaussian/g16.c01/l1.exe PID=    196725.
  
 Copyright (c) 1988-2019, Gaussian, Inc.  All Rights Reserved.
  
 This is part of the Gaussian(R) 16 program.  It is based on
 the Gaussian(R) 09 system (copyright 2009, Gaussian, Inc.),
 the Gaussian(R) 03 system (copyright 2003, Gaussian, Inc.),
 the Gaussian(R) 98 system (copyright 1998, Gaussian, Inc.),
 the Gaussian(R) 94 system (copyright 1995, Gaussian, Inc.),
 the Gaussian 92(TM) system (copyright 1992, Gaussian, Inc.),
 the Gaussian 90(TM) system (copyright 1990, Gaussian, Inc.),
 the Gaussian 88(TM) system (copyright 1988, Gaussian, Inc.),
 the Gaussian 86(TM) system (copyright 1986, Carnegie Mellon
 University), and the Gaussian 82(TM) system (copyright 1983,
 Carnegie Mellon University). Gaussian is a federally registered
 trademark of Gaussian, Inc.
  
 This software contains proprietary and confidential information,
 including trade secrets, belonging to Gaussian, Inc.
  
 This software is provided under written license and may be
 used, copied, transmitted, or stored only in accord with that
 written license.
  
 The following legend is applicable only to US Government
 contracts under FAR:
  
                    RESTRICTED RIGHTS LEGEND
  
 Use, reproduction and disclosure by the US Government is
 subject to restrictions as set forth in subparagraphs (a)
 and (c) of the Commercial Computer Software - Restricted
 Rights clause in FAR 52.227-19.
  
 Gaussian, Inc.
 340 Quinnipiac St., Bldg. 40, Wallingford CT 06492
  
  
 ---------------------------------------------------------------
 Warning -- This program may not be used in any manner that
 competes with the business of Gaussian, Inc. or will provide
 assistance to any competitor of Gaussian, Inc.  The licensee
 of this program is prohibited from giving any competitor of
 Gaussian, Inc. access to this program.  By using this program,
 the user acknowledges that Gaussian, Inc. is engaged in the
 business of creating and licensing software in the field of
 computational chemistry and represents and warrants to the
 licensee that it is not a competitor of Gaussian, Inc. and that
 it will not use this program in any manner prohibited above.
 ---------------------------------------------------------------
  

 Cite this work as:
 Gaussian 16, Revision C.01,
 M. J. Frisch, G. W. Trucks, H. B. Schlegel, G. E. Scuseria, 
 M. A. Robb, J. R. Cheeseman, G. Scalmani, V. Barone, 
 G. A. Petersson, H. Nakatsuji, X. Li, M. Caricato, A. V. Marenich, 
 J. Bloino, B. G. Janesko, R. Gomperts, B. Mennucci, H. P. Hratchian, 
 J. V. Ortiz, A. F. Izmaylov, J. L. Sonnenberg, D. Williams-Young, 
 F. Ding, F. Lipparini, F. Egidi, J. Goings, B. Peng, A. Petrone, 
 T. Henderson, D. Ranasinghe, V. G. Zakrzewski, J. Gao, N. Rega, 
 G. Zheng, W. Liang, M. Hada, M. Ehara, K. Toyota, R. Fukuda, 
 J. Hasegawa, M. Ishida, T. Nakajima, Y. Honda, O. Kitao, H. Nakai, 
 T. Vreven, K. Throssell, J. A. Montgomery, Jr., J. E. Peralta, 
 F. Ogliaro, M. J. Bearpark, J. J. Heyd, E. N. Brothers, K. N. Kudin, 
 V. N. Staroverov, T. A. Keith, R. Kobayashi, J. Normand, 
 K. Raghavachari, A. P. Rendell, J. C. Burant, S. S. Iyengar, 
 J. Tomasi, M. Cossi, J. M. Millam, M. Klene, C. Adamo, R. Cammi, 
 J. W. Ochterski, R. L. Martin, K. Morokuma, O. Farkas, 
 J. B. Foresman, and D. J. Fox, Gaussian, Inc., Wallingford CT, 2019.
 
 ******************************************
 Gaussian 16:  ES64L-G16RevC.01  3-Jul-2019
                 9-Apr-2025 
 ******************************************
 %nprocs=16
 Will use up to   16 processors via shared memory.
 %mem=30GB
 %chk=BDE49_nonexpt_684_mol1.chk
 ----------------------------------------------------------------------
 #t hf aug-cc-pvdz iop(5/13=1,5/36=2,99/5=2) pseudo=read geom=check gue
 ss=(read,tcheck) scf=(maxcycle=1)
 ----------------------------------------------------------------------
 -----
 title
 -----
 Structure from the checkpoint file:  "BDE49_nonexpt_684_mol1.chk"
 Charge =  0 Multiplicity = 1
 Z-Matrix found in chk file.
 P,0,-0.570472,1.313413,-0.218215
 B,0,-1.589084,-0.331762,-0.032391
 O,0,-1.231092,-1.398966,-0.80064
 O,0,-2.71221,-0.445233,0.744169
 C,0,1.167855,0.680766,-0.502864
 C,0,1.763636,-0.254914,0.555052
 H,0,1.804316,1.562545,-0.631903
 H,0,1.136532,0.178711,-1.475576
 C,0,3.197878,-0.684945,0.225879
 H,0,1.128534,-1.140962,0.645474
 H,0,1.746066,0.244355,1.530321
 H,0,3.24066,-1.217653,-0.728976
 H,0,3.597572,-1.350558,0.996125
 H,0,3.865625,0.179285,0.154044
 H,0,-1.849016,-2.134244,-0.705024
 H,0,-2.911633,0.336956,1.264735
 H,0,-0.485948,1.607321,1.169327
 Recover connectivity data from disk.
                    Distance matrix (angstroms):
                    1          2          3          4          5
     1  P    0.000000
     2  B    1.943888   0.000000
     3  O    2.851778   1.362824   0.000000
     4  O    2.933609   1.370158   2.343022   0.000000
     5  C    1.871643   2.974436   3.188872   4.228223   0.000000
     6  C    2.916445   3.404662   3.480683   4.483880   1.532853
     7  H    2.423391   3.932299   4.244140   5.130668   1.095111
     8  H    2.404655   3.126076   2.924080   4.486579   1.095084
     9  C    4.288486   4.806917   4.602102   5.937611   2.552886
    10  H    3.107497   2.915434   2.779505   3.904497   2.153815
    11  H    3.092994   3.727896   4.122785   4.579278   2.158385
    12  H    4.603466   4.959482   4.476000   6.180894   2.819866
    13  H    5.093521   5.384904   5.152349   6.379376   3.503822
    14  H    4.593885   5.481768   5.420223   6.633716   2.821520
    15  H    3.709177   1.941376   0.965198   2.387053   4.131182
    16  H    2.938306   1.969481   3.178587   0.960509   4.459241
    17  H    1.420844   2.533985   3.670664   3.057774   2.527804
                    6          7          8          9         10
     6  C    0.000000
     7  H    2.171100   0.000000
     8  H    2.169041   1.752916   0.000000
     9  C    1.533079   2.780111   2.808914   0.000000
    10  H    1.093898   3.065505   2.498090   2.160138   0.000000
    11  H    1.095777   2.533028   3.067777   2.161695   1.755962
    12  H    2.181099   3.130816   2.633363   1.094238   2.521125
    13  H    2.181353   3.788458   3.808502   1.093652   2.502606
    14  H    2.183505   2.603866   3.178618   1.094504   3.078347
    15  H    4.262737   5.197926   3.854479   5.332747   3.417054
    16  H    4.765721   5.228717   4.891011   6.280894   4.346340
    17  H    2.984272   2.914060   3.415974   4.440175   3.230175
                   11         12         13         14         15
    11  H    0.000000
    12  H    3.078263   0.000000
    13  H    2.501437   1.766642   0.000000
    14  H    2.528024   1.766845   1.766741   0.000000
    15  H    4.855833   5.171607   5.759635   6.224752   0.000000
    16  H    4.666184   6.651496   6.729755   6.869477   3.334057
    17  H    2.640053   5.046944   5.045214   4.691085   4.401188
                   16         17
    16  H    0.000000
    17  H    2.739868   0.000000
 Framework group  C1[X(C3H10BO2P)]
 Deg. of freedom    45
                         Standard orientation:                         
 ---------------------------------------------------------------------
 Center     Atomic      Atomic             Coordinates (Angstroms)
 Number     Number       Type             X           Y           Z
 ---------------------------------------------------------------------
      1         15           0       -0.570472    1.313413   -0.218215
      2          5           0       -1.589084   -0.331762   -0.032391
      3          8           0       -1.231092   -1.398966   -0.800640
      4          8           0       -2.712210   -0.445233    0.744169
      5          6           0        1.167855    0.680766   -0.502864
      6          6           0        1.763636   -0.254914    0.555052
      7          1           0        1.804316    1.562545   -0.631903
      8          1           0        1.136532    0.178711   -1.475576
      9          6           0        3.197878   -0.684945    0.225879
     10          1           0        1.128534   -1.140962    0.645474
     11          1           0        1.746066    0.244355    1.530321
     12          1           0        3.240660   -1.217653   -0.728976
     13          1           0        3.597572   -1.350558    0.996125
     14          1           0        3.865625    0.179285    0.154044
     15          1           0       -1.849016   -2.134244   -0.705024
     16          1           0       -2.911633    0.336956    1.264735
     17          1           0       -0.485948    1.607321    1.169327
 ---------------------------------------------------------------------
 Rotational constants (GHZ):           3.2851585           1.1159139           0.9532122
 ======================================================================================================
                                       Pseudopotential Parameters
 ======================================================================================================
  Center     Atomic      Valence      Angular      Power
  Number     Number     Electrons     Momentum     of R      Exponent        Coefficient   SO-Coeffient
 ======================================================================================================
    1         15           15
                                      G and up 
                                                     0        0.0000010       -0.00145681    0.00000000
                                                     2        0.1200000        0.02697735    0.00000000
                                                     2        0.1400000        0.02594622    0.00000000
                                                     2        0.2600000       -0.05991007    0.00000000
                                                     2        0.6000000       -2.12394768    0.00000000
                                                     2        1.6000000       12.29328771    0.00000000
                                      S - G
                                                     0        0.0000010       -0.08137818    0.00000000
                                                     2        0.1200000        0.02366916    0.00000000
                                                     2        0.2600000       -0.53803258    0.00000000
                                                     2        1.1000000        1.71477614    0.00000000
                                      P - G
                                                     0        0.0000010        0.47741067    0.00000000
                                                     2        0.1600000       -1.08317867    0.00000000
                                                     2        0.3000000        2.71093215    0.00000000
                                                     2        0.8000000       -7.73495474    0.00000000
                                      D - G
                                                     0        0.0000010        0.42779013    0.00000000
                                                     2        0.1200000       -0.35854051    0.00000000
                                                     2        0.4000000        1.12806605    0.00000000
                                      F - G
                                                     0        0.0000010       -0.49842471    0.00000000
                                                     2        0.1400000        0.07039594    0.00000000
                                                     2        0.2200000        0.02972181    0.00000000
    2          5            5
                                      G and up 
                                                     0        0.0000010        0.00322401    0.00000000
                                                     2        0.1200000        0.00498000    0.00000000
                                                     2        0.2000000        0.09485229    0.00000000
                                                     2        0.2400000        0.01359109    0.00000000
                                                     2        0.4000000       -0.77574495    0.00000000
                                                     2        0.7000000        4.88158264    0.00000000
                                                     2        3.0000000       -1.47570482    0.00000000
                                      S - G
                                                     0        0.0000010       -0.03355475    0.00000000
                                                     2        0.1200000        0.61074044    0.00000000
                                                     2        0.2000000       -2.07118504    0.00000000
                                      P - G
                                                     0        0.0000010       -1.02759347    0.00000000
                                                     2        0.1200000        0.64674346    0.00000000
                                                     2        0.2000000       -0.92012472    0.00000000
                                      D - G
                                                     0        0.0000010        1.26102689    0.00000000
                                                     2        0.1200000       -0.86577517    0.00000000
                                                     2        0.4000000        3.34267170    0.00000000
                                                     2        0.9000000      -12.60945446    0.00000000
                                      F - G
                                                     0        0.0000010       -0.36092963    0.00000000
                                                     2        0.1200000       -0.17118798    0.00000000
                                                     2        0.1600000        0.78727920    0.00000000
                                                     2        0.8000000       -6.62088660    0.00000000
                                                     2        1.0000000      -57.27416670    0.00000000
    3          8            8
                                      G and up 
                                                     0        0.0000010       -0.00165251    0.00000000
                                                     2        0.1200000       -0.10937202    0.00000000
                                                     2        0.1400000        0.35668905    0.00000000
                                                     2        0.1800000       -0.51696033    0.00000000
                                                     2        0.2400000        0.52446472    0.00000000
                                                     2        0.4000000       -0.07754493    0.00000000
                                                     2        0.8000000       -1.90560988    0.00000000
                                                     2        1.7000000        0.19857963    0.00000000
                                      S - G
                                                     0        0.0000010       -0.03845181    0.00000000
                                                     2        0.1400000        0.42024558    0.00000000
                                                     2        0.4000000       -4.10467779    0.00000000
                                                     2        1.3000000        9.99571838    0.00000000
                                      P - G
                                                     0        0.0000010        0.33206183    0.00000000
                                                     2        0.1200000       -0.18708141    0.00000000
                                                     2        0.2800000       -0.18179081    0.00000000
                                                     2        0.7000000        1.18820394    0.00000000
                                      D - G
                                                     0        0.0000010       -0.57891674    0.00000000
                                                     2        0.1200000        0.60487490    0.00000000
                                                     2        0.2400000       -0.24931464    0.00000000
                                                     2        0.3000000       -2.75054612    0.00000000
                                                     2        1.0000000       15.96776040    0.00000000
                                      F - G
                                                     0        0.0000010        0.37449041    0.00000000
                                                     2        0.1200000       -0.63373642    0.00000000
                                                     2        0.1400000       -0.08412804    0.00000000
                                                     2        0.2800000        2.62321406    0.00000000
                                                     2        0.6000000       -2.68223623    0.00000000
    4          8            8
                                      G and up 
                                                     0        0.0000010       -0.00165251    0.00000000
                                                     2        0.1200000       -0.10937202    0.00000000
                                                     2        0.1400000        0.35668905    0.00000000
                                                     2        0.1800000       -0.51696033    0.00000000
                                                     2        0.2400000        0.52446472    0.00000000
                                                     2        0.4000000       -0.07754493    0.00000000
                                                     2        0.8000000       -1.90560988    0.00000000
                                                     2        1.7000000        0.19857963    0.00000000
                                      S - G
                                                     0        0.0000010       -0.03845181    0.00000000
                                                     2        0.1400000        0.42024558    0.00000000
                                                     2        0.4000000       -4.10467779    0.00000000
                                                     2        1.3000000        9.99571838    0.00000000
                                      P - G
                                                     0        0.0000010        0.33206183    0.00000000
                                                     2        0.1200000       -0.18708141    0.00000000
                                                     2        0.2800000       -0.18179081    0.00000000
                                                     2        0.7000000        1.18820394    0.00000000
                                      D - G
                                                     0        0.0000010       -0.57891674    0.00000000
                                                     2        0.1200000        0.60487490    0.00000000
                                                     2        0.2400000       -0.24931464    0.00000000
                                                     2        0.3000000       -2.75054612    0.00000000
                                                     2        1.0000000       15.96776040    0.00000000
                                      F - G
                                                     0        0.0000010        0.37449041    0.00000000
                                                     2        0.1200000       -0.63373642    0.00000000
                                                     2        0.1400000       -0.08412804    0.00000000
                                                     2        0.2800000        2.62321406    0.00000000
                                                     2        0.6000000       -2.68223623    0.00000000
    5          6            6
                                      G and up 
                                                     0        0.0000010       -0.00286759    0.00000000
                                                     2        0.1200000        0.03193960    0.00000000
                                                     2        0.1600000       -0.04027782    0.00000000
                                                     2        0.2600000        0.24782456    0.00000000
                                                     2        0.4000000       -0.62266671    0.00000000
                                                     2        0.7000000        0.35695227    0.00000000
                                      S - G
                                                     0        0.0000010       -0.06602313    0.00000000
                                                     2        0.1200000        1.47277455    0.00000000
                                                     2        0.1600000       -4.06924166    0.00000000
                                                     2        0.3000000        5.02952802    0.00000000
                                                     2        0.7000000       -5.65856978    0.00000000
                                                     2        1.7000000        8.57604414    0.00000000
                                      P - G
                                                     0        0.0000010        0.49434425    0.00000000
                                                     2        0.1200000       -1.37391547    0.00000000
                                                     2        0.1600000        3.65411806    0.00000000
                                                     2        0.2800000       -7.36479843    0.00000000
                                                     2        0.6000000       17.22091285    0.00000000
                                                     2        1.1000000      -23.50107827    0.00000000
                                                     2        3.0000000       16.29464063    0.00000000
                                      D - G
                                                     0        0.0000010       -0.28693103    0.00000000
                                                     2        0.1200000        0.12273044    0.00000000
                                                     2        0.3000000       -0.43416384    0.00000000
                                                     2        0.7000000        2.23358493    0.00000000
                                      F - G
                                                     0        0.0000010        0.07263570    0.00000000
                                                     2        0.1400000       -0.76152861    0.00000000
                                                     2        0.2200000        1.98045593    0.00000000
                                                     2        0.4000000       -2.42426427    0.00000000
                                                     2        0.7000000        0.52335237    0.00000000
    6          6            6
                                      G and up 
                                                     0        0.0000010       -0.00286759    0.00000000
                                                     2        0.1200000        0.03193960    0.00000000
                                                     2        0.1600000       -0.04027782    0.00000000
                                                     2        0.2600000        0.24782456    0.00000000
                                                     2        0.4000000       -0.62266671    0.00000000
                                                     2        0.7000000        0.35695227    0.00000000
                                      S - G
                                                     0        0.0000010       -0.06602313    0.00000000
                                                     2        0.1200000        1.47277455    0.00000000
                                                     2        0.1600000       -4.06924166    0.00000000
                                                     2        0.3000000        5.02952802    0.00000000
                                                     2        0.7000000       -5.65856978    0.00000000
                                                     2        1.7000000        8.57604414    0.00000000
                                      P - G
                                                     0        0.0000010        0.49434425    0.00000000
                                                     2        0.1200000       -1.37391547    0.00000000
                                                     2        0.1600000        3.65411806    0.00000000
                                                     2        0.2800000       -7.36479843    0.00000000
                                                     2        0.6000000       17.22091285    0.00000000
                                                     2        1.1000000      -23.50107827    0.00000000
                                                     2        3.0000000       16.29464063    0.00000000
                                      D - G
                                                     0        0.0000010       -0.28693103    0.00000000
                                                     2        0.1200000        0.12273044    0.00000000
                                                     2        0.3000000       -0.43416384    0.00000000
                                                     2        0.7000000        2.23358493    0.00000000
                                      F - G
                                                     0        0.0000010        0.07263570    0.00000000
                                                     2        0.1400000       -0.76152861    0.00000000
                                                     2        0.2200000        1.98045593    0.00000000
                                                     2        0.4000000       -2.42426427    0.00000000
                                                     2        0.7000000        0.52335237    0.00000000
    7          1            1
                                      F and up 
                                                     0        0.0000010        0.00072061    0.00000000
                                                     2        0.1200000        0.03832357    0.00000000
                                                     2        0.1400000       -0.08683256    0.00000000
                                                     2        0.1800000        0.09312970    0.00000000
                                                     2        0.2800000       -0.02532572    0.00000000
                                                     2        0.4000000       -0.09430787    0.00000000
                                                     2        0.7000000        0.42710831    0.00000000
                                                     2        1.2000000       -2.11746981    0.00000000
                                      S - F
                                                     0        0.0000010        0.14449603    0.00000000
                                                     2        0.1200000       -0.56378993    0.00000000
                                                     2        0.1400000        0.63941249    0.00000000
                                                     2        0.2600000       -0.58461015    0.00000000
                                                     2        0.5000000        1.00157293    0.00000000
                                                     2        1.8000000       -0.14135838    0.00000000
                                      P - F
                                                     0        0.0000010       -0.09353646    0.00000000
                                                     2        0.1200000        0.31768975    0.00000000
                                                     2        0.2000000       -0.71747951    0.00000000
                                                     2        0.4000000        0.65752308    0.00000000
                                                     2        1.7000000        2.94052587    0.00000000
                                      D - F
                                                     0        0.0000010       -0.04491202    0.00000000
                                                     2        0.1200000       -0.02862031    0.00000000
                                                     2        0.1800000       -0.21515263    0.00000000
                                                     2        0.3000000        0.80560647    0.00000000
                                                     2        0.4000000        0.47351754    0.00000000
                                                     2        0.7000000       -4.57051794    0.00000000
                                                     2        1.6000000       18.53737826    0.00000000
    8          1            1
                                      F and up 
                                                     0        0.0000010        0.00072061    0.00000000
                                                     2        0.1200000        0.03832357    0.00000000
                                                     2        0.1400000       -0.08683256    0.00000000
                                                     2        0.1800000        0.09312970    0.00000000
                                                     2        0.2800000       -0.02532572    0.00000000
                                                     2        0.4000000       -0.09430787    0.00000000
                                                     2        0.7000000        0.42710831    0.00000000
                                                     2        1.2000000       -2.11746981    0.00000000
                                      S - F
                                                     0        0.0000010        0.14449603    0.00000000
                                                     2        0.1200000       -0.56378993    0.00000000
                                                     2        0.1400000        0.63941249    0.00000000
                                                     2        0.2600000       -0.58461015    0.00000000
                                                     2        0.5000000        1.00157293    0.00000000
                                                     2        1.8000000       -0.14135838    0.00000000
                                      P - F
                                                     0        0.0000010       -0.09353646    0.00000000
                                                     2        0.1200000        0.31768975    0.00000000
                                                     2        0.2000000       -0.71747951    0.00000000
                                                     2        0.4000000        0.65752308    0.00000000
                                                     2        1.7000000        2.94052587    0.00000000
                                      D - F
                                                     0        0.0000010       -0.04491202    0.00000000
                                                     2        0.1200000       -0.02862031    0.00000000
                                                     2        0.1800000       -0.21515263    0.00000000
                                                     2        0.3000000        0.80560647    0.00000000
                                                     2        0.4000000        0.47351754    0.00000000
                                                     2        0.7000000       -4.57051794    0.00000000
                                                     2        1.6000000       18.53737826    0.00000000
    9          6            6
                                      G and up 
                                                     0        0.0000010       -0.00286759    0.00000000
                                                     2        0.1200000        0.03193960    0.00000000
                                                     2        0.1600000       -0.04027782    0.00000000
                                                     2        0.2600000        0.24782456    0.00000000
                                                     2        0.4000000       -0.62266671    0.00000000
                                                     2        0.7000000        0.35695227    0.00000000
                                      S - G
                                                     0        0.0000010       -0.06602313    0.00000000
                                                     2        0.1200000        1.47277455    0.00000000
                                                     2        0.1600000       -4.06924166    0.00000000
                                                     2        0.3000000        5.02952802    0.00000000
                                                     2        0.7000000       -5.65856978    0.00000000
                                                     2        1.7000000        8.57604414    0.00000000
                                      P - G
                                                     0        0.0000010        0.49434425    0.00000000
                                                     2        0.1200000       -1.37391547    0.00000000
                                                     2        0.1600000        3.65411806    0.00000000
                                                     2        0.2800000       -7.36479843    0.00000000
                                                     2        0.6000000       17.22091285    0.00000000
                                                     2        1.1000000      -23.50107827    0.00000000
                                                     2        3.0000000       16.29464063    0.00000000
                                      D - G
                                                     0        0.0000010       -0.28693103    0.00000000
                                                     2        0.1200000        0.12273044    0.00000000
                                                     2        0.3000000       -0.43416384    0.00000000
                                                     2        0.7000000        2.23358493    0.00000000
                                      F - G
                                                     0        0.0000010        0.07263570    0.00000000
                                                     2        0.1400000       -0.76152861    0.00000000
                                                     2        0.2200000        1.98045593    0.00000000
                                                     2        0.4000000       -2.42426427    0.00000000
                                                     2        0.7000000        0.52335237    0.00000000
   10          1            1
                                      F and up 
                                                     0        0.0000010        0.00072061    0.00000000
                                                     2        0.1200000        0.03832357    0.00000000
                                                     2        0.1400000       -0.08683256    0.00000000
                                                     2        0.1800000        0.09312970    0.00000000
                                                     2        0.2800000       -0.02532572    0.00000000
                                                     2        0.4000000       -0.09430787    0.00000000
                                                     2        0.7000000        0.42710831    0.00000000
                                                     2        1.2000000       -2.11746981    0.00000000
                                      S - F
                                                     0        0.0000010        0.14449603    0.00000000
                                                     2        0.1200000       -0.56378993    0.00000000
                                                     2        0.1400000        0.63941249    0.00000000
                                                     2        0.2600000       -0.58461015    0.00000000
                                                     2        0.5000000        1.00157293    0.00000000
                                                     2        1.8000000       -0.14135838    0.00000000
                                      P - F
                                                     0        0.0000010       -0.09353646    0.00000000
                                                     2        0.1200000        0.31768975    0.00000000
                                                     2        0.2000000       -0.71747951    0.00000000
                                                     2        0.4000000        0.65752308    0.00000000
                                                     2        1.7000000        2.94052587    0.00000000
                                      D - F
                                                     0        0.0000010       -0.04491202    0.00000000
                                                     2        0.1200000       -0.02862031    0.00000000
                                                     2        0.1800000       -0.21515263    0.00000000
                                                     2        0.3000000        0.80560647    0.00000000
                                                     2        0.4000000        0.47351754    0.00000000
                                                     2        0.7000000       -4.57051794    0.00000000
                                                     2        1.6000000       18.53737826    0.00000000
   11          1            1
                                      F and up 
                                                     0        0.0000010        0.00072061    0.00000000
                                                     2        0.1200000        0.03832357    0.00000000
                                                     2        0.1400000       -0.08683256    0.00000000
                                                     2        0.1800000        0.09312970    0.00000000
                                                     2        0.2800000       -0.02532572    0.00000000
                                                     2        0.4000000       -0.09430787    0.00000000
                                                     2        0.7000000        0.42710831    0.00000000
                                                     2        1.2000000       -2.11746981    0.00000000
                                      S - F
                                                     0        0.0000010        0.14449603    0.00000000
                                                     2        0.1200000       -0.56378993    0.00000000
                                                     2        0.1400000        0.63941249    0.00000000
                                                     2        0.2600000       -0.58461015    0.00000000
                                                     2        0.5000000        1.00157293    0.00000000
                                                     2        1.8000000       -0.14135838    0.00000000
                                      P - F
                                                     0        0.0000010       -0.09353646    0.00000000
                                                     2        0.1200000        0.31768975    0.00000000
                                                     2        0.2000000       -0.71747951    0.00000000
                                                     2        0.4000000        0.65752308    0.00000000
                                                     2        1.7000000        2.94052587    0.00000000
                                      D - F
                                                     0        0.0000010       -0.04491202    0.00000000
                                                     2        0.1200000       -0.02862031    0.00000000
                                                     2        0.1800000       -0.21515263    0.00000000
                                                     2        0.3000000        0.80560647    0.00000000
                                                     2        0.4000000        0.47351754    0.00000000
                                                     2        0.7000000       -4.57051794    0.00000000
                                                     2        1.6000000       18.53737826    0.00000000
   12          1            1
                                      F and up 
                                                     0        0.0000010        0.00072061    0.00000000
                                                     2        0.1200000        0.03832357    0.00000000
                                                     2        0.1400000       -0.08683256    0.00000000
                                                     2        0.1800000        0.09312970    0.00000000
                                                     2        0.2800000       -0.02532572    0.00000000
                                                     2        0.4000000       -0.09430787    0.00000000
                                                     2        0.7000000        0.42710831    0.00000000
                                                     2        1.2000000       -2.11746981    0.00000000
                                      S - F
                                                     0        0.0000010        0.14449603    0.00000000
                                                     2        0.1200000       -0.56378993    0.00000000
                                                     2        0.1400000        0.63941249    0.00000000
                                                     2        0.2600000       -0.58461015    0.00000000
                                                     2        0.5000000        1.00157293    0.00000000
                                                     2        1.8000000       -0.14135838    0.00000000
                                      P - F
                                                     0        0.0000010       -0.09353646    0.00000000
                                                     2        0.1200000        0.31768975    0.00000000
                                                     2        0.2000000       -0.71747951    0.00000000
                                                     2        0.4000000        0.65752308    0.00000000
                                                     2        1.7000000        2.94052587    0.00000000
                                      D - F
                                                     0        0.0000010       -0.04491202    0.00000000
                                                     2        0.1200000       -0.02862031    0.00000000
                                                     2        0.1800000       -0.21515263    0.00000000
                                                     2        0.3000000        0.80560647    0.00000000
                                                     2        0.4000000        0.47351754    0.00000000
                                                     2        0.7000000       -4.57051794    0.00000000
                                                     2        1.6000000       18.53737826    0.00000000
   13          1            1
                                      F and up 
                                                     0        0.0000010        0.00072061    0.00000000
                                                     2        0.1200000        0.03832357    0.00000000
                                                     2        0.1400000       -0.08683256    0.00000000
                                                     2        0.1800000        0.09312970    0.00000000
                                                     2        0.2800000       -0.02532572    0.00000000
                                                     2        0.4000000       -0.09430787    0.00000000
                                                     2        0.7000000        0.42710831    0.00000000
                                                     2        1.2000000       -2.11746981    0.00000000
                                      S - F
                                                     0        0.0000010        0.14449603    0.00000000
                                                     2        0.1200000       -0.56378993    0.00000000
                                                     2        0.1400000        0.63941249    0.00000000
                                                     2        0.2600000       -0.58461015    0.00000000
                                                     2        0.5000000        1.00157293    0.00000000
                                                     2        1.8000000       -0.14135838    0.00000000
                                      P - F
                                                     0        0.0000010       -0.09353646    0.00000000
                                                     2        0.1200000        0.31768975    0.00000000
                                                     2        0.2000000       -0.71747951    0.00000000
                                                     2        0.4000000        0.65752308    0.00000000
                                                     2        1.7000000        2.94052587    0.00000000
                                      D - F
                                                     0        0.0000010       -0.04491202    0.00000000
                                                     2        0.1200000       -0.02862031    0.00000000
                                                     2        0.1800000       -0.21515263    0.00000000
                                                     2        0.3000000        0.80560647    0.00000000
                                                     2        0.4000000        0.47351754    0.00000000
                                                     2        0.7000000       -4.57051794    0.00000000
                                                     2        1.6000000       18.53737826    0.00000000
   14          1            1
                                      F and up 
                                                     0        0.0000010        0.00072061    0.00000000
                                                     2        0.1200000        0.03832357    0.00000000
                                                     2        0.1400000       -0.08683256    0.00000000
                                                     2        0.1800000        0.09312970    0.00000000
                                                     2        0.2800000       -0.02532572    0.00000000
                                                     2        0.4000000       -0.09430787    0.00000000
                                                     2        0.7000000        0.42710831    0.00000000
                                                     2        1.2000000       -2.11746981    0.00000000
                                      S - F
                                                     0        0.0000010        0.14449603    0.00000000
                                                     2        0.1200000       -0.56378993    0.00000000
                                                     2        0.1400000        0.63941249    0.00000000
                                                     2        0.2600000       -0.58461015    0.00000000
                                                     2        0.5000000        1.00157293    0.00000000
                                                     2        1.8000000       -0.14135838    0.00000000
                                      P - F
                                                     0        0.0000010       -0.09353646    0.00000000
                                                     2        0.1200000        0.31768975    0.00000000
                                                     2        0.2000000       -0.71747951    0.00000000
                                                     2        0.4000000        0.65752308    0.00000000
                                                     2        1.7000000        2.94052587    0.00000000
                                      D - F
                                                     0        0.0000010       -0.04491202    0.00000000
                                                     2        0.1200000       -0.02862031    0.00000000
                                                     2        0.1800000       -0.21515263    0.00000000
                                                     2        0.3000000        0.80560647    0.00000000
                                                     2        0.4000000        0.47351754    0.00000000
                                                     2        0.7000000       -4.57051794    0.00000000
                                                     2        1.6000000       18.53737826    0.00000000
   15          1            1
                                      F and up 
                                                     0        0.0000010        0.00072061    0.00000000
                                                     2        0.1200000        0.03832357    0.00000000
                                                     2        0.1400000       -0.08683256    0.00000000
                                                     2        0.1800000        0.09312970    0.00000000
                                                     2        0.2800000       -0.02532572    0.00000000
                                                     2        0.4000000       -0.09430787    0.00000000
                                                     2        0.7000000        0.42710831    0.00000000
                                                     2        1.2000000       -2.11746981    0.00000000
                                      S - F
                                                     0        0.0000010        0.14449603    0.00000000
                                                     2        0.1200000       -0.56378993    0.00000000
                                                     2        0.1400000        0.63941249    0.00000000
                                                     2        0.2600000       -0.58461015    0.00000000
                                                     2        0.5000000        1.00157293    0.00000000
                                                     2        1.8000000       -0.14135838    0.00000000
                                      P - F
                                                     0        0.0000010       -0.09353646    0.00000000
                                                     2        0.1200000        0.31768975    0.00000000
                                                     2        0.2000000       -0.71747951    0.00000000
                                                     2        0.4000000        0.65752308    0.00000000
                                                     2        1.7000000        2.94052587    0.00000000
                                      D - F
                                                     0        0.0000010       -0.04491202    0.00000000
                                                     2        0.1200000       -0.02862031    0.00000000
                                                     2        0.1800000       -0.21515263    0.00000000
                                                     2        0.3000000        0.80560647    0.00000000
                                                     2        0.4000000        0.47351754    0.00000000
                                                     2        0.7000000       -4.57051794    0.00000000
                                                     2        1.6000000       18.53737826    0.00000000
   16          1            1
                                      F and up 
                                                     0        0.0000010        0.00072061    0.00000000
                                                     2        0.1200000        0.03832357    0.00000000
                                                     2        0.1400000       -0.08683256    0.00000000
                                                     2        0.1800000        0.09312970    0.00000000
                                                     2        0.2800000       -0.02532572    0.00000000
                                                     2        0.4000000       -0.09430787    0.00000000
                                                     2        0.7000000        0.42710831    0.00000000
                                                     2        1.2000000       -2.11746981    0.00000000
                                      S - F
                                                     0        0.0000010        0.14449603    0.00000000
                                                     2        0.1200000       -0.56378993    0.00000000
                                                     2        0.1400000        0.63941249    0.00000000
                                                     2        0.2600000       -0.58461015    0.00000000
                                                     2        0.5000000        1.00157293    0.00000000
                                                     2        1.8000000       -0.14135838    0.00000000
                                      P - F
                                                     0        0.0000010       -0.09353646    0.00000000
                                                     2        0.1200000        0.31768975    0.00000000
                                                     2        0.2000000       -0.71747951    0.00000000
                                                     2        0.4000000        0.65752308    0.00000000
                                                     2        1.7000000        2.94052587    0.00000000
                                      D - F
                                                     0        0.0000010       -0.04491202    0.00000000
                                                     2        0.1200000       -0.02862031    0.00000000
                                                     2        0.1800000       -0.21515263    0.00000000
                                                     2        0.3000000        0.80560647    0.00000000
                                                     2        0.4000000        0.47351754    0.00000000
                                                     2        0.7000000       -4.57051794    0.00000000
                                                     2        1.6000000       18.53737826    0.00000000
   17          1            1
                                      F and up 
                                                     0        0.0000010        0.00072061    0.00000000
                                                     2        0.1200000        0.03832357    0.00000000
                                                     2        0.1400000       -0.08683256    0.00000000
                                                     2        0.1800000        0.09312970    0.00000000
                                                     2        0.2800000       -0.02532572    0.00000000
                                                     2        0.4000000       -0.09430787    0.00000000
                                                     2        0.7000000        0.42710831    0.00000000
                                                     2        1.2000000       -2.11746981    0.00000000
                                      S - F
                                                     0        0.0000010        0.14449603    0.00000000
                                                     2        0.1200000       -0.56378993    0.00000000
                                                     2        0.1400000        0.63941249    0.00000000
                                                     2        0.2600000       -0.58461015    0.00000000
                                                     2        0.5000000        1.00157293    0.00000000
                                                     2        1.8000000       -0.14135838    0.00000000
                                      P - F
                                                     0        0.0000010       -0.09353646    0.00000000
                                                     2        0.1200000        0.31768975    0.00000000
                                                     2        0.2000000       -0.71747951    0.00000000
                                                     2        0.4000000        0.65752308    0.00000000
                                                     2        1.7000000        2.94052587    0.00000000
                                      D - F
                                                     0        0.0000010       -0.04491202    0.00000000
                                                     2        0.1200000       -0.02862031    0.00000000
                                                     2        0.1800000       -0.21515263    0.00000000
                                                     2        0.3000000        0.80560647    0.00000000
                                                     2        0.4000000        0.47351754    0.00000000
                                                     2        0.7000000       -4.57051794    0.00000000
                                                     2        1.6000000       18.53737826    0.00000000
 ======================================================================================================
   255 basis functions,   449 primitive gaussians,   269 cartesian basis functions
    32 alpha electrons       32 beta electrons
       nuclear repulsion energy       361.6400317750 Hartrees.
 NAtoms=   17 NActive=   17 NUniq=   17 SFac= 1.00D+00 NAtFMM=   60 NAOKFM=F Big=F
   1 Symmetry operations used in ECPInt.
 ECPInt:  NShTT=    6670 NPrTT=   32048 LenC2=    6627 LenP2D=   24111.
 LDataN:  DoStor=T MaxTD1= 6 Len=  172
 Initial guess from the checkpoint file:  "BDE49_nonexpt_684_mol1.chk"
 B after Tr=    -0.000000    0.000000   -0.000000
         Rot=    1.000000    0.000000   -0.000000    0.000000 Ang=   0.00 deg.
 >>>>>>>>>> Convergence criterion not met.
 SCF Done:  E(RHF) =  -636.268999360     A.U. after    2 cycles
            NFock=  1  Conv=0.31D+00     -V/T= 2.1516

 **********************************************************************

            Population analysis using the SCF Density.

 **********************************************************************

 Orbital symmetries:
       Occupied  (A) (A) (A) (A) (A) (A) (A) (A) (A) (A) (A) (A)
                 (A) (A) (A) (A) (A) (A) (A) (A) (A) (A) (A) (A)
                 (A) (A) (A) (A) (A) (A) (A) (A)
       Virtual   (A) (A) (A) (A) (A) (A) (A) (A) (A) (A) (A) (A)
                 (A) (A) (A) (A) (A) (A) (A) (A) (A) (A) (A) (A)
                 (A) (A) (A) (A) (A) (A) (A) (A) (A) (A) (A) (A)
                 (A) (A) (A) (A) (A) (A) (A) (A) (A) (A) (A) (A)
                 (A) (A) (A) (A) (A) (A) (A) (A) (A) (A) (A) (A)
                 (A) (A) (A) (A) (A) (A) (A) (A) (A) (A) (A) (A)
                 (A) (A) (A) (A) (A) (A) (A) (A) (A) (A) (A) (A)
                 (A) (A) (A) (A) (A) (A) (A) (A) (A) (A) (A) (A)
                 (A) (A) (A) (A) (A) (A) (A) (A) (A) (A) (A) (A)
                 (A) (A) (A) (A) (A) (A) (A) (A) (A) (A) (A) (A)
                 (A) (A) (A) (A) (A) (A) (A) (A) (A) (A) (A) (A)
                 (A) (A) (A) (A) (A) (A) (A) (A) (A) (A) (A) (A)
                 (A) (A) (A) (A) (A) (A) (A) (A) (A) (A) (A) (A)
                 (A) (A) (A) (A) (A) (A) (A) (A) (A) (A) (A) (A)
                 (A) (A) (A) (A) (A) (A) (A) (A) (A) (A) (A) (A)
                 (A) (A) (A) (A) (A) (A) (A) (A) (A) (A) (A) (A)
                 (A) (A) (A) (A) (A) (A) (A) (A) (A) (A) (A) (A)
                 (A) (A) (A) (A) (A) (A) (A) (A) (A) (A) (A) (A)
                 (A) (A) (A) (A) (A) (A) (A)
 The electronic state is 1-A.
 Alpha  occ. eigenvalues -- -105.15412 -21.06870 -21.05947 -11.41116 -11.38028
 Alpha  occ. eigenvalues --  -11.34875  -7.64757  -2.73061  -1.81991  -1.66024
 Alpha  occ. eigenvalues --   -1.47073  -1.44536  -1.41730  -1.19137  -0.97731
 Alpha  occ. eigenvalues --   -0.84421  -0.75876  -0.69020  -0.63996  -0.61781
 Alpha  occ. eigenvalues --   -0.56757  -0.53758  -0.51294  -0.49519  -0.48168
 Alpha  occ. eigenvalues --   -0.46263  -0.45993  -0.42734  -0.37004  -0.23026
 Alpha  occ. eigenvalues --   -0.14892  -0.01539
 Alpha virt. eigenvalues --    0.04011   0.04234   0.05098   0.05996   0.06282
 Alpha virt. eigenvalues --    0.06689   0.06780   0.07176   0.08109   0.08766
 Alpha virt. eigenvalues --    0.09192   0.09542   0.10431   0.11611   0.12467
 Alpha virt. eigenvalues --    0.12647   0.13472   0.14289   0.15757   0.16268
 Alpha virt. eigenvalues --    0.17047   0.18073   0.18864   0.19214   0.19838
 Alpha virt. eigenvalues --    0.20017   0.20976   0.21299   0.22179   0.23320
 Alpha virt. eigenvalues --    0.23387   0.24453   0.24851   0.25504   0.26076
 Alpha virt. eigenvalues --    0.27092   0.27237   0.27585   0.28612   0.29754
 Alpha virt. eigenvalues --    0.30422   0.30639   0.32357   0.33657   0.34210
 Alpha virt. eigenvalues --    0.35293   0.36209   0.37241   0.38579   0.39430
 Alpha virt. eigenvalues --    0.39875   0.41797   0.42608   0.43174   0.44119
 Alpha virt. eigenvalues --    0.45030   0.45649   0.46595   0.47123   0.47923
 Alpha virt. eigenvalues --    0.48627   0.49360   0.49583   0.50513   0.51044
 Alpha virt. eigenvalues --    0.51624   0.52535   0.52848   0.53626   0.54078
 Alpha virt. eigenvalues --    0.55712   0.56251   0.57232   0.59001   0.59774
 Alpha virt. eigenvalues --    0.59861   0.60674   0.61600   0.62356   0.62968
 Alpha virt. eigenvalues --    0.64194   0.65013   0.65875   0.66074   0.66672
 Alpha virt. eigenvalues --    0.67393   0.68376   0.68938   0.70697   0.71395
 Alpha virt. eigenvalues --    0.72394   0.73524   0.74167   0.75766   0.76650
 Alpha virt. eigenvalues --    0.78794   0.79215   0.79828   0.80069   0.81380
 Alpha virt. eigenvalues --    0.82201   0.83628   0.85082   0.86914   0.88008
 Alpha virt. eigenvalues --    0.88860   0.89830   0.91141   0.91911   0.94819
 Alpha virt. eigenvalues --    0.95488   0.97291   0.98899   1.00455   1.01239
 Alpha virt. eigenvalues --    1.03227   1.06045   1.07671   1.10160   1.12339
 Alpha virt. eigenvalues --    1.15612   1.17768   1.20397   1.23590   1.25407
 Alpha virt. eigenvalues --    1.28740   1.32573   1.32753   1.34530   1.36832
 Alpha virt. eigenvalues --    1.38776   1.42556   1.44222   1.46196   1.50606
 Alpha virt. eigenvalues --    1.54094   1.56505   1.59146   1.62949   1.64821
 Alpha virt. eigenvalues --    1.66631   1.68461   1.73589   1.74814   1.76915
 Alpha virt. eigenvalues --    1.78622   1.80826   1.84353   1.88237   1.88550
 Alpha virt. eigenvalues --    1.92188   1.95714   1.98221   2.01695   2.02354
 Alpha virt. eigenvalues --    2.05286   2.06069   2.07574   2.09151   2.11084
 Alpha virt. eigenvalues --    2.12516   2.14445   2.15783   2.17927   2.19511
 Alpha virt. eigenvalues --    2.21712   2.22962   2.26434   2.27623   2.32098
 Alpha virt. eigenvalues --    2.32765   2.34943   2.37045   2.39806   2.41837
 Alpha virt. eigenvalues --    2.44087   2.46777   2.49744   2.53741   2.57025
 Alpha virt. eigenvalues --    2.59234   2.61768   2.64667   2.66949   2.68100
 Alpha virt. eigenvalues --    2.71785   2.74375   2.75049   2.76167   2.78260
 Alpha virt. eigenvalues --    2.89522   2.91213   2.92683   2.96929   3.01309
 Alpha virt. eigenvalues --    3.06915   3.08524   3.12324   3.16355   3.23689
 Alpha virt. eigenvalues --    3.33452   3.40314   3.49114   3.54333   3.57700
 Alpha virt. eigenvalues --    3.67161   3.77769   3.80073   3.82001   3.95824
 Alpha virt. eigenvalues --    3.98597   4.17578   4.22109   5.57573   5.91597
 Alpha virt. eigenvalues --    5.94386   5.95391   6.05154   6.06883   6.12293
 Alpha virt. eigenvalues --    6.16194   6.78400   6.85935
          Condensed to atoms (all electrons):
 Mulliken charges:
               1
     1  P    2.012062
     2  B    5.614850
     3  O   -3.513841
     4  O   -3.633110
     5  C   -4.282186
     6  C   -3.161963
     7  H    1.218967
     8  H    1.562105
     9  C   -4.121753
    10  H    1.679691
    11  H    1.551317
    12  H    1.272810
    13  H    1.147982
    14  H    1.280332
    15  H    1.334896
    16  H    1.255184
    17  H   -1.217342
 Sum of Mulliken charges =  -0.00000
 Mulliken charges with hydrogens summed into heavy atoms:
               1
     1  P    0.794720
     2  B    5.614850
     3  O   -2.178945
     4  O   -2.377926
     5  C   -1.501114
     6  C    0.069045
     9  C   -0.420630
 Electronic spatial extent (au):  <R**2>=           1358.5671
 Charge=              0.0000 electrons
 Dipole moment (field-independent basis, Debye):
    X=              0.5479    Y=              1.7533    Z=             -0.8081  Tot=              2.0068

 Test job not archived.
 1\1\GINC-SE366\SP\RHF\Aug-CC-pVDZ\C3H10B1O2P1\OHZDE\09-Apr-2025\0\\#t 
 hf aug-cc-pvdz iop(5/13=1,5/36=2,99/5=2) pseudo=read geom=check guess=
 (read,tcheck) scf=(maxcycle=1)\\title\\0,1\P,0,-0.570472,1.313413,-0.2
 18215\B,0,-1.589084,-0.331762,-0.032391\O,0,-1.231092,-1.398966,-0.800
 64\O,0,-2.71221,-0.445233,0.744169\C,0,1.167855,0.680766,-0.502864\C,0
 ,1.763636,-0.254914,0.555052\H,0,1.804316,1.562545,-0.631903\H,0,1.136
 532,0.178711,-1.475576\C,0,3.197878,-0.684945,0.225879\H,0,1.128534,-1
 .140962,0.645474\H,0,1.746066,0.244355,1.530321\H,0,3.24066,-1.217653,
 -0.728976\H,0,3.597572,-1.350558,0.996125\H,0,3.865625,0.179285,0.1540
 44\H,0,-1.849016,-2.134244,-0.705024\H,0,-2.911633,0.336956,1.264735\H
 ,0,-0.485948,1.607321,1.169327\\Version=ES64L-G16RevC.01\State=1-A\HF=
 -636.2689994\RMSD=3.062e-01\Dipole=0.2155565,0.6898061,-0.3179503\Quad
 rupole=-1.1473214,-0.6464179,1.7937393,1.9306222,-2.1845575,3.4613784\
 PG=C01 [X(C3H10B1O2P1)]\\@


 THERE IS MORE TO LIFE THAN INCREASING ITS SPEED.

                                       -- GANDHI
 Job cpu time:       0 days  0 hours  1 minutes  9.3 seconds.
 Elapsed time:       0 days  0 hours  0 minutes  5.2 seconds.
 File lengths (MBytes):  RWF=     14 Int=      0 D2E=      0 Chk=      9 Scr=      1
 Normal termination of Gaussian 16 at Wed Apr  9 00:42:28 2025.
