 Entering Gaussian System, Link 0=g16
 Input=BDE49_nonexpt_1748_mol1.gjf
 Output=BDE49_nonexpt_1748_mol1.log
 Initial command:
 /arc/software/Gaussian/g16.c01/l1.exe "/tmp/slurm/4847511/Gau-2039888.inp" -scrdir="/tmp/slurm/4847511/"
 Entering Link 1 = /arc/software/Gaussian/g16.c01/l1.exe PID=   2039891.
  
 Copyright (c) 1988-2019, Gaussian, Inc.  All Rights Reserved.
  
 This is part of the Gaussian(R) 16 program.  It is based on
 the Gaussian(R) 09 system (copyright 2009, Gaussian, Inc.),
 the Gaussian(R) 03 system (copyright 2003, Gaussian, Inc.),
 the Gaussian(R) 98 system (copyright 1998, Gaussian, Inc.),
 the Gaussian(R) 94 system (copyright 1995, Gaussian, Inc.),
 the Gaussian 92(TM) system (copyright 1992, Gaussian, Inc.),
 the Gaussian 90(TM) system (copyright 1990, Gaussian, Inc.),
 the Gaussian 88(TM) system (copyright 1988, Gaussian, Inc.),
 the Gaussian 86(TM) system (copyright 1986, Carnegie Mellon
 University), and the Gaussian 82(TM) system (copyright 1983,
 Carnegie Mellon University). Gaussian is a federally registered
 trademark of Gaussian, Inc.
  
 This software contains proprietary and confidential information,
 including trade secrets, belonging to Gaussian, Inc.
  
 This software is provided under written license and may be
 used, copied, transmitted, or stored only in accord with that
 written license.
  
 The following legend is applicable only to US Government
 contracts under FAR:
  
                    RESTRICTED RIGHTS LEGEND
  
 Use, reproduction and disclosure by the US Government is
 subject to restrictions as set forth in subparagraphs (a)
 and (c) of the Commercial Computer Software - Restricted
 Rights clause in FAR 52.227-19.
  
 Gaussian, Inc.
 340 Quinnipiac St., Bldg. 40, Wallingford CT 06492
  
  
 ---------------------------------------------------------------
 Warning -- This program may not be used in any manner that
 competes with the business of Gaussian, Inc. or will provide
 assistance to any competitor of Gaussian, Inc.  The licensee
 of this program is prohibited from giving any competitor of
 Gaussian, Inc. access to this program.  By using this program,
 the user acknowledges that Gaussian, Inc. is engaged in the
 business of creating and licensing software in the field of
 computational chemistry and represents and warrants to the
 licensee that it is not a competitor of Gaussian, Inc. and that
 it will not use this program in any manner prohibited above.
 ---------------------------------------------------------------
  

 Cite this work as:
 Gaussian 16, Revision C.01,
 M. J. Frisch, G. W. Trucks, H. B. Schlegel, G. E. Scuseria, 
 M. A. Robb, J. R. Cheeseman, G. Scalmani, V. Barone, 
 G. A. Petersson, H. Nakatsuji, X. Li, M. Caricato, A. V. Marenich, 
 J. Bloino, B. G. Janesko, R. Gomperts, B. Mennucci, H. P. Hratchian, 
 J. V. Ortiz, A. F. Izmaylov, J. L. Sonnenberg, D. Williams-Young, 
 F. Ding, F. Lipparini, F. Egidi, J. Goings, B. Peng, A. Petrone, 
 T. Henderson, D. Ranasinghe, V. G. Zakrzewski, J. Gao, N. Rega, 
 G. Zheng, W. Liang, M. Hada, M. Ehara, K. Toyota, R. Fukuda, 
 J. Hasegawa, M. Ishida, T. Nakajima, Y. Honda, O. Kitao, H. Nakai, 
 T. Vreven, K. Throssell, J. A. Montgomery, Jr., J. E. Peralta, 
 F. Ogliaro, M. J. Bearpark, J. J. Heyd, E. N. Brothers, K. N. Kudin, 
 V. N. Staroverov, T. A. Keith, R. Kobayashi, J. Normand, 
 K. Raghavachari, A. P. Rendell, J. C. Burant, S. S. Iyengar, 
 J. Tomasi, M. Cossi, J. M. Millam, M. Klene, C. Adamo, R. Cammi, 
 J. W. Ochterski, R. L. Martin, K. Morokuma, O. Farkas, 
 J. B. Foresman, and D. J. Fox, Gaussian, Inc., Wallingford CT, 2019.
 
 ******************************************
 Gaussian 16:  ES64L-G16RevC.01  3-Jul-2019
                 8-Apr-2025 
 ******************************************
 %nprocs=16
 Will use up to   16 processors via shared memory.
 %mem=30GB
 %chk=BDE49_nonexpt_1748_mol1.chk
 ----------------------------------------------------------------------
 #t hf aug-cc-pvdz symm=none int=(grid=ultrafine) guess=(read,tcheck) s
 table=(opt,rrhf)
 ----------------------------------------------------------------------
 -----
 title
 -----
 Symbolic Z-matrix:
 Charge =  0 Multiplicity = 1
 Si                    0.28005  -0.37606   0.00029 
 C                    -1.427    -0.50421  -0.77539 
 C                    -2.5593    0.24439  -0.05161 
 H                    -1.66582  -1.57455  -0.84107 
 H                    -1.34766  -0.15358  -1.81097 
 H                    -2.70001  -0.12527   0.96795 
 H                    -3.51125   0.12401  -0.57617 
 H                    -2.34956   1.31494   0.01145 
 C                     1.55094  -1.29678  -1.01906 
 H                     1.32002  -2.36702  -1.04253 
 H                     2.553    -1.17629  -0.59944 
 H                     1.57052  -0.9316   -2.04906 
 C                     0.29571  -0.93591   1.7863 
 H                     0.00435  -1.98916   1.85854 
 H                    -0.39658  -0.34948   2.39516 
 H                     1.29423  -0.83092   2.21842 
 Cl                    0.83211   1.66345  -0.01046 
 
                    Distance matrix (angstroms):
                    1          2          3          4          5
     1  Si   0.000000
     2  C    1.879396   0.000000
     3  C    2.906811   1.538289   0.000000
     4  H    2.435303   1.098627   2.174869   0.000000
     5  H    2.445319   1.096205   2.172967   1.749596   0.000000
     6  H    3.143249   2.191655   1.093592   2.538207   3.090636
     7  H    3.867342   2.185961   1.093555   2.522076   2.506572
     8  H    3.126411   2.186206   1.092724   3.089238   2.545886
     9  C    1.871348   3.091224   4.495016   3.233632   3.214946
    10  H    2.476481   3.329802   4.780218   3.095782   3.550538
    11  H    2.483207   4.040176   5.334226   4.244457   4.210559
    12  H    2.484709   3.284822   4.735836   3.513767   3.029482
    13  C    1.871767   3.117104   3.594729   3.340442   4.031505
    14  H    2.476128   3.345355   3.899955   3.201446   4.320017
    15  H    2.488759   3.337370   3.319138   3.685774   4.316757
    16  H    2.481038   4.058903   4.599886   4.321499   4.865624
    17  Cl   2.112932   3.222955   3.676559   4.173036   3.360775
                    6          7          8          9         10
     6  H    0.000000
     7  H    1.761977   0.000000
     8  H    1.764057   1.764400   0.000000
     9  C    4.836440   5.276410   4.805921   0.000000
    10  H    5.022761   5.455630   5.304103   1.095121   0.000000
    11  H    5.581701   6.202125   5.533032   1.093029   1.770423
    12  H    5.290551   5.395191   4.965848   1.093004   1.770959
    13  C    3.209541   4.604089   3.900495   3.094487   3.331608
    14  H    3.403050   4.769978   4.457540   3.339446   3.207807
    15  H    2.718999   4.330603   3.502353   4.043149   4.339922
    16  H    4.244468   5.640408   4.769968   3.280882   3.604735
    17  Cl   4.078314   4.642698   3.200776   3.208888   4.189029
                   11         12         13         14         15
    11  H    0.000000
    12  H    1.768198   0.000000
    13  C    3.293159   4.041680   0.000000
    14  H    3.632915   4.340589   1.095195   0.000000
    15  H    4.283835   4.894837   1.092644   1.771229   0.000000
    16  H    3.105502   4.277604   1.093061   1.770547   1.766874
    17  Cl   3.372312   3.381633   3.205112   4.185682   3.368761
                   16         17
    16  H    0.000000
    17  Cl   3.376883   0.000000
 Symmetry turned off by external request.
 Rotational constants (GHZ):           2.1705641           1.7627603           1.4311440
   245 basis functions,   455 primitive gaussians,   257 cartesian basis functions
    33 alpha electrons       33 beta electrons
       nuclear repulsion energy       380.5117024898 Hartrees.
 NAtoms=   17 NActive=   17 NUniq=   17 SFac= 1.00D+00 NAtFMM=   60 NAOKFM=F Big=F
 ExpMin= 2.50D-02 ExpMax= 1.28D+05 ExpMxC= 2.69D+03 IAcc=3 IRadAn=         5 AccDes= 0.00D+00
 Harris functional with IExCor=  205 and IRadAn=       5 diagonalized for initial guess.
 HarFok:  IExCor=  205 AccDes= 0.00D+00 IRadAn=         5 IDoV= 1 UseB2=F ITyADJ=14
 ICtDFT=  3500011 ScaDFX=  1.000000  1.000000  1.000000  1.000000
 FoFCou: FMM=F IPFlag=           0 FMFlag=      100000 FMFlg1=           0
         NFxFlg=           0 DoJE=T BraDBF=F KetDBF=T FulRan=T
         wScrn=  0.000000 ICntrl=       500 IOpCl=  0 I1Cent=   200000004 NGrid=           0
         NMat0=    1 NMatS0=      1 NMatT0=    0 NMatD0=    1 NMtDS0=    0 NMtDT0=    0
 Symmetry not used in FoFCou.
 SCF Done:  E(RHF) =  -906.421547876     A.U. after   12 cycles
            NFock= 12  Conv=0.19D-08     -V/T= 2.0003

 **********************************************************************

            Population analysis using the SCF Density.

 **********************************************************************

 Alpha  occ. eigenvalues -- -104.80426 -68.80972 -11.22882 -11.22232 -11.21797
 Alpha  occ. eigenvalues --  -11.21780 -10.53157  -7.99875  -7.99657  -7.99656
 Alpha  occ. eigenvalues --   -6.15281  -4.25998  -4.25839  -4.25825  -1.07580
 Alpha  occ. eigenvalues --   -1.02334  -0.96218  -0.93757  -0.84830  -0.65195
 Alpha  occ. eigenvalues --   -0.61088  -0.58559  -0.57389  -0.56500  -0.55543
 Alpha  occ. eigenvalues --   -0.54760  -0.51675  -0.50103  -0.47768  -0.46963
 Alpha  occ. eigenvalues --   -0.45972  -0.42186  -0.41082
 Alpha virt. eigenvalues --    0.02912   0.04325   0.04602   0.05050   0.06333
 Alpha virt. eigenvalues --    0.06387   0.06817   0.06959   0.07694   0.08824
 Alpha virt. eigenvalues --    0.09386   0.09573   0.10342   0.10902   0.12567
 Alpha virt. eigenvalues --    0.14450   0.15051   0.15553   0.16243   0.16731
 Alpha virt. eigenvalues --    0.17291   0.17800   0.18104   0.18650   0.18971
 Alpha virt. eigenvalues --    0.19389   0.19710   0.20197   0.20728   0.21488
 Alpha virt. eigenvalues --    0.21677   0.22476   0.24238   0.25063   0.25473
 Alpha virt. eigenvalues --    0.25895   0.26495   0.27365   0.28144   0.28247
 Alpha virt. eigenvalues --    0.29530   0.32150   0.32574   0.33238   0.34316
 Alpha virt. eigenvalues --    0.35286   0.36929   0.39457   0.40569   0.40913
 Alpha virt. eigenvalues --    0.42270   0.42886   0.43384   0.44442   0.44530
 Alpha virt. eigenvalues --    0.45605   0.46016   0.46335   0.46826   0.47512
 Alpha virt. eigenvalues --    0.47537   0.47794   0.48084   0.49207   0.49953
 Alpha virt. eigenvalues --    0.50392   0.51639   0.52204   0.53329   0.54132
 Alpha virt. eigenvalues --    0.55514   0.55747   0.56431   0.57751   0.58145
 Alpha virt. eigenvalues --    0.58344   0.59210   0.60334   0.61527   0.61911
 Alpha virt. eigenvalues --    0.63424   0.63980   0.64479   0.65659   0.67141
 Alpha virt. eigenvalues --    0.67598   0.68119   0.69376   0.69649   0.70334
 Alpha virt. eigenvalues --    0.70676   0.71507   0.72260   0.73994   0.74338
 Alpha virt. eigenvalues --    0.75703   0.76197   0.76845   0.77924   0.78244
 Alpha virt. eigenvalues --    0.79421   0.80405   0.80949   0.83516   0.83886
 Alpha virt. eigenvalues --    0.85590   0.85833   0.86719   0.86978   0.89692
 Alpha virt. eigenvalues --    0.90238   0.92750   0.93723   0.95150   0.97118
 Alpha virt. eigenvalues --    0.98565   1.01423   1.04570   1.05706   1.09247
 Alpha virt. eigenvalues --    1.11176   1.12252   1.13243   1.14976   1.16258
 Alpha virt. eigenvalues --    1.18117   1.19687   1.21234   1.22602   1.22735
 Alpha virt. eigenvalues --    1.25484   1.27283   1.28447   1.30663   1.33341
 Alpha virt. eigenvalues --    1.34852   1.36873   1.39336   1.42305   1.48225
 Alpha virt. eigenvalues --    1.49119   1.53109   1.54461   1.55742   1.56705
 Alpha virt. eigenvalues --    1.57906   1.58149   1.60873   1.62103   1.64645
 Alpha virt. eigenvalues --    1.66334   1.68173   1.68846   1.71078   1.82474
 Alpha virt. eigenvalues --    1.83593   1.84141   1.87458   1.88707   1.89733
 Alpha virt. eigenvalues --    1.91890   1.92496   1.94982   1.95844   1.98900
 Alpha virt. eigenvalues --    2.01242   2.03684   2.04321   2.06783   2.08506
 Alpha virt. eigenvalues --    2.11015   2.13874   2.15812   2.15905   2.16813
 Alpha virt. eigenvalues --    2.17647   2.19721   2.21556   2.23501   2.25403
 Alpha virt. eigenvalues --    2.25879   2.27656   2.29584   2.29814   2.31473
 Alpha virt. eigenvalues --    2.32129   2.35505   2.36871   2.43360   2.46719
 Alpha virt. eigenvalues --    2.50047   2.51669   2.53479   2.58431   2.59703
 Alpha virt. eigenvalues --    2.61050   2.63091   2.66378   2.70652   2.73641
 Alpha virt. eigenvalues --    2.86619   2.86889   2.88257   2.93634   2.98612
 Alpha virt. eigenvalues --    3.00158   3.02719   3.03577   3.06073   3.09332
 Alpha virt. eigenvalues --    3.15946   3.18711
          Condensed to atoms (all electrons):
 Mulliken charges:
               1
     1  Si   1.986612
     2  C    0.240333
     3  C    0.201788
     4  H   -0.230955
     5  H   -0.286453
     6  H   -0.112950
     7  H   -0.089173
     8  H   -0.106514
     9  C    0.386168
    10  H   -0.192327
    11  H   -0.288260
    12  H   -0.289327
    13  C    0.359874
    14  H   -0.216852
    15  H   -0.309046
    16  H   -0.299713
    17  Cl  -0.753206
 Sum of Mulliken charges =  -0.00000
 Mulliken charges with hydrogens summed into heavy atoms:
               1
     1  Si   1.986612
     2  C   -0.277074
     3  C   -0.106849
     9  C   -0.383747
    13  C   -0.465736
    17  Cl  -0.753206
 Electronic spatial extent (au):  <R**2>=           1046.3139
 Charge=             -0.0000 electrons
 Dipole moment (field-independent basis, Debye):
    X=             -0.7623    Y=             -2.4725    Z=             -0.0309  Tot=              2.5875
 NROrb=    245 NOA=    33 NOB=    33 NVA=   212 NVB=   212

 **** Warning!!: The largest alpha MO coefficient is  0.51418529D+02

    12 initial guesses have been made.
 Iteration     1 Dimension    12 NMult     0 NNew     12
 Iteration     2 Dimension    24 NMult    12 NNew     12
 Iteration     3 Dimension    27 NMult    24 NNew      3
 Iteration     4 Dimension    30 NMult    27 NNew      3
 Iteration     5 Dimension    33 NMult    30 NNew      3
 Iteration     6 Dimension    36 NMult    33 NNew      3
 Iteration     7 Dimension    39 NMult    36 NNew      3
 ***********************************************************************
 Stability analysis using <AA,BB:AA,BB> singles matrix:
 ***********************************************************************
 Ground to excited state transition densities written to RWF  633

 Eigenvectors of the stability matrix:
 
 Excited state symmetry could not be determined.
 Eigenvector   1:      Singlet-?Sym  Eigenvalue= 0.3126169  <S**2>=0.000
      33 -> 34         0.56398
      33 -> 35         0.13444
      33 -> 36        -0.10793
      33 -> 48        -0.21383
 The wavefunction is stable under the perturbations considered.
 The wavefunction is already stable.

 **********************************************************************

            Population analysis using the SCF Density.

 **********************************************************************

 Alpha  occ. eigenvalues -- -104.80426 -68.80972 -11.22882 -11.22232 -11.21797
 Alpha  occ. eigenvalues --  -11.21780 -10.53157  -7.99875  -7.99657  -7.99656
 Alpha  occ. eigenvalues --   -6.15281  -4.25998  -4.25839  -4.25825  -1.07580
 Alpha  occ. eigenvalues --   -1.02334  -0.96218  -0.93757  -0.84830  -0.65195
 Alpha  occ. eigenvalues --   -0.61088  -0.58559  -0.57389  -0.56500  -0.55543
 Alpha  occ. eigenvalues --   -0.54760  -0.51675  -0.50103  -0.47768  -0.46963
 Alpha  occ. eigenvalues --   -0.45972  -0.42186  -0.41082
 Alpha virt. eigenvalues --    0.02912   0.04325   0.04602   0.05050   0.06333
 Alpha virt. eigenvalues --    0.06387   0.06817   0.06959   0.07694   0.08824
 Alpha virt. eigenvalues --    0.09386   0.09573   0.10342   0.10902   0.12567
 Alpha virt. eigenvalues --    0.14450   0.15051   0.15553   0.16243   0.16731
 Alpha virt. eigenvalues --    0.17291   0.17800   0.18104   0.18650   0.18971
 Alpha virt. eigenvalues --    0.19389   0.19710   0.20197   0.20728   0.21488
 Alpha virt. eigenvalues --    0.21677   0.22476   0.24238   0.25063   0.25473
 Alpha virt. eigenvalues --    0.25895   0.26495   0.27365   0.28144   0.28247
 Alpha virt. eigenvalues --    0.29530   0.32150   0.32574   0.33238   0.34316
 Alpha virt. eigenvalues --    0.35286   0.36929   0.39457   0.40569   0.40913
 Alpha virt. eigenvalues --    0.42270   0.42886   0.43384   0.44442   0.44530
 Alpha virt. eigenvalues --    0.45605   0.46016   0.46335   0.46826   0.47512
 Alpha virt. eigenvalues --    0.47537   0.47794   0.48084   0.49207   0.49953
 Alpha virt. eigenvalues --    0.50392   0.51639   0.52204   0.53329   0.54132
 Alpha virt. eigenvalues --    0.55514   0.55747   0.56431   0.57751   0.58145
 Alpha virt. eigenvalues --    0.58344   0.59210   0.60334   0.61527   0.61911
 Alpha virt. eigenvalues --    0.63424   0.63980   0.64479   0.65659   0.67141
 Alpha virt. eigenvalues --    0.67598   0.68119   0.69376   0.69649   0.70334
 Alpha virt. eigenvalues --    0.70676   0.71507   0.72260   0.73994   0.74338
 Alpha virt. eigenvalues --    0.75703   0.76197   0.76845   0.77924   0.78244
 Alpha virt. eigenvalues --    0.79421   0.80405   0.80949   0.83516   0.83886
 Alpha virt. eigenvalues --    0.85590   0.85833   0.86719   0.86978   0.89692
 Alpha virt. eigenvalues --    0.90238   0.92750   0.93723   0.95150   0.97118
 Alpha virt. eigenvalues --    0.98565   1.01423   1.04570   1.05706   1.09247
 Alpha virt. eigenvalues --    1.11176   1.12252   1.13243   1.14976   1.16258
 Alpha virt. eigenvalues --    1.18117   1.19687   1.21234   1.22602   1.22735
 Alpha virt. eigenvalues --    1.25484   1.27283   1.28447   1.30663   1.33341
 Alpha virt. eigenvalues --    1.34852   1.36873   1.39336   1.42305   1.48225
 Alpha virt. eigenvalues --    1.49119   1.53109   1.54461   1.55742   1.56705
 Alpha virt. eigenvalues --    1.57906   1.58149   1.60873   1.62103   1.64645
 Alpha virt. eigenvalues --    1.66334   1.68173   1.68846   1.71078   1.82474
 Alpha virt. eigenvalues --    1.83593   1.84141   1.87458   1.88707   1.89733
 Alpha virt. eigenvalues --    1.91890   1.92496   1.94982   1.95844   1.98900
 Alpha virt. eigenvalues --    2.01242   2.03684   2.04321   2.06783   2.08506
 Alpha virt. eigenvalues --    2.11015   2.13874   2.15812   2.15905   2.16813
 Alpha virt. eigenvalues --    2.17647   2.19721   2.21556   2.23501   2.25403
 Alpha virt. eigenvalues --    2.25879   2.27656   2.29584   2.29814   2.31473
 Alpha virt. eigenvalues --    2.32129   2.35505   2.36871   2.43360   2.46719
 Alpha virt. eigenvalues --    2.50047   2.51669   2.53479   2.58431   2.59703
 Alpha virt. eigenvalues --    2.61050   2.63091   2.66378   2.70652   2.73641
 Alpha virt. eigenvalues --    2.86619   2.86889   2.88257   2.93634   2.98612
 Alpha virt. eigenvalues --    3.00158   3.02719   3.03577   3.06073   3.09332
 Alpha virt. eigenvalues --    3.15946   3.18711
          Condensed to atoms (all electrons):
 Mulliken charges:
               1
     1  Si   1.986612
     2  C    0.240333
     3  C    0.201788
     4  H   -0.230955
     5  H   -0.286453
     6  H   -0.112950
     7  H   -0.089173
     8  H   -0.106514
     9  C    0.386168
    10  H   -0.192327
    11  H   -0.288260
    12  H   -0.289327
    13  C    0.359874
    14  H   -0.216852
    15  H   -0.309046
    16  H   -0.299713
    17  Cl  -0.753206
 Sum of Mulliken charges =  -0.00000
 Mulliken charges with hydrogens summed into heavy atoms:
               1
     1  Si   1.986612
     2  C   -0.277074
     3  C   -0.106849
     9  C   -0.383747
    13  C   -0.465736
    17  Cl  -0.753206
 Electronic spatial extent (au):  <R**2>=           1046.3139
 Charge=             -0.0000 electrons
 Dipole moment (field-independent basis, Debye):
    X=             -0.7623    Y=             -2.4725    Z=             -0.0309  Tot=              2.5875
 Unable to Open any file for archive entry.
 1\1\GINC-SE070\Stability\RHF\Aug-CC-pVDZ\C4H11Cl1Si1\OHZDE\08-Apr-2025
 \0\\#t hf aug-cc-pvdz symm=none int=(grid=ultrafine) guess=(read,tchec
 k) stable=(opt,rrhf)\\title\\0,1\Si,0,0.280054,-0.376056,0.00029\C,0,-
 1.427,-0.504206,-0.775385\C,0,-2.559296,0.244385,-0.05161\H,0,-1.66582
 2,-1.574547,-0.841069\H,0,-1.347655,-0.153578,-1.810967\H,0,-2.700005,
 -0.125267,0.96795\H,0,-3.511246,0.124013,-0.576171\H,0,-2.34956,1.3149
 36,0.011446\C,0,1.550938,-1.29678,-1.019056\H,0,1.320022,-2.367021,-1.
 042534\H,0,2.552996,-1.176289,-0.599444\H,0,1.570522,-0.931596,-2.0490
 63\C,0,0.295712,-0.935906,1.786301\H,0,0.004345,-1.989158,1.858541\H,0
 ,-0.396579,-0.349476,2.395156\H,0,1.294227,-0.830915,2.218421\Cl,0,0.8
 3211,1.663454,-0.01046\\Version=ES64L-G16RevC.01\HF=-906.4215479\RMSD=
 1.895e-09\Dipole=-0.299925,-0.9727396,-0.0121506\Quadrupole=0.408685,-
 1.2259786,0.8172936,-1.2438322,0.2316317,-0.0814245\PG=Unknown\\@
 The archive entry for this job was punched.


 A SCIENTIST IS SOMEONE WHOSE CURIOSITY SURVIVES
 EDUCATION'S ASSAULTS ON IT.
                          - SIR HERMANN BONDI
 Job cpu time:       0 days  0 hours  9 minutes  5.9 seconds.
 Elapsed time:       0 days  0 hours  0 minutes 39.4 seconds.
 File lengths (MBytes):  RWF=    303 Int=      0 D2E=      0 Chk=      9 Scr=      1
 Normal termination of Gaussian 16 at Tue Apr  8 23:45:49 2025.
 Initial command:
 /arc/software/Gaussian/g16.c01/l1.exe "/tmp/slurm/4847511/Gau-2039888.inp" -scrdir="/tmp/slurm/4847511/"
 Entering Link 1 = /arc/software/Gaussian/g16.c01/l1.exe PID=   2040480.
  
 Copyright (c) 1988-2019, Gaussian, Inc.  All Rights Reserved.
  
 This is part of the Gaussian(R) 16 program.  It is based on
 the Gaussian(R) 09 system (copyright 2009, Gaussian, Inc.),
 the Gaussian(R) 03 system (copyright 2003, Gaussian, Inc.),
 the Gaussian(R) 98 system (copyright 1998, Gaussian, Inc.),
 the Gaussian(R) 94 system (copyright 1995, Gaussian, Inc.),
 the Gaussian 92(TM) system (copyright 1992, Gaussian, Inc.),
 the Gaussian 90(TM) system (copyright 1990, Gaussian, Inc.),
 the Gaussian 88(TM) system (copyright 1988, Gaussian, Inc.),
 the Gaussian 86(TM) system (copyright 1986, Carnegie Mellon
 University), and the Gaussian 82(TM) system (copyright 1983,
 Carnegie Mellon University). Gaussian is a federally registered
 trademark of Gaussian, Inc.
  
 This software contains proprietary and confidential information,
 including trade secrets, belonging to Gaussian, Inc.
  
 This software is provided under written license and may be
 used, copied, transmitted, or stored only in accord with that
 written license.
  
 The following legend is applicable only to US Government
 contracts under FAR:
  
                    RESTRICTED RIGHTS LEGEND
  
 Use, reproduction and disclosure by the US Government is
 subject to restrictions as set forth in subparagraphs (a)
 and (c) of the Commercial Computer Software - Restricted
 Rights clause in FAR 52.227-19.
  
 Gaussian, Inc.
 340 Quinnipiac St., Bldg. 40, Wallingford CT 06492
  
  
 ---------------------------------------------------------------
 Warning -- This program may not be used in any manner that
 competes with the business of Gaussian, Inc. or will provide
 assistance to any competitor of Gaussian, Inc.  The licensee
 of this program is prohibited from giving any competitor of
 Gaussian, Inc. access to this program.  By using this program,
 the user acknowledges that Gaussian, Inc. is engaged in the
 business of creating and licensing software in the field of
 computational chemistry and represents and warrants to the
 licensee that it is not a competitor of Gaussian, Inc. and that
 it will not use this program in any manner prohibited above.
 ---------------------------------------------------------------
  

 Cite this work as:
 Gaussian 16, Revision C.01,
 M. J. Frisch, G. W. Trucks, H. B. Schlegel, G. E. Scuseria, 
 M. A. Robb, J. R. Cheeseman, G. Scalmani, V. Barone, 
 G. A. Petersson, H. Nakatsuji, X. Li, M. Caricato, A. V. Marenich, 
 J. Bloino, B. G. Janesko, R. Gomperts, B. Mennucci, H. P. Hratchian, 
 J. V. Ortiz, A. F. Izmaylov, J. L. Sonnenberg, D. Williams-Young, 
 F. Ding, F. Lipparini, F. Egidi, J. Goings, B. Peng, A. Petrone, 
 T. Henderson, D. Ranasinghe, V. G. Zakrzewski, J. Gao, N. Rega, 
 G. Zheng, W. Liang, M. Hada, M. Ehara, K. Toyota, R. Fukuda, 
 J. Hasegawa, M. Ishida, T. Nakajima, Y. Honda, O. Kitao, H. Nakai, 
 T. Vreven, K. Throssell, J. A. Montgomery, Jr., J. E. Peralta, 
 F. Ogliaro, M. J. Bearpark, J. J. Heyd, E. N. Brothers, K. N. Kudin, 
 V. N. Staroverov, T. A. Keith, R. Kobayashi, J. Normand, 
 K. Raghavachari, A. P. Rendell, J. C. Burant, S. S. Iyengar, 
 J. Tomasi, M. Cossi, J. M. Millam, M. Klene, C. Adamo, R. Cammi, 
 J. W. Ochterski, R. L. Martin, K. Morokuma, O. Farkas, 
 J. B. Foresman, and D. J. Fox, Gaussian, Inc., Wallingford CT, 2019.
 
 ******************************************
 Gaussian 16:  ES64L-G16RevC.01  3-Jul-2019
                 8-Apr-2025 
 ******************************************
 %nprocs=16
 Will use up to   16 processors via shared memory.
 %mem=30GB
 %chk=BDE49_nonexpt_1748_mol1.chk
 ----------------------------------------------------------------------
 #t hf aug-cc-pvdz iop(5/13=1,5/36=2,99/5=2) pseudo=read geom=check gue
 ss=(read,tcheck) scf=(maxcycle=1)
 ----------------------------------------------------------------------
 -----
 title
 -----
 Structure from the checkpoint file:  "BDE49_nonexpt_1748_mol1.chk"
 Charge =  0 Multiplicity = 1
 Z-Matrix found in chk file.
 Si,0,0.280054,-0.376056,0.00029
 C,0,-1.427,-0.504206,-0.775385
 C,0,-2.559296,0.244385,-0.05161
 H,0,-1.665822,-1.574547,-0.841069
 H,0,-1.347655,-0.153578,-1.810967
 H,0,-2.700005,-0.125267,0.96795
 H,0,-3.511246,0.124013,-0.576171
 H,0,-2.34956,1.314936,0.011446
 C,0,1.550938,-1.29678,-1.019056
 H,0,1.320022,-2.367021,-1.042534
 H,0,2.552996,-1.176289,-0.599444
 H,0,1.570522,-0.931596,-2.049063
 C,0,0.295712,-0.935906,1.786301
 H,0,0.004345,-1.989158,1.858541
 H,0,-0.396579,-0.349476,2.395156
 H,0,1.294227,-0.830915,2.218421
 Cl,0,0.83211,1.663454,-0.01046
 Recover connectivity data from disk.
                    Distance matrix (angstroms):
                    1          2          3          4          5
     1  Si   0.000000
     2  C    1.879396   0.000000
     3  C    2.906811   1.538289   0.000000
     4  H    2.435303   1.098627   2.174869   0.000000
     5  H    2.445319   1.096205   2.172967   1.749596   0.000000
     6  H    3.143249   2.191655   1.093592   2.538207   3.090636
     7  H    3.867342   2.185961   1.093555   2.522076   2.506572
     8  H    3.126411   2.186206   1.092724   3.089238   2.545886
     9  C    1.871348   3.091224   4.495016   3.233632   3.214946
    10  H    2.476481   3.329802   4.780218   3.095782   3.550538
    11  H    2.483207   4.040176   5.334226   4.244457   4.210559
    12  H    2.484709   3.284822   4.735836   3.513767   3.029482
    13  C    1.871767   3.117104   3.594729   3.340442   4.031505
    14  H    2.476128   3.345355   3.899955   3.201446   4.320017
    15  H    2.488759   3.337370   3.319138   3.685774   4.316757
    16  H    2.481038   4.058903   4.599886   4.321499   4.865624
    17  Cl   2.112932   3.222955   3.676559   4.173036   3.360775
                    6          7          8          9         10
     6  H    0.000000
     7  H    1.761977   0.000000
     8  H    1.764057   1.764400   0.000000
     9  C    4.836440   5.276410   4.805921   0.000000
    10  H    5.022761   5.455630   5.304103   1.095121   0.000000
    11  H    5.581701   6.202125   5.533032   1.093029   1.770423
    12  H    5.290551   5.395191   4.965848   1.093004   1.770959
    13  C    3.209541   4.604089   3.900495   3.094487   3.331608
    14  H    3.403050   4.769978   4.457540   3.339446   3.207807
    15  H    2.718999   4.330603   3.502353   4.043149   4.339922
    16  H    4.244468   5.640408   4.769968   3.280882   3.604735
    17  Cl   4.078314   4.642698   3.200776   3.208888   4.189029
                   11         12         13         14         15
    11  H    0.000000
    12  H    1.768198   0.000000
    13  C    3.293159   4.041680   0.000000
    14  H    3.632915   4.340589   1.095195   0.000000
    15  H    4.283835   4.894837   1.092644   1.771229   0.000000
    16  H    3.105502   4.277604   1.093061   1.770547   1.766874
    17  Cl   3.372312   3.381633   3.205112   4.185682   3.368761
                   16         17
    16  H    0.000000
    17  Cl   3.376883   0.000000
 Framework group  C1[X(C4H11ClSi)]
 Deg. of freedom    45
                         Standard orientation:                         
 ---------------------------------------------------------------------
 Center     Atomic      Atomic             Coordinates (Angstroms)
 Number     Number       Type             X           Y           Z
 ---------------------------------------------------------------------
      1         14           0        0.280054   -0.376056    0.000290
      2          6           0       -1.427000   -0.504206   -0.775385
      3          6           0       -2.559296    0.244385   -0.051610
      4          1           0       -1.665822   -1.574547   -0.841069
      5          1           0       -1.347655   -0.153578   -1.810967
      6          1           0       -2.700005   -0.125267    0.967950
      7          1           0       -3.511246    0.124013   -0.576171
      8          1           0       -2.349560    1.314936    0.011446
      9          6           0        1.550938   -1.296780   -1.019056
     10          1           0        1.320022   -2.367021   -1.042534
     11          1           0        2.552996   -1.176289   -0.599444
     12          1           0        1.570522   -0.931596   -2.049063
     13          6           0        0.295712   -0.935906    1.786301
     14          1           0        0.004345   -1.989158    1.858541
     15          1           0       -0.396579   -0.349476    2.395156
     16          1           0        1.294227   -0.830915    2.218421
     17         17           0        0.832110    1.663454   -0.010460
 ---------------------------------------------------------------------
 Rotational constants (GHZ):           2.1705641           1.7627603           1.4311440
 ======================================================================================================
                                       Pseudopotential Parameters
 ======================================================================================================
  Center     Atomic      Valence      Angular      Power
  Number     Number     Electrons     Momentum     of R      Exponent        Coefficient   SO-Coeffient
 ======================================================================================================
    1         14           14
                                      G and up 
                                                     0        0.0000010        0.00318584    0.00000000
                                                     2        0.1200000        0.01495489    0.00000000
                                                     2        0.1400000        0.00226724    0.00000000
                                                     2        0.2400000        0.19400623    0.00000000
                                                     2        0.4000000       -1.10589618    0.00000000
                                                     2        0.5000000       -0.33441440    0.00000000
                                                     2        1.1000000        1.54014497    0.00000000
                                      S - G
                                                     0        0.0000010       -0.02754341    0.00000000
                                                     2        0.1400000       -0.27210261    0.00000000
                                                     2        0.5000000        1.68277205    0.00000000
                                      P - G
                                                     0        0.0000010        0.23409914    0.00000000
                                                     2        0.1400000       -0.38285789    0.00000000
                                                     2        0.3000000        0.63427704    0.00000000
                                      D - G
                                                     0        0.0000010        0.33783735    0.00000000
                                                     2        0.1200000        0.22636357    0.00000000
                                                     2        0.1600000       -1.50396781    0.00000000
                                                     2        0.2800000        2.43578453    0.00000000
                                      F - G
                                                     0        0.0000010       -0.32072413    0.00000000
                                                     2        0.1200000        0.11095462    0.00000000
                                                     2        0.1600000       -0.09560586    0.00000000
    2          6            6
                                      G and up 
                                                     0        0.0000010       -0.00286759    0.00000000
                                                     2        0.1200000        0.03193960    0.00000000
                                                     2        0.1600000       -0.04027782    0.00000000
                                                     2        0.2600000        0.24782456    0.00000000
                                                     2        0.4000000       -0.62266671    0.00000000
                                                     2        0.7000000        0.35695227    0.00000000
                                      S - G
                                                     0        0.0000010       -0.06602313    0.00000000
                                                     2        0.1200000        1.47277455    0.00000000
                                                     2        0.1600000       -4.06924166    0.00000000
                                                     2        0.3000000        5.02952802    0.00000000
                                                     2        0.7000000       -5.65856978    0.00000000
                                                     2        1.7000000        8.57604414    0.00000000
                                      P - G
                                                     0        0.0000010        0.49434425    0.00000000
                                                     2        0.1200000       -1.37391547    0.00000000
                                                     2        0.1600000        3.65411806    0.00000000
                                                     2        0.2800000       -7.36479843    0.00000000
                                                     2        0.6000000       17.22091285    0.00000000
                                                     2        1.1000000      -23.50107827    0.00000000
                                                     2        3.0000000       16.29464063    0.00000000
                                      D - G
                                                     0        0.0000010       -0.28693103    0.00000000
                                                     2        0.1200000        0.12273044    0.00000000
                                                     2        0.3000000       -0.43416384    0.00000000
                                                     2        0.7000000        2.23358493    0.00000000
                                      F - G
                                                     0        0.0000010        0.07263570    0.00000000
                                                     2        0.1400000       -0.76152861    0.00000000
                                                     2        0.2200000        1.98045593    0.00000000
                                                     2        0.4000000       -2.42426427    0.00000000
                                                     2        0.7000000        0.52335237    0.00000000
    3          6            6
                                      G and up 
                                                     0        0.0000010       -0.00286759    0.00000000
                                                     2        0.1200000        0.03193960    0.00000000
                                                     2        0.1600000       -0.04027782    0.00000000
                                                     2        0.2600000        0.24782456    0.00000000
                                                     2        0.4000000       -0.62266671    0.00000000
                                                     2        0.7000000        0.35695227    0.00000000
                                      S - G
                                                     0        0.0000010       -0.06602313    0.00000000
                                                     2        0.1200000        1.47277455    0.00000000
                                                     2        0.1600000       -4.06924166    0.00000000
                                                     2        0.3000000        5.02952802    0.00000000
                                                     2        0.7000000       -5.65856978    0.00000000
                                                     2        1.7000000        8.57604414    0.00000000
                                      P - G
                                                     0        0.0000010        0.49434425    0.00000000
                                                     2        0.1200000       -1.37391547    0.00000000
                                                     2        0.1600000        3.65411806    0.00000000
                                                     2        0.2800000       -7.36479843    0.00000000
                                                     2        0.6000000       17.22091285    0.00000000
                                                     2        1.1000000      -23.50107827    0.00000000
                                                     2        3.0000000       16.29464063    0.00000000
                                      D - G
                                                     0        0.0000010       -0.28693103    0.00000000
                                                     2        0.1200000        0.12273044    0.00000000
                                                     2        0.3000000       -0.43416384    0.00000000
                                                     2        0.7000000        2.23358493    0.00000000
                                      F - G
                                                     0        0.0000010        0.07263570    0.00000000
                                                     2        0.1400000       -0.76152861    0.00000000
                                                     2        0.2200000        1.98045593    0.00000000
                                                     2        0.4000000       -2.42426427    0.00000000
                                                     2        0.7000000        0.52335237    0.00000000
    4          1            1
                                      F and up 
                                                     0        0.0000010        0.00072061    0.00000000
                                                     2        0.1200000        0.03832357    0.00000000
                                                     2        0.1400000       -0.08683256    0.00000000
                                                     2        0.1800000        0.09312970    0.00000000
                                                     2        0.2800000       -0.02532572    0.00000000
                                                     2        0.4000000       -0.09430787    0.00000000
                                                     2        0.7000000        0.42710831    0.00000000
                                                     2        1.2000000       -2.11746981    0.00000000
                                      S - F
                                                     0        0.0000010        0.14449603    0.00000000
                                                     2        0.1200000       -0.56378993    0.00000000
                                                     2        0.1400000        0.63941249    0.00000000
                                                     2        0.2600000       -0.58461015    0.00000000
                                                     2        0.5000000        1.00157293    0.00000000
                                                     2        1.8000000       -0.14135838    0.00000000
                                      P - F
                                                     0        0.0000010       -0.09353646    0.00000000
                                                     2        0.1200000        0.31768975    0.00000000
                                                     2        0.2000000       -0.71747951    0.00000000
                                                     2        0.4000000        0.65752308    0.00000000
                                                     2        1.7000000        2.94052587    0.00000000
                                      D - F
                                                     0        0.0000010       -0.04491202    0.00000000
                                                     2        0.1200000       -0.02862031    0.00000000
                                                     2        0.1800000       -0.21515263    0.00000000
                                                     2        0.3000000        0.80560647    0.00000000
                                                     2        0.4000000        0.47351754    0.00000000
                                                     2        0.7000000       -4.57051794    0.00000000
                                                     2        1.6000000       18.53737826    0.00000000
    5          1            1
                                      F and up 
                                                     0        0.0000010        0.00072061    0.00000000
                                                     2        0.1200000        0.03832357    0.00000000
                                                     2        0.1400000       -0.08683256    0.00000000
                                                     2        0.1800000        0.09312970    0.00000000
                                                     2        0.2800000       -0.02532572    0.00000000
                                                     2        0.4000000       -0.09430787    0.00000000
                                                     2        0.7000000        0.42710831    0.00000000
                                                     2        1.2000000       -2.11746981    0.00000000
                                      S - F
                                                     0        0.0000010        0.14449603    0.00000000
                                                     2        0.1200000       -0.56378993    0.00000000
                                                     2        0.1400000        0.63941249    0.00000000
                                                     2        0.2600000       -0.58461015    0.00000000
                                                     2        0.5000000        1.00157293    0.00000000
                                                     2        1.8000000       -0.14135838    0.00000000
                                      P - F
                                                     0        0.0000010       -0.09353646    0.00000000
                                                     2        0.1200000        0.31768975    0.00000000
                                                     2        0.2000000       -0.71747951    0.00000000
                                                     2        0.4000000        0.65752308    0.00000000
                                                     2        1.7000000        2.94052587    0.00000000
                                      D - F
                                                     0        0.0000010       -0.04491202    0.00000000
                                                     2        0.1200000       -0.02862031    0.00000000
                                                     2        0.1800000       -0.21515263    0.00000000
                                                     2        0.3000000        0.80560647    0.00000000
                                                     2        0.4000000        0.47351754    0.00000000
                                                     2        0.7000000       -4.57051794    0.00000000
                                                     2        1.6000000       18.53737826    0.00000000
    6          1            1
                                      F and up 
                                                     0        0.0000010        0.00072061    0.00000000
                                                     2        0.1200000        0.03832357    0.00000000
                                                     2        0.1400000       -0.08683256    0.00000000
                                                     2        0.1800000        0.09312970    0.00000000
                                                     2        0.2800000       -0.02532572    0.00000000
                                                     2        0.4000000       -0.09430787    0.00000000
                                                     2        0.7000000        0.42710831    0.00000000
                                                     2        1.2000000       -2.11746981    0.00000000
                                      S - F
                                                     0        0.0000010        0.14449603    0.00000000
                                                     2        0.1200000       -0.56378993    0.00000000
                                                     2        0.1400000        0.63941249    0.00000000
                                                     2        0.2600000       -0.58461015    0.00000000
                                                     2        0.5000000        1.00157293    0.00000000
                                                     2        1.8000000       -0.14135838    0.00000000
                                      P - F
                                                     0        0.0000010       -0.09353646    0.00000000
                                                     2        0.1200000        0.31768975    0.00000000
                                                     2        0.2000000       -0.71747951    0.00000000
                                                     2        0.4000000        0.65752308    0.00000000
                                                     2        1.7000000        2.94052587    0.00000000
                                      D - F
                                                     0        0.0000010       -0.04491202    0.00000000
                                                     2        0.1200000       -0.02862031    0.00000000
                                                     2        0.1800000       -0.21515263    0.00000000
                                                     2        0.3000000        0.80560647    0.00000000
                                                     2        0.4000000        0.47351754    0.00000000
                                                     2        0.7000000       -4.57051794    0.00000000
                                                     2        1.6000000       18.53737826    0.00000000
    7          1            1
                                      F and up 
                                                     0        0.0000010        0.00072061    0.00000000
                                                     2        0.1200000        0.03832357    0.00000000
                                                     2        0.1400000       -0.08683256    0.00000000
                                                     2        0.1800000        0.09312970    0.00000000
                                                     2        0.2800000       -0.02532572    0.00000000
                                                     2        0.4000000       -0.09430787    0.00000000
                                                     2        0.7000000        0.42710831    0.00000000
                                                     2        1.2000000       -2.11746981    0.00000000
                                      S - F
                                                     0        0.0000010        0.14449603    0.00000000
                                                     2        0.1200000       -0.56378993    0.00000000
                                                     2        0.1400000        0.63941249    0.00000000
                                                     2        0.2600000       -0.58461015    0.00000000
                                                     2        0.5000000        1.00157293    0.00000000
                                                     2        1.8000000       -0.14135838    0.00000000
                                      P - F
                                                     0        0.0000010       -0.09353646    0.00000000
                                                     2        0.1200000        0.31768975    0.00000000
                                                     2        0.2000000       -0.71747951    0.00000000
                                                     2        0.4000000        0.65752308    0.00000000
                                                     2        1.7000000        2.94052587    0.00000000
                                      D - F
                                                     0        0.0000010       -0.04491202    0.00000000
                                                     2        0.1200000       -0.02862031    0.00000000
                                                     2        0.1800000       -0.21515263    0.00000000
                                                     2        0.3000000        0.80560647    0.00000000
                                                     2        0.4000000        0.47351754    0.00000000
                                                     2        0.7000000       -4.57051794    0.00000000
                                                     2        1.6000000       18.53737826    0.00000000
    8          1            1
                                      F and up 
                                                     0        0.0000010        0.00072061    0.00000000
                                                     2        0.1200000        0.03832357    0.00000000
                                                     2        0.1400000       -0.08683256    0.00000000
                                                     2        0.1800000        0.09312970    0.00000000
                                                     2        0.2800000       -0.02532572    0.00000000
                                                     2        0.4000000       -0.09430787    0.00000000
                                                     2        0.7000000        0.42710831    0.00000000
                                                     2        1.2000000       -2.11746981    0.00000000
                                      S - F
                                                     0        0.0000010        0.14449603    0.00000000
                                                     2        0.1200000       -0.56378993    0.00000000
                                                     2        0.1400000        0.63941249    0.00000000
                                                     2        0.2600000       -0.58461015    0.00000000
                                                     2        0.5000000        1.00157293    0.00000000
                                                     2        1.8000000       -0.14135838    0.00000000
                                      P - F
                                                     0        0.0000010       -0.09353646    0.00000000
                                                     2        0.1200000        0.31768975    0.00000000
                                                     2        0.2000000       -0.71747951    0.00000000
                                                     2        0.4000000        0.65752308    0.00000000
                                                     2        1.7000000        2.94052587    0.00000000
                                      D - F
                                                     0        0.0000010       -0.04491202    0.00000000
                                                     2        0.1200000       -0.02862031    0.00000000
                                                     2        0.1800000       -0.21515263    0.00000000
                                                     2        0.3000000        0.80560647    0.00000000
                                                     2        0.4000000        0.47351754    0.00000000
                                                     2        0.7000000       -4.57051794    0.00000000
                                                     2        1.6000000       18.53737826    0.00000000
    9          6            6
                                      G and up 
                                                     0        0.0000010       -0.00286759    0.00000000
                                                     2        0.1200000        0.03193960    0.00000000
                                                     2        0.1600000       -0.04027782    0.00000000
                                                     2        0.2600000        0.24782456    0.00000000
                                                     2        0.4000000       -0.62266671    0.00000000
                                                     2        0.7000000        0.35695227    0.00000000
                                      S - G
                                                     0        0.0000010       -0.06602313    0.00000000
                                                     2        0.1200000        1.47277455    0.00000000
                                                     2        0.1600000       -4.06924166    0.00000000
                                                     2        0.3000000        5.02952802    0.00000000
                                                     2        0.7000000       -5.65856978    0.00000000
                                                     2        1.7000000        8.57604414    0.00000000
                                      P - G
                                                     0        0.0000010        0.49434425    0.00000000
                                                     2        0.1200000       -1.37391547    0.00000000
                                                     2        0.1600000        3.65411806    0.00000000
                                                     2        0.2800000       -7.36479843    0.00000000
                                                     2        0.6000000       17.22091285    0.00000000
                                                     2        1.1000000      -23.50107827    0.00000000
                                                     2        3.0000000       16.29464063    0.00000000
                                      D - G
                                                     0        0.0000010       -0.28693103    0.00000000
                                                     2        0.1200000        0.12273044    0.00000000
                                                     2        0.3000000       -0.43416384    0.00000000
                                                     2        0.7000000        2.23358493    0.00000000
                                      F - G
                                                     0        0.0000010        0.07263570    0.00000000
                                                     2        0.1400000       -0.76152861    0.00000000
                                                     2        0.2200000        1.98045593    0.00000000
                                                     2        0.4000000       -2.42426427    0.00000000
                                                     2        0.7000000        0.52335237    0.00000000
   10          1            1
                                      F and up 
                                                     0        0.0000010        0.00072061    0.00000000
                                                     2        0.1200000        0.03832357    0.00000000
                                                     2        0.1400000       -0.08683256    0.00000000
                                                     2        0.1800000        0.09312970    0.00000000
                                                     2        0.2800000       -0.02532572    0.00000000
                                                     2        0.4000000       -0.09430787    0.00000000
                                                     2        0.7000000        0.42710831    0.00000000
                                                     2        1.2000000       -2.11746981    0.00000000
                                      S - F
                                                     0        0.0000010        0.14449603    0.00000000
                                                     2        0.1200000       -0.56378993    0.00000000
                                                     2        0.1400000        0.63941249    0.00000000
                                                     2        0.2600000       -0.58461015    0.00000000
                                                     2        0.5000000        1.00157293    0.00000000
                                                     2        1.8000000       -0.14135838    0.00000000
                                      P - F
                                                     0        0.0000010       -0.09353646    0.00000000
                                                     2        0.1200000        0.31768975    0.00000000
                                                     2        0.2000000       -0.71747951    0.00000000
                                                     2        0.4000000        0.65752308    0.00000000
                                                     2        1.7000000        2.94052587    0.00000000
                                      D - F
                                                     0        0.0000010       -0.04491202    0.00000000
                                                     2        0.1200000       -0.02862031    0.00000000
                                                     2        0.1800000       -0.21515263    0.00000000
                                                     2        0.3000000        0.80560647    0.00000000
                                                     2        0.4000000        0.47351754    0.00000000
                                                     2        0.7000000       -4.57051794    0.00000000
                                                     2        1.6000000       18.53737826    0.00000000
   11          1            1
                                      F and up 
                                                     0        0.0000010        0.00072061    0.00000000
                                                     2        0.1200000        0.03832357    0.00000000
                                                     2        0.1400000       -0.08683256    0.00000000
                                                     2        0.1800000        0.09312970    0.00000000
                                                     2        0.2800000       -0.02532572    0.00000000
                                                     2        0.4000000       -0.09430787    0.00000000
                                                     2        0.7000000        0.42710831    0.00000000
                                                     2        1.2000000       -2.11746981    0.00000000
                                      S - F
                                                     0        0.0000010        0.14449603    0.00000000
                                                     2        0.1200000       -0.56378993    0.00000000
                                                     2        0.1400000        0.63941249    0.00000000
                                                     2        0.2600000       -0.58461015    0.00000000
                                                     2        0.5000000        1.00157293    0.00000000
                                                     2        1.8000000       -0.14135838    0.00000000
                                      P - F
                                                     0        0.0000010       -0.09353646    0.00000000
                                                     2        0.1200000        0.31768975    0.00000000
                                                     2        0.2000000       -0.71747951    0.00000000
                                                     2        0.4000000        0.65752308    0.00000000
                                                     2        1.7000000        2.94052587    0.00000000
                                      D - F
                                                     0        0.0000010       -0.04491202    0.00000000
                                                     2        0.1200000       -0.02862031    0.00000000
                                                     2        0.1800000       -0.21515263    0.00000000
                                                     2        0.3000000        0.80560647    0.00000000
                                                     2        0.4000000        0.47351754    0.00000000
                                                     2        0.7000000       -4.57051794    0.00000000
                                                     2        1.6000000       18.53737826    0.00000000
   12          1            1
                                      F and up 
                                                     0        0.0000010        0.00072061    0.00000000
                                                     2        0.1200000        0.03832357    0.00000000
                                                     2        0.1400000       -0.08683256    0.00000000
                                                     2        0.1800000        0.09312970    0.00000000
                                                     2        0.2800000       -0.02532572    0.00000000
                                                     2        0.4000000       -0.09430787    0.00000000
                                                     2        0.7000000        0.42710831    0.00000000
                                                     2        1.2000000       -2.11746981    0.00000000
                                      S - F
                                                     0        0.0000010        0.14449603    0.00000000
                                                     2        0.1200000       -0.56378993    0.00000000
                                                     2        0.1400000        0.63941249    0.00000000
                                                     2        0.2600000       -0.58461015    0.00000000
                                                     2        0.5000000        1.00157293    0.00000000
                                                     2        1.8000000       -0.14135838    0.00000000
                                      P - F
                                                     0        0.0000010       -0.09353646    0.00000000
                                                     2        0.1200000        0.31768975    0.00000000
                                                     2        0.2000000       -0.71747951    0.00000000
                                                     2        0.4000000        0.65752308    0.00000000
                                                     2        1.7000000        2.94052587    0.00000000
                                      D - F
                                                     0        0.0000010       -0.04491202    0.00000000
                                                     2        0.1200000       -0.02862031    0.00000000
                                                     2        0.1800000       -0.21515263    0.00000000
                                                     2        0.3000000        0.80560647    0.00000000
                                                     2        0.4000000        0.47351754    0.00000000
                                                     2        0.7000000       -4.57051794    0.00000000
                                                     2        1.6000000       18.53737826    0.00000000
   13          6            6
                                      G and up 
                                                     0        0.0000010       -0.00286759    0.00000000
                                                     2        0.1200000        0.03193960    0.00000000
                                                     2        0.1600000       -0.04027782    0.00000000
                                                     2        0.2600000        0.24782456    0.00000000
                                                     2        0.4000000       -0.62266671    0.00000000
                                                     2        0.7000000        0.35695227    0.00000000
                                      S - G
                                                     0        0.0000010       -0.06602313    0.00000000
                                                     2        0.1200000        1.47277455    0.00000000
                                                     2        0.1600000       -4.06924166    0.00000000
                                                     2        0.3000000        5.02952802    0.00000000
                                                     2        0.7000000       -5.65856978    0.00000000
                                                     2        1.7000000        8.57604414    0.00000000
                                      P - G
                                                     0        0.0000010        0.49434425    0.00000000
                                                     2        0.1200000       -1.37391547    0.00000000
                                                     2        0.1600000        3.65411806    0.00000000
                                                     2        0.2800000       -7.36479843    0.00000000
                                                     2        0.6000000       17.22091285    0.00000000
                                                     2        1.1000000      -23.50107827    0.00000000
                                                     2        3.0000000       16.29464063    0.00000000
                                      D - G
                                                     0        0.0000010       -0.28693103    0.00000000
                                                     2        0.1200000        0.12273044    0.00000000
                                                     2        0.3000000       -0.43416384    0.00000000
                                                     2        0.7000000        2.23358493    0.00000000
                                      F - G
                                                     0        0.0000010        0.07263570    0.00000000
                                                     2        0.1400000       -0.76152861    0.00000000
                                                     2        0.2200000        1.98045593    0.00000000
                                                     2        0.4000000       -2.42426427    0.00000000
                                                     2        0.7000000        0.52335237    0.00000000
   14          1            1
                                      F and up 
                                                     0        0.0000010        0.00072061    0.00000000
                                                     2        0.1200000        0.03832357    0.00000000
                                                     2        0.1400000       -0.08683256    0.00000000
                                                     2        0.1800000        0.09312970    0.00000000
                                                     2        0.2800000       -0.02532572    0.00000000
                                                     2        0.4000000       -0.09430787    0.00000000
                                                     2        0.7000000        0.42710831    0.00000000
                                                     2        1.2000000       -2.11746981    0.00000000
                                      S - F
                                                     0        0.0000010        0.14449603    0.00000000
                                                     2        0.1200000       -0.56378993    0.00000000
                                                     2        0.1400000        0.63941249    0.00000000
                                                     2        0.2600000       -0.58461015    0.00000000
                                                     2        0.5000000        1.00157293    0.00000000
                                                     2        1.8000000       -0.14135838    0.00000000
                                      P - F
                                                     0        0.0000010       -0.09353646    0.00000000
                                                     2        0.1200000        0.31768975    0.00000000
                                                     2        0.2000000       -0.71747951    0.00000000
                                                     2        0.4000000        0.65752308    0.00000000
                                                     2        1.7000000        2.94052587    0.00000000
                                      D - F
                                                     0        0.0000010       -0.04491202    0.00000000
                                                     2        0.1200000       -0.02862031    0.00000000
                                                     2        0.1800000       -0.21515263    0.00000000
                                                     2        0.3000000        0.80560647    0.00000000
                                                     2        0.4000000        0.47351754    0.00000000
                                                     2        0.7000000       -4.57051794    0.00000000
                                                     2        1.6000000       18.53737826    0.00000000
   15          1            1
                                      F and up 
                                                     0        0.0000010        0.00072061    0.00000000
                                                     2        0.1200000        0.03832357    0.00000000
                                                     2        0.1400000       -0.08683256    0.00000000
                                                     2        0.1800000        0.09312970    0.00000000
                                                     2        0.2800000       -0.02532572    0.00000000
                                                     2        0.4000000       -0.09430787    0.00000000
                                                     2        0.7000000        0.42710831    0.00000000
                                                     2        1.2000000       -2.11746981    0.00000000
                                      S - F
                                                     0        0.0000010        0.14449603    0.00000000
                                                     2        0.1200000       -0.56378993    0.00000000
                                                     2        0.1400000        0.63941249    0.00000000
                                                     2        0.2600000       -0.58461015    0.00000000
                                                     2        0.5000000        1.00157293    0.00000000
                                                     2        1.8000000       -0.14135838    0.00000000
                                      P - F
                                                     0        0.0000010       -0.09353646    0.00000000
                                                     2        0.1200000        0.31768975    0.00000000
                                                     2        0.2000000       -0.71747951    0.00000000
                                                     2        0.4000000        0.65752308    0.00000000
                                                     2        1.7000000        2.94052587    0.00000000
                                      D - F
                                                     0        0.0000010       -0.04491202    0.00000000
                                                     2        0.1200000       -0.02862031    0.00000000
                                                     2        0.1800000       -0.21515263    0.00000000
                                                     2        0.3000000        0.80560647    0.00000000
                                                     2        0.4000000        0.47351754    0.00000000
                                                     2        0.7000000       -4.57051794    0.00000000
                                                     2        1.6000000       18.53737826    0.00000000
   16          1            1
                                      F and up 
                                                     0        0.0000010        0.00072061    0.00000000
                                                     2        0.1200000        0.03832357    0.00000000
                                                     2        0.1400000       -0.08683256    0.00000000
                                                     2        0.1800000        0.09312970    0.00000000
                                                     2        0.2800000       -0.02532572    0.00000000
                                                     2        0.4000000       -0.09430787    0.00000000
                                                     2        0.7000000        0.42710831    0.00000000
                                                     2        1.2000000       -2.11746981    0.00000000
                                      S - F
                                                     0        0.0000010        0.14449603    0.00000000
                                                     2        0.1200000       -0.56378993    0.00000000
                                                     2        0.1400000        0.63941249    0.00000000
                                                     2        0.2600000       -0.58461015    0.00000000
                                                     2        0.5000000        1.00157293    0.00000000
                                                     2        1.8000000       -0.14135838    0.00000000
                                      P - F
                                                     0        0.0000010       -0.09353646    0.00000000
                                                     2        0.1200000        0.31768975    0.00000000
                                                     2        0.2000000       -0.71747951    0.00000000
                                                     2        0.4000000        0.65752308    0.00000000
                                                     2        1.7000000        2.94052587    0.00000000
                                      D - F
                                                     0        0.0000010       -0.04491202    0.00000000
                                                     2        0.1200000       -0.02862031    0.00000000
                                                     2        0.1800000       -0.21515263    0.00000000
                                                     2        0.3000000        0.80560647    0.00000000
                                                     2        0.4000000        0.47351754    0.00000000
                                                     2        0.7000000       -4.57051794    0.00000000
                                                     2        1.6000000       18.53737826    0.00000000
   17         17           17
                                      G and up 
                                                     0        0.0000010        0.00409650    0.00000000
                                                     2        0.1200000        0.06945192    0.00000000
                                                     2        0.1400000       -0.06660574    0.00000000
                                                     2        0.2200000        0.15305308    0.00000000
                                      S - G
                                                     0        0.0000010        0.00555482    0.00000000
                                                     2        0.2000000       -0.53060378    0.00000000
                                      P - G
                                                     0        0.0000010       -0.16962542    0.00000000
                                                     2        0.1200000        0.15585357    0.00000000
                                                     2        0.1800000       -0.79460714    0.00000000
                                                     2        0.5000000        1.36495881    0.00000000
                                      D - G
                                                     0        0.0000010        0.91266089    0.00000000
                                                     2        0.2400000       -1.50552862    0.00000000
                                      F - G
                                                     0        0.0000010       -0.76620800    0.00000000
                                                     2        0.1200000       -0.23737626    0.00000000
                                                     2        0.1800000        0.28531204    0.00000000
 ======================================================================================================
   245 basis functions,   455 primitive gaussians,   257 cartesian basis functions
    33 alpha electrons       33 beta electrons
       nuclear repulsion energy       380.5117024898 Hartrees.
 NAtoms=   17 NActive=   17 NUniq=   17 SFac= 1.00D+00 NAtFMM=   60 NAOKFM=F Big=F
   1 Symmetry operations used in ECPInt.
 ECPInt:  NShTT=    6441 NPrTT=   33097 LenC2=    6433 LenP2D=   25239.
 LDataN:  DoStor=T MaxTD1= 6 Len=  172
 Initial guess from the checkpoint file:  "BDE49_nonexpt_1748_mol1.chk"
 B after Tr=     0.000000    0.000000   -0.000000
         Rot=    1.000000    0.000000   -0.000000   -0.000000 Ang=  -0.00 deg.
 >>>>>>>>>> Convergence criterion not met.
 SCF Done:  E(RHF) =  -907.667442716     A.U. after    2 cycles
            NFock=  1  Conv=0.15D+00     -V/T= 2.0176

 **********************************************************************

            Population analysis using the SCF Density.

 **********************************************************************

 Orbital symmetries:
       Occupied  (A) (A) (A) (A) (A) (A) (A) (A) (A) (A) (A) (A)
                 (A) (A) (A) (A) (A) (A) (A) (A) (A) (A) (A) (A)
                 (A) (A) (A) (A) (A) (A) (A) (A) (A)
       Virtual   (A) (A) (A) (A) (A) (A) (A) (A) (A) (A) (A) (A)
                 (A) (A) (A) (A) (A) (A) (A) (A) (A) (A) (A) (A)
                 (A) (A) (A) (A) (A) (A) (A) (A) (A) (A) (A) (A)
                 (A) (A) (A) (A) (A) (A) (A) (A) (A) (A) (A) (A)
                 (A) (A) (A) (A) (A) (A) (A) (A) (A) (A) (A) (A)
                 (A) (A) (A) (A) (A) (A) (A) (A) (A) (A) (A) (A)
                 (A) (A) (A) (A) (A) (A) (A) (A) (A) (A) (A) (A)
                 (A) (A) (A) (A) (A) (A) (A) (A) (A) (A) (A) (A)
                 (A) (A) (A) (A) (A) (A) (A) (A) (A) (A) (A) (A)
                 (A) (A) (A) (A) (A) (A) (A) (A) (A) (A) (A) (A)
                 (A) (A) (A) (A) (A) (A) (A) (A) (A) (A) (A) (A)
                 (A) (A) (A) (A) (A) (A) (A) (A) (A) (A) (A) (A)
                 (A) (A) (A) (A) (A) (A) (A) (A) (A) (A) (A) (A)
                 (A) (A) (A) (A) (A) (A) (A) (A) (A) (A) (A) (A)
                 (A) (A) (A) (A) (A) (A) (A) (A) (A) (A) (A) (A)
                 (A) (A) (A) (A) (A) (A) (A) (A) (A) (A) (A) (A)
                 (A) (A) (A) (A) (A) (A) (A) (A) (A) (A) (A) (A)
                 (A) (A) (A) (A) (A) (A) (A) (A)
 The electronic state is 1-A.
 Alpha  occ. eigenvalues --  -99.86243 -76.22879 -11.39795 -11.35359 -11.35293
 Alpha  occ. eigenvalues --  -11.34906 -10.43600  -9.63557  -9.63077  -9.63061
 Alpha  occ. eigenvalues --   -5.56947  -2.20654  -2.20362  -2.19285  -1.26844
 Alpha  occ. eigenvalues --   -1.15398  -1.05825  -1.01873  -0.89382  -0.69129
 Alpha  occ. eigenvalues --   -0.61762  -0.58743  -0.57815  -0.56908  -0.56245
 Alpha  occ. eigenvalues --   -0.55007  -0.51457  -0.51300  -0.50148  -0.48991
 Alpha  occ. eigenvalues --   -0.48253  -0.39853  -0.37834
 Alpha virt. eigenvalues --    0.02813   0.04870   0.05594   0.05895   0.06284
 Alpha virt. eigenvalues --    0.06557   0.06728   0.06886   0.07221   0.07899
 Alpha virt. eigenvalues --    0.08688   0.09122   0.09788   0.10027   0.10750
 Alpha virt. eigenvalues --    0.13510   0.14568   0.14983   0.16155   0.16666
 Alpha virt. eigenvalues --    0.17506   0.17738   0.18125   0.18458   0.18838
 Alpha virt. eigenvalues --    0.19856   0.20210   0.20252   0.20406   0.20599
 Alpha virt. eigenvalues --    0.21174   0.21709   0.22179   0.23135   0.24118
 Alpha virt. eigenvalues --    0.24638   0.25019   0.25923   0.27142   0.27272
 Alpha virt. eigenvalues --    0.28511   0.29655   0.31087   0.31832   0.32955
 Alpha virt. eigenvalues --    0.34210   0.36168   0.36824   0.38282   0.39973
 Alpha virt. eigenvalues --    0.40451   0.41040   0.42199   0.42925   0.43359
 Alpha virt. eigenvalues --    0.44314   0.45231   0.45974   0.46258   0.46486
 Alpha virt. eigenvalues --    0.47324   0.47829   0.48089   0.48527   0.48820
 Alpha virt. eigenvalues --    0.49729   0.51266   0.51628   0.52302   0.52898
 Alpha virt. eigenvalues --    0.53795   0.54787   0.55479   0.56138   0.56534
 Alpha virt. eigenvalues --    0.57257   0.57903   0.59196   0.59640   0.61801
 Alpha virt. eigenvalues --    0.62762   0.62981   0.63564   0.64594   0.64818
 Alpha virt. eigenvalues --    0.66582   0.67347   0.67856   0.69084   0.70157
 Alpha virt. eigenvalues --    0.71671   0.71957   0.72283   0.73807   0.75035
 Alpha virt. eigenvalues --    0.76307   0.76376   0.76927   0.78342   0.79386
 Alpha virt. eigenvalues --    0.80043   0.80369   0.81309   0.82985   0.83706
 Alpha virt. eigenvalues --    0.86143   0.86940   0.87832   0.88278   0.89949
 Alpha virt. eigenvalues --    0.93795   0.94688   0.95851   0.98449   1.07377
 Alpha virt. eigenvalues --    1.07790   1.10051   1.11673   1.13771   1.16259
 Alpha virt. eigenvalues --    1.17982   1.19015   1.23734   1.25321   1.26961
 Alpha virt. eigenvalues --    1.30298   1.30676   1.33317   1.33830   1.34306
 Alpha virt. eigenvalues --    1.36803   1.38525   1.39516   1.39912   1.40878
 Alpha virt. eigenvalues --    1.44266   1.45436   1.47167   1.49113   1.51620
 Alpha virt. eigenvalues --    1.52735   1.55037   1.61093   1.68458   1.70429
 Alpha virt. eigenvalues --    1.74620   1.76586   1.79981   1.80697   1.80979
 Alpha virt. eigenvalues --    1.82295   1.85035   1.89013   1.90945   1.95049
 Alpha virt. eigenvalues --    1.98174   2.00105   2.00840   2.02362   2.03047
 Alpha virt. eigenvalues --    2.04679   2.05810   2.07043   2.08498   2.14535
 Alpha virt. eigenvalues --    2.15189   2.16009   2.16917   2.20250   2.24399
 Alpha virt. eigenvalues --    2.24592   2.26483   2.31491   2.35011   2.39582
 Alpha virt. eigenvalues --    2.39985   2.42660   2.45691   2.47619   2.52903
 Alpha virt. eigenvalues --    2.54369   2.56111   2.58625   2.59538   2.61765
 Alpha virt. eigenvalues --    2.63364   2.64421   2.65860   2.66582   2.67193
 Alpha virt. eigenvalues --    2.70711   2.74397   2.77366   2.80306   2.80748
 Alpha virt. eigenvalues --    2.82846   2.85427   2.89296   2.94414   3.00271
 Alpha virt. eigenvalues --    3.14334   3.23968   3.25612   3.32405   3.48282
 Alpha virt. eigenvalues --    3.59693   3.67289   3.68427   3.69775   3.72071
 Alpha virt. eigenvalues --    3.75874   3.86587
          Condensed to atoms (all electrons):
 Mulliken charges:
               1
     1  Si   6.681952
     2  C   -4.179930
     3  C   -3.818955
     4  H    1.338489
     5  H    1.225965
     6  H    1.281743
     7  H    1.129427
     8  H    1.218311
     9  C   -5.564078
    10  H    1.288037
    11  H    1.169801
    12  H    1.198483
    13  C   -5.474916
    14  H    1.228043
    15  H    1.172672
    16  H    1.133776
    17  Cl  -1.028821
 Sum of Mulliken charges =  -0.00000
 Mulliken charges with hydrogens summed into heavy atoms:
               1
     1  Si   6.681952
     2  C   -1.615475
     3  C   -0.189473
     9  C   -1.907757
    13  C   -1.940426
    17  Cl  -1.028821
 Electronic spatial extent (au):  <R**2>=           1062.9191
 Charge=             -0.0000 electrons
 Dipole moment (field-independent basis, Debye):
    X=             -0.7612    Y=             -2.3737    Z=             -0.0425  Tot=              2.4931

 Test job not archived.
 1\1\GINC-SE070\SP\RHF\Aug-CC-pVDZ\C4H11Cl1Si1\OHZDE\08-Apr-2025\0\\#t 
 hf aug-cc-pvdz iop(5/13=1,5/36=2,99/5=2) pseudo=read geom=check guess=
 (read,tcheck) scf=(maxcycle=1)\\title\\0,1\Si,0,0.280054,-0.376056,0.0
 0029\C,0,-1.427,-0.504206,-0.775385\C,0,-2.559296,0.244385,-0.05161\H,
 0,-1.665822,-1.574547,-0.841069\H,0,-1.347655,-0.153578,-1.810967\H,0,
 -2.700005,-0.125267,0.96795\H,0,-3.511246,0.124013,-0.576171\H,0,-2.34
 956,1.314936,0.011446\C,0,1.550938,-1.29678,-1.019056\H,0,1.320022,-2.
 367021,-1.042534\H,0,2.552996,-1.176289,-0.599444\H,0,1.570522,-0.9315
 96,-2.049063\C,0,0.295712,-0.935906,1.786301\H,0,0.004345,-1.989158,1.
 858541\H,0,-0.396579,-0.349476,2.395156\H,0,1.294227,-0.830915,2.21842
 1\Cl,0,0.83211,1.663454,-0.01046\\Version=ES64L-G16RevC.01\State=1-A\H
 F=-907.6674427\RMSD=1.517e-01\Dipole=-0.299464,-0.9338935,-0.0167383\Q
 uadrupole=0.0555884,-0.4592484,0.40366,-0.7622615,0.3662499,-0.1617612
 \PG=C01 [X(C4H11Cl1Si1)]\\@


 YOU CAN WIPE THE SLATE CLEAN, BUT YOU'LL STILL
 HAVE TO EAT A LITTLE CHALK DUST.
 Job cpu time:       0 days  0 hours  1 minutes 25.0 seconds.
 Elapsed time:       0 days  0 hours  0 minutes  6.3 seconds.
 File lengths (MBytes):  RWF=     14 Int=      0 D2E=      0 Chk=      9 Scr=      1
 Normal termination of Gaussian 16 at Tue Apr  8 23:45:55 2025.
