 Entering Gaussian System, Link 0=g16
 Input=BDE49_nonexpt_219_mol1.gjf
 Output=BDE49_nonexpt_219_mol1.log
 Initial command:
 /arc/software/Gaussian/g16.c01/l1.exe "/tmp/slurm/4851348/Gau-267063.inp" -scrdir="/tmp/slurm/4851348/"
 Entering Link 1 = /arc/software/Gaussian/g16.c01/l1.exe PID=    267064.
  
 Copyright (c) 1988-2019, Gaussian, Inc.  All Rights Reserved.
  
 This is part of the Gaussian(R) 16 program.  It is based on
 the Gaussian(R) 09 system (copyright 2009, Gaussian, Inc.),
 the Gaussian(R) 03 system (copyright 2003, Gaussian, Inc.),
 the Gaussian(R) 98 system (copyright 1998, Gaussian, Inc.),
 the Gaussian(R) 94 system (copyright 1995, Gaussian, Inc.),
 the Gaussian 92(TM) system (copyright 1992, Gaussian, Inc.),
 the Gaussian 90(TM) system (copyright 1990, Gaussian, Inc.),
 the Gaussian 88(TM) system (copyright 1988, Gaussian, Inc.),
 the Gaussian 86(TM) system (copyright 1986, Carnegie Mellon
 University), and the Gaussian 82(TM) system (copyright 1983,
 Carnegie Mellon University). Gaussian is a federally registered
 trademark of Gaussian, Inc.
  
 This software contains proprietary and confidential information,
 including trade secrets, belonging to Gaussian, Inc.
  
 This software is provided under written license and may be
 used, copied, transmitted, or stored only in accord with that
 written license.
  
 The following legend is applicable only to US Government
 contracts under FAR:
  
                    RESTRICTED RIGHTS LEGEND
  
 Use, reproduction and disclosure by the US Government is
 subject to restrictions as set forth in subparagraphs (a)
 and (c) of the Commercial Computer Software - Restricted
 Rights clause in FAR 52.227-19.
  
 Gaussian, Inc.
 340 Quinnipiac St., Bldg. 40, Wallingford CT 06492
  
  
 ---------------------------------------------------------------
 Warning -- This program may not be used in any manner that
 competes with the business of Gaussian, Inc. or will provide
 assistance to any competitor of Gaussian, Inc.  The licensee
 of this program is prohibited from giving any competitor of
 Gaussian, Inc. access to this program.  By using this program,
 the user acknowledges that Gaussian, Inc. is engaged in the
 business of creating and licensing software in the field of
 computational chemistry and represents and warrants to the
 licensee that it is not a competitor of Gaussian, Inc. and that
 it will not use this program in any manner prohibited above.
 ---------------------------------------------------------------
  

 Cite this work as:
 Gaussian 16, Revision C.01,
 M. J. Frisch, G. W. Trucks, H. B. Schlegel, G. E. Scuseria, 
 M. A. Robb, J. R. Cheeseman, G. Scalmani, V. Barone, 
 G. A. Petersson, H. Nakatsuji, X. Li, M. Caricato, A. V. Marenich, 
 J. Bloino, B. G. Janesko, R. Gomperts, B. Mennucci, H. P. Hratchian, 
 J. V. Ortiz, A. F. Izmaylov, J. L. Sonnenberg, D. Williams-Young, 
 F. Ding, F. Lipparini, F. Egidi, J. Goings, B. Peng, A. Petrone, 
 T. Henderson, D. Ranasinghe, V. G. Zakrzewski, J. Gao, N. Rega, 
 G. Zheng, W. Liang, M. Hada, M. Ehara, K. Toyota, R. Fukuda, 
 J. Hasegawa, M. Ishida, T. Nakajima, Y. Honda, O. Kitao, H. Nakai, 
 T. Vreven, K. Throssell, J. A. Montgomery, Jr., J. E. Peralta, 
 F. Ogliaro, M. J. Bearpark, J. J. Heyd, E. N. Brothers, K. N. Kudin, 
 V. N. Staroverov, T. A. Keith, R. Kobayashi, J. Normand, 
 K. Raghavachari, A. P. Rendell, J. C. Burant, S. S. Iyengar, 
 J. Tomasi, M. Cossi, J. M. Millam, M. Klene, C. Adamo, R. Cammi, 
 J. W. Ochterski, R. L. Martin, K. Morokuma, O. Farkas, 
 J. B. Foresman, and D. J. Fox, Gaussian, Inc., Wallingford CT, 2019.
 
 ******************************************
 Gaussian 16:  ES64L-G16RevC.01  3-Jul-2019
                 9-Apr-2025 
 ******************************************
 %nprocs=16
 Will use up to   16 processors via shared memory.
 %mem=30GB
 %chk=BDE49_nonexpt_219_mol1.chk
 ----------------------------------------------------------------------
 #t hf aug-cc-pvdz symm=none int=(grid=ultrafine) guess=(read,tcheck) s
 table=(opt,rrhf)
 ----------------------------------------------------------------------
 -----
 title
 -----
 Symbolic Z-matrix:
 Charge =  0 Multiplicity = 1
 Cl                    0.74474   1.67742   0. 
 B                     0.41633  -0.05942   0. 
 C                    -2.08825  -0.35534   0. 
 O                    -3.24465  -0.25488   0. 
 N                    -0.89889  -0.55239   0. 
 Cl                    1.76686  -1.18713  0. 
 
                    Distance matrix (angstroms):
                    1          2          3          4          5
     1  Cl   0.000000
     2  B    1.767615   0.000000
     3  C    3.486820   2.522002   0.000000
     4  O    4.432718   3.666195   1.160755   0.000000
     5  N    2.770114   1.404569   1.205576   2.364554   0.000000
     6  Cl   3.041439   1.759446   3.943826   5.097483   2.740276
                    6
     6  Cl   0.000000
 Symmetry turned off by external request.
 Rotational constants (GHZ):           3.2703338           1.3943792           0.9775704
   146 basis functions,   334 primitive gaussians,   158 cartesian basis functions
    30 alpha electrons       30 beta electrons
       nuclear repulsion energy       284.6332035912 Hartrees.
 NAtoms=    6 NActive=    6 NUniq=    6 SFac= 1.00D+00 NAtFMM=   60 NAOKFM=F Big=F
 ExpMin= 2.38D-02 ExpMax= 1.28D+05 ExpMxC= 1.24D+03 IAcc=3 IRadAn=         5 AccDes= 0.00D+00
 Harris functional with IExCor=  205 and IRadAn=       5 diagonalized for initial guess.
 HarFok:  IExCor=  205 AccDes= 0.00D+00 IRadAn=         5 IDoV= 1 UseB2=F ITyADJ=14
 ICtDFT=  3500011 ScaDFX=  1.000000  1.000000  1.000000  1.000000
 FoFCou: FMM=F IPFlag=           0 FMFlag=      100000 FMFlg1=           0
         NFxFlg=           0 DoJE=T BraDBF=F KetDBF=T FulRan=T
         wScrn=  0.000000 ICntrl=       500 IOpCl=  0 I1Cent=   200000004 NGrid=           0
         NMat0=    1 NMatS0=      1 NMatT0=    0 NMatD0=    1 NMtDS0=    0 NMtDT0=    0
 Symmetry not used in FoFCou.
 SCF Done:  E(RHF) =  -1111.03995793     A.U. after   13 cycles
            NFock= 13  Conv=0.89D-08     -V/T= 2.0002

 **********************************************************************

            Population analysis using the SCF Density.

 **********************************************************************

 Alpha  occ. eigenvalues -- -104.85648-104.85461 -20.66024 -15.62228 -11.46102
 Alpha  occ. eigenvalues --  -10.58446 -10.58263  -8.05173  -8.04995  -8.04931
 Alpha  occ. eigenvalues --   -8.04895  -8.04752  -8.04710  -7.77486  -1.51012
 Alpha  occ. eigenvalues --   -1.30266  -1.15477  -1.11524  -0.88541  -0.76311
 Alpha  occ. eigenvalues --   -0.68984  -0.68478  -0.65463  -0.59895  -0.54784
 Alpha  occ. eigenvalues --   -0.50580  -0.48458  -0.48066  -0.47593  -0.45905
 Alpha virt. eigenvalues --    0.03863   0.05068   0.05279   0.05548   0.06776
 Alpha virt. eigenvalues --    0.09755   0.10122   0.10634   0.12190   0.13279
 Alpha virt. eigenvalues --    0.14814   0.15162   0.16610   0.18487   0.18765
 Alpha virt. eigenvalues --    0.18801   0.19564   0.20469   0.21605   0.24055
 Alpha virt. eigenvalues --    0.24352   0.26919   0.27798   0.28892   0.29372
 Alpha virt. eigenvalues --    0.30533   0.30608   0.31512   0.34823   0.36571
 Alpha virt. eigenvalues --    0.37173   0.37625   0.39253   0.43733   0.45490
 Alpha virt. eigenvalues --    0.47610   0.50173   0.50741   0.52427   0.53191
 Alpha virt. eigenvalues --    0.53618   0.57963   0.57982   0.60193   0.61220
 Alpha virt. eigenvalues --    0.62706   0.65232   0.65876   0.69451   0.72761
 Alpha virt. eigenvalues --    0.75304   0.75635   0.77661   0.79976   0.82942
 Alpha virt. eigenvalues --    0.83533   0.88552   0.89448   0.92021   0.92970
 Alpha virt. eigenvalues --    0.99632   1.00855   1.05430   1.07608   1.09390
 Alpha virt. eigenvalues --    1.11085   1.12937   1.13574   1.14747   1.16449
 Alpha virt. eigenvalues --    1.20689   1.23006   1.24521   1.25811   1.29419
 Alpha virt. eigenvalues --    1.33519   1.40244   1.42258   1.43562   1.44604
 Alpha virt. eigenvalues --    1.45296   1.47617   1.48854   1.49677   1.51712
 Alpha virt. eigenvalues --    1.53029   1.53502   1.55784   1.60489   1.66110
 Alpha virt. eigenvalues --    1.68710   1.69725   1.79973   1.81078   1.83197
 Alpha virt. eigenvalues --    1.86818   1.93743   2.00094   2.12086   2.16644
 Alpha virt. eigenvalues --    2.17688   2.43461   2.57032   2.61466   2.65666
 Alpha virt. eigenvalues --    2.77113   2.89161   2.97012   3.06328   3.55549
 Alpha virt. eigenvalues --    3.60126   3.61265   3.82595   3.86883   3.96797
 Alpha virt. eigenvalues --    4.17850
          Condensed to atoms (all electrons):
 Mulliken charges:
               1
     1  Cl  -0.296857
     2  B    0.624297
     3  C    0.334376
     4  O   -0.364834
     5  N    0.023222
     6  Cl  -0.320205
 Sum of Mulliken charges =  -0.00000
 Mulliken charges with hydrogens summed into heavy atoms:
               1
     1  Cl  -0.296857
     2  B    0.624297
     3  C    0.334376
     4  O   -0.364834
     5  N    0.023222
     6  Cl  -0.320205
 Electronic spatial extent (au):  <R**2>=           1019.3450
 Charge=             -0.0000 electrons
 Dipole moment (field-independent basis, Debye):
    X=              0.0769    Y=             -0.0332    Z=             -0.0000  Tot=              0.0838
 NROrb=    146 NOA=    30 NOB=    30 NVA=   116 NVB=   116

 **** Warning!!: The largest alpha MO coefficient is  0.21549734D+02

    12 initial guesses have been made.
 Iteration     1 Dimension    12 NMult     0 NNew     12
 Iteration     2 Dimension    24 NMult    12 NNew     12
 Iteration     3 Dimension    27 NMult    24 NNew      3
 Iteration     4 Dimension    30 NMult    27 NNew      3
 Iteration     5 Dimension    33 NMult    30 NNew      3
 Iteration     6 Dimension    36 NMult    33 NNew      3
 Iteration     7 Dimension    39 NMult    36 NNew      3
 ***********************************************************************
 Stability analysis using <AA,BB:AA,BB> singles matrix:
 ***********************************************************************
 Ground to excited state transition densities written to RWF  633

 Eigenvectors of the stability matrix:
 
 Excited state symmetry could not be determined.
 Eigenvector   1:      Singlet-?Sym  Eigenvalue= 0.2331432  <S**2>=0.000
      25 -> 43         0.12937
      27 -> 35         0.36058
      27 -> 50         0.14058
      29 -> 39        -0.10926
      29 -> 43         0.24141
      30 -> 35         0.35740
      30 -> 50         0.10505
 The wavefunction is stable under the perturbations considered.
 The wavefunction is already stable.

 **********************************************************************

            Population analysis using the SCF Density.

 **********************************************************************

 Alpha  occ. eigenvalues -- -104.85648-104.85461 -20.66024 -15.62228 -11.46102
 Alpha  occ. eigenvalues --  -10.58446 -10.58263  -8.05173  -8.04995  -8.04931
 Alpha  occ. eigenvalues --   -8.04895  -8.04752  -8.04710  -7.77486  -1.51012
 Alpha  occ. eigenvalues --   -1.30266  -1.15477  -1.11524  -0.88541  -0.76311
 Alpha  occ. eigenvalues --   -0.68984  -0.68478  -0.65463  -0.59895  -0.54784
 Alpha  occ. eigenvalues --   -0.50580  -0.48458  -0.48066  -0.47593  -0.45905
 Alpha virt. eigenvalues --    0.03863   0.05068   0.05279   0.05548   0.06776
 Alpha virt. eigenvalues --    0.09755   0.10122   0.10634   0.12190   0.13279
 Alpha virt. eigenvalues --    0.14814   0.15162   0.16610   0.18487   0.18765
 Alpha virt. eigenvalues --    0.18801   0.19564   0.20469   0.21605   0.24055
 Alpha virt. eigenvalues --    0.24352   0.26919   0.27798   0.28892   0.29372
 Alpha virt. eigenvalues --    0.30533   0.30608   0.31512   0.34823   0.36571
 Alpha virt. eigenvalues --    0.37173   0.37625   0.39253   0.43733   0.45490
 Alpha virt. eigenvalues --    0.47610   0.50173   0.50741   0.52427   0.53191
 Alpha virt. eigenvalues --    0.53618   0.57963   0.57982   0.60193   0.61220
 Alpha virt. eigenvalues --    0.62706   0.65232   0.65876   0.69451   0.72761
 Alpha virt. eigenvalues --    0.75304   0.75635   0.77661   0.79976   0.82942
 Alpha virt. eigenvalues --    0.83533   0.88552   0.89448   0.92021   0.92970
 Alpha virt. eigenvalues --    0.99632   1.00855   1.05430   1.07608   1.09390
 Alpha virt. eigenvalues --    1.11085   1.12937   1.13574   1.14747   1.16449
 Alpha virt. eigenvalues --    1.20689   1.23006   1.24521   1.25811   1.29419
 Alpha virt. eigenvalues --    1.33519   1.40244   1.42258   1.43562   1.44604
 Alpha virt. eigenvalues --    1.45296   1.47617   1.48854   1.49677   1.51712
 Alpha virt. eigenvalues --    1.53029   1.53502   1.55784   1.60489   1.66110
 Alpha virt. eigenvalues --    1.68710   1.69725   1.79973   1.81078   1.83197
 Alpha virt. eigenvalues --    1.86818   1.93743   2.00094   2.12086   2.16644
 Alpha virt. eigenvalues --    2.17688   2.43461   2.57032   2.61466   2.65666
 Alpha virt. eigenvalues --    2.77113   2.89161   2.97012   3.06328   3.55549
 Alpha virt. eigenvalues --    3.60126   3.61265   3.82595   3.86883   3.96797
 Alpha virt. eigenvalues --    4.17850
          Condensed to atoms (all electrons):
 Mulliken charges:
               1
     1  Cl  -0.296857
     2  B    0.624297
     3  C    0.334376
     4  O   -0.364834
     5  N    0.023222
     6  Cl  -0.320205
 Sum of Mulliken charges =  -0.00000
 Mulliken charges with hydrogens summed into heavy atoms:
               1
     1  Cl  -0.296857
     2  B    0.624297
     3  C    0.334376
     4  O   -0.364834
     5  N    0.023222
     6  Cl  -0.320205
 Electronic spatial extent (au):  <R**2>=           1019.3450
 Charge=             -0.0000 electrons
 Dipole moment (field-independent basis, Debye):
    X=              0.0769    Y=             -0.0332    Z=             -0.0000  Tot=              0.0838
 Unable to Open any file for archive entry.
 1\1\GINC-SE082\Stability\RHF\Aug-CC-pVDZ\C1B1Cl2N1O1\OHZDE\09-Apr-2025
 \0\\#t hf aug-cc-pvdz symm=none int=(grid=ultrafine) guess=(read,tchec
 k) stable=(opt,rrhf)\\title\\0,1\Cl,0,0.744737,1.677417,0.000001\B,0,0
 .416332,-0.059423,0.\C,0,-2.088249,-0.35534,0.000001\O,0,-3.244649,-0.
 254884,0.000001\N,0,-0.898886,-0.552389,0.000002\Cl,0,1.766864,-1.1871
 26,-0.000003\\Version=ES64L-G16RevC.01\HF=-1111.0399579\RMSD=8.854e-09
 \Dipole=0.0302596,-0.0130512,-0.0000005\Quadrupole=-3.5947908,0.783621
 2,2.8111696,-0.0474595,0.0000045,-0.0000004\PG=Unknown\\@
 The archive entry for this job was punched.


 I take a simple view of life: keep your eyes open and get on with it.
 -- Laurence Olivier
 Job cpu time:       0 days  0 hours  0 minutes 51.2 seconds.
 Elapsed time:       0 days  0 hours  0 minutes  6.0 seconds.
 File lengths (MBytes):  RWF=    167 Int=      0 D2E=      0 Chk=      4 Scr=      1
 Normal termination of Gaussian 16 at Wed Apr  9 00:04:28 2025.
 Initial command:
 /arc/software/Gaussian/g16.c01/l1.exe "/tmp/slurm/4851348/Gau-267063.inp" -scrdir="/tmp/slurm/4851348/"
 Entering Link 1 = /arc/software/Gaussian/g16.c01/l1.exe PID=    267294.
  
 Copyright (c) 1988-2019, Gaussian, Inc.  All Rights Reserved.
  
 This is part of the Gaussian(R) 16 program.  It is based on
 the Gaussian(R) 09 system (copyright 2009, Gaussian, Inc.),
 the Gaussian(R) 03 system (copyright 2003, Gaussian, Inc.),
 the Gaussian(R) 98 system (copyright 1998, Gaussian, Inc.),
 the Gaussian(R) 94 system (copyright 1995, Gaussian, Inc.),
 the Gaussian 92(TM) system (copyright 1992, Gaussian, Inc.),
 the Gaussian 90(TM) system (copyright 1990, Gaussian, Inc.),
 the Gaussian 88(TM) system (copyright 1988, Gaussian, Inc.),
 the Gaussian 86(TM) system (copyright 1986, Carnegie Mellon
 University), and the Gaussian 82(TM) system (copyright 1983,
 Carnegie Mellon University). Gaussian is a federally registered
 trademark of Gaussian, Inc.
  
 This software contains proprietary and confidential information,
 including trade secrets, belonging to Gaussian, Inc.
  
 This software is provided under written license and may be
 used, copied, transmitted, or stored only in accord with that
 written license.
  
 The following legend is applicable only to US Government
 contracts under FAR:
  
                    RESTRICTED RIGHTS LEGEND
  
 Use, reproduction and disclosure by the US Government is
 subject to restrictions as set forth in subparagraphs (a)
 and (c) of the Commercial Computer Software - Restricted
 Rights clause in FAR 52.227-19.
  
 Gaussian, Inc.
 340 Quinnipiac St., Bldg. 40, Wallingford CT 06492
  
  
 ---------------------------------------------------------------
 Warning -- This program may not be used in any manner that
 competes with the business of Gaussian, Inc. or will provide
 assistance to any competitor of Gaussian, Inc.  The licensee
 of this program is prohibited from giving any competitor of
 Gaussian, Inc. access to this program.  By using this program,
 the user acknowledges that Gaussian, Inc. is engaged in the
 business of creating and licensing software in the field of
 computational chemistry and represents and warrants to the
 licensee that it is not a competitor of Gaussian, Inc. and that
 it will not use this program in any manner prohibited above.
 ---------------------------------------------------------------
  

 Cite this work as:
 Gaussian 16, Revision C.01,
 M. J. Frisch, G. W. Trucks, H. B. Schlegel, G. E. Scuseria, 
 M. A. Robb, J. R. Cheeseman, G. Scalmani, V. Barone, 
 G. A. Petersson, H. Nakatsuji, X. Li, M. Caricato, A. V. Marenich, 
 J. Bloino, B. G. Janesko, R. Gomperts, B. Mennucci, H. P. Hratchian, 
 J. V. Ortiz, A. F. Izmaylov, J. L. Sonnenberg, D. Williams-Young, 
 F. Ding, F. Lipparini, F. Egidi, J. Goings, B. Peng, A. Petrone, 
 T. Henderson, D. Ranasinghe, V. G. Zakrzewski, J. Gao, N. Rega, 
 G. Zheng, W. Liang, M. Hada, M. Ehara, K. Toyota, R. Fukuda, 
 J. Hasegawa, M. Ishida, T. Nakajima, Y. Honda, O. Kitao, H. Nakai, 
 T. Vreven, K. Throssell, J. A. Montgomery, Jr., J. E. Peralta, 
 F. Ogliaro, M. J. Bearpark, J. J. Heyd, E. N. Brothers, K. N. Kudin, 
 V. N. Staroverov, T. A. Keith, R. Kobayashi, J. Normand, 
 K. Raghavachari, A. P. Rendell, J. C. Burant, S. S. Iyengar, 
 J. Tomasi, M. Cossi, J. M. Millam, M. Klene, C. Adamo, R. Cammi, 
 J. W. Ochterski, R. L. Martin, K. Morokuma, O. Farkas, 
 J. B. Foresman, and D. J. Fox, Gaussian, Inc., Wallingford CT, 2019.
 
 ******************************************
 Gaussian 16:  ES64L-G16RevC.01  3-Jul-2019
                 9-Apr-2025 
 ******************************************
 %nprocs=16
 Will use up to   16 processors via shared memory.
 %mem=30GB
 %chk=BDE49_nonexpt_219_mol1.chk
 ----------------------------------------------------------------------
 #t hf aug-cc-pvdz iop(5/13=1,5/36=2,99/5=2) pseudo=read geom=check gue
 ss=(read,tcheck) scf=(maxcycle=1)
 ----------------------------------------------------------------------
 -----
 title
 -----
 Structure from the checkpoint file:  "BDE49_nonexpt_219_mol1.chk"
 Charge =  0 Multiplicity = 1
 Z-Matrix found in chk file.
 Cl,0,0.744737,1.677417,0.000001
 B,0,0.416332,-0.059423,0.
 C,0,-2.088249,-0.35534,0.000001
 O,0,-3.244649,-0.254884,0.000001
 N,0,-0.898886,-0.552389,0.000002
 Cl,0,1.766864,-1.187126,-0.000003
 Recover connectivity data from disk.
                    Distance matrix (angstroms):
                    1          2          3          4          5
     1  Cl   0.000000
     2  B    1.767615   0.000000
     3  C    3.486820   2.522002   0.000000
     4  O    4.432718   3.666195   1.160755   0.000000
     5  N    2.770114   1.404569   1.205576   2.364554   0.000000
     6  Cl   3.041439   1.759446   3.943826   5.097483   2.740276
                    6
     6  Cl   0.000000
 Framework group  C1[X(CBCl2NO)]
 Deg. of freedom    12
                         Standard orientation:                         
 ---------------------------------------------------------------------
 Center     Atomic      Atomic             Coordinates (Angstroms)
 Number     Number       Type             X           Y           Z
 ---------------------------------------------------------------------
      1         17           0        0.744737    1.677417    0.000001
      2          5           0        0.416332   -0.059423    0.000000
      3          6           0       -2.088249   -0.355340    0.000001
      4          8           0       -3.244649   -0.254884    0.000001
      5          7           0       -0.898886   -0.552389    0.000002
      6         17           0        1.766864   -1.187126   -0.000003
 ---------------------------------------------------------------------
 Rotational constants (GHZ):           3.2703338           1.3943792           0.9775704
 ======================================================================================================
                                       Pseudopotential Parameters
 ======================================================================================================
  Center     Atomic      Valence      Angular      Power
  Number     Number     Electrons     Momentum     of R      Exponent        Coefficient   SO-Coeffient
 ======================================================================================================
    1         17           17
                                      G and up 
                                                     0        0.0000010        0.00409650    0.00000000
                                                     2        0.1200000        0.06945192    0.00000000
                                                     2        0.1400000       -0.06660574    0.00000000
                                                     2        0.2200000        0.15305308    0.00000000
                                      S - G
                                                     0        0.0000010        0.00555482    0.00000000
                                                     2        0.2000000       -0.53060378    0.00000000
                                      P - G
                                                     0        0.0000010       -0.16962542    0.00000000
                                                     2        0.1200000        0.15585357    0.00000000
                                                     2        0.1800000       -0.79460714    0.00000000
                                                     2        0.5000000        1.36495881    0.00000000
                                      D - G
                                                     0        0.0000010        0.91266089    0.00000000
                                                     2        0.2400000       -1.50552862    0.00000000
                                      F - G
                                                     0        0.0000010       -0.76620800    0.00000000
                                                     2        0.1200000       -0.23737626    0.00000000
                                                     2        0.1800000        0.28531204    0.00000000
    2          5            5
                                      G and up 
                                                     0        0.0000010        0.00322401    0.00000000
                                                     2        0.1200000        0.00498000    0.00000000
                                                     2        0.2000000        0.09485229    0.00000000
                                                     2        0.2400000        0.01359109    0.00000000
                                                     2        0.4000000       -0.77574495    0.00000000
                                                     2        0.7000000        4.88158264    0.00000000
                                                     2        3.0000000       -1.47570482    0.00000000
                                      S - G
                                                     0        0.0000010       -0.03355475    0.00000000
                                                     2        0.1200000        0.61074044    0.00000000
                                                     2        0.2000000       -2.07118504    0.00000000
                                      P - G
                                                     0        0.0000010       -1.02759347    0.00000000
                                                     2        0.1200000        0.64674346    0.00000000
                                                     2        0.2000000       -0.92012472    0.00000000
                                      D - G
                                                     0        0.0000010        1.26102689    0.00000000
                                                     2        0.1200000       -0.86577517    0.00000000
                                                     2        0.4000000        3.34267170    0.00000000
                                                     2        0.9000000      -12.60945446    0.00000000
                                      F - G
                                                     0        0.0000010       -0.36092963    0.00000000
                                                     2        0.1200000       -0.17118798    0.00000000
                                                     2        0.1600000        0.78727920    0.00000000
                                                     2        0.8000000       -6.62088660    0.00000000
                                                     2        1.0000000      -57.27416670    0.00000000
    3          6            6
                                      G and up 
                                                     0        0.0000010       -0.00286759    0.00000000
                                                     2        0.1200000        0.03193960    0.00000000
                                                     2        0.1600000       -0.04027782    0.00000000
                                                     2        0.2600000        0.24782456    0.00000000
                                                     2        0.4000000       -0.62266671    0.00000000
                                                     2        0.7000000        0.35695227    0.00000000
                                      S - G
                                                     0        0.0000010       -0.06602313    0.00000000
                                                     2        0.1200000        1.47277455    0.00000000
                                                     2        0.1600000       -4.06924166    0.00000000
                                                     2        0.3000000        5.02952802    0.00000000
                                                     2        0.7000000       -5.65856978    0.00000000
                                                     2        1.7000000        8.57604414    0.00000000
                                      P - G
                                                     0        0.0000010        0.49434425    0.00000000
                                                     2        0.1200000       -1.37391547    0.00000000
                                                     2        0.1600000        3.65411806    0.00000000
                                                     2        0.2800000       -7.36479843    0.00000000
                                                     2        0.6000000       17.22091285    0.00000000
                                                     2        1.1000000      -23.50107827    0.00000000
                                                     2        3.0000000       16.29464063    0.00000000
                                      D - G
                                                     0        0.0000010       -0.28693103    0.00000000
                                                     2        0.1200000        0.12273044    0.00000000
                                                     2        0.3000000       -0.43416384    0.00000000
                                                     2        0.7000000        2.23358493    0.00000000
                                      F - G
                                                     0        0.0000010        0.07263570    0.00000000
                                                     2        0.1400000       -0.76152861    0.00000000
                                                     2        0.2200000        1.98045593    0.00000000
                                                     2        0.4000000       -2.42426427    0.00000000
                                                     2        0.7000000        0.52335237    0.00000000
    4          8            8
                                      G and up 
                                                     0        0.0000010       -0.00165251    0.00000000
                                                     2        0.1200000       -0.10937202    0.00000000
                                                     2        0.1400000        0.35668905    0.00000000
                                                     2        0.1800000       -0.51696033    0.00000000
                                                     2        0.2400000        0.52446472    0.00000000
                                                     2        0.4000000       -0.07754493    0.00000000
                                                     2        0.8000000       -1.90560988    0.00000000
                                                     2        1.7000000        0.19857963    0.00000000
                                      S - G
                                                     0        0.0000010       -0.03845181    0.00000000
                                                     2        0.1400000        0.42024558    0.00000000
                                                     2        0.4000000       -4.10467779    0.00000000
                                                     2        1.3000000        9.99571838    0.00000000
                                      P - G
                                                     0        0.0000010        0.33206183    0.00000000
                                                     2        0.1200000       -0.18708141    0.00000000
                                                     2        0.2800000       -0.18179081    0.00000000
                                                     2        0.7000000        1.18820394    0.00000000
                                      D - G
                                                     0        0.0000010       -0.57891674    0.00000000
                                                     2        0.1200000        0.60487490    0.00000000
                                                     2        0.2400000       -0.24931464    0.00000000
                                                     2        0.3000000       -2.75054612    0.00000000
                                                     2        1.0000000       15.96776040    0.00000000
                                      F - G
                                                     0        0.0000010        0.37449041    0.00000000
                                                     2        0.1200000       -0.63373642    0.00000000
                                                     2        0.1400000       -0.08412804    0.00000000
                                                     2        0.2800000        2.62321406    0.00000000
                                                     2        0.6000000       -2.68223623    0.00000000
    5          7            7
                                      G and up 
                                                     0        0.0000010        0.00420138    0.00000000
                                                     2        0.1200000        0.05872431    0.00000000
                                                     2        0.1400000       -0.08436978    0.00000000
                                                     2        0.2000000        0.05409159    0.00000000
                                                     2        0.2600000        0.14199713    0.00000000
                                                     2        0.6000000       -0.79062770    0.00000000
                                                     2        0.7000000       -0.14441060    0.00000000
                                                     2        1.5000000        0.73772979    0.00000000
                                      S - G
                                                     0        0.0000010       -0.03094411    0.00000000
                                                     2        0.1200000        0.65332522    0.00000000
                                                     2        0.1800000       -1.38149133    0.00000000
                                                     2        1.3000000        3.29267299    0.00000000
                                      P - G
                                                     0        0.0000010        0.07303105    0.00000000
                                                     2        0.1200000        0.23145115    0.00000000
                                                     2        0.2000000       -1.20679699    0.00000000
                                                     2        0.4000000        1.75088447    0.00000000
                                                     2        1.2000000       -0.67486559    0.00000000
                                      D - G
                                                     0        0.0000010        0.07560739    0.00000000
                                                     2        0.3000000       -0.68679114    0.00000000
                                                     2        0.9000000        3.60133241    0.00000000
                                      F - G
                                                     0        0.0000010       -0.18221184    0.00000000
                                                     2        0.1200000       -0.39369067    0.00000000
                                                     2        0.1800000        0.72091725    0.00000000
                                                     2        0.6000000        0.15946111    0.00000000
    6         17           17
                                      G and up 
                                                     0        0.0000010        0.00409650    0.00000000
                                                     2        0.1200000        0.06945192    0.00000000
                                                     2        0.1400000       -0.06660574    0.00000000
                                                     2        0.2200000        0.15305308    0.00000000
                                      S - G
                                                     0        0.0000010        0.00555482    0.00000000
                                                     2        0.2000000       -0.53060378    0.00000000
                                      P - G
                                                     0        0.0000010       -0.16962542    0.00000000
                                                     2        0.1200000        0.15585357    0.00000000
                                                     2        0.1800000       -0.79460714    0.00000000
                                                     2        0.5000000        1.36495881    0.00000000
                                      D - G
                                                     0        0.0000010        0.91266089    0.00000000
                                                     2        0.2400000       -1.50552862    0.00000000
                                      F - G
                                                     0        0.0000010       -0.76620800    0.00000000
                                                     2        0.1200000       -0.23737626    0.00000000
                                                     2        0.1800000        0.28531204    0.00000000
 ======================================================================================================
   146 basis functions,   334 primitive gaussians,   158 cartesian basis functions
    30 alpha electrons       30 beta electrons
       nuclear repulsion energy       284.6332035912 Hartrees.
 NAtoms=    6 NActive=    6 NUniq=    6 SFac= 1.00D+00 NAtFMM=   60 NAOKFM=F Big=F
   1 Symmetry operations used in ECPInt.
 ECPInt:  NShTT=    1711 NPrTT=   16355 LenC2=    1683 LenP2D=   10458.
 LDataN:  DoStor=T MaxTD1= 6 Len=  172
 Initial guess from the checkpoint file:  "BDE49_nonexpt_219_mol1.chk"
 B after Tr=     0.000000    0.000000    0.000000
         Rot=    1.000000    0.000000    0.000000    0.000000 Ang=   0.00 deg.
 >>>>>>>>>> Convergence criterion not met.
 SCF Done:  E(RHF) =  -1112.31115811     A.U. after    2 cycles
            NFock=  1  Conv=0.86D-01     -V/T= 1.9989

 **********************************************************************

            Population analysis using the SCF Density.

 **********************************************************************

 Orbital symmetries:
       Occupied  (A) (A) (A) (A) (A) (A) (A) (A) (A) (A) (A) (A)
                 (A) (A) (A) (A) (A) (A) (A) (A) (A) (A) (A) (A)
                 (A) (A) (A) (A) (A) (A)
       Virtual   (A) (A) (A) (A) (A) (A) (A) (A) (A) (A) (A) (A)
                 (A) (A) (A) (A) (A) (A) (A) (A) (A) (A) (A) (A)
                 (A) (A) (A) (A) (A) (A) (A) (A) (A) (A) (A) (A)
                 (A) (A) (A) (A) (A) (A) (A) (A) (A) (A) (A) (A)
                 (A) (A) (A) (A) (A) (A) (A) (A) (A) (A) (A) (A)
                 (A) (A) (A) (A) (A) (A) (A) (A) (A) (A) (A) (A)
                 (A) (A) (A) (A) (A) (A) (A) (A) (A) (A) (A) (A)
                 (A) (A) (A) (A) (A) (A) (A) (A) (A) (A) (A) (A)
                 (A) (A) (A) (A) (A) (A) (A) (A) (A) (A) (A) (A)
                 (A) (A) (A) (A) (A) (A) (A) (A)
 The electronic state is 1-A.
 Alpha  occ. eigenvalues --  -99.91302 -99.91119 -21.15882 -15.77511 -11.62780
 Alpha  occ. eigenvalues --  -10.48676 -10.48362  -9.68611  -9.68315  -9.68048
 Alpha  occ. eigenvalues --   -9.67869  -9.67854  -9.67695  -7.76605  -1.80538
 Alpha  occ. eigenvalues --   -1.47975  -1.35169  -1.31137  -0.93277  -0.73193
 Alpha  occ. eigenvalues --   -0.68730  -0.64798  -0.64497  -0.59334  -0.58049
 Alpha  occ. eigenvalues --   -0.54048  -0.53807  -0.51787  -0.40394  -0.39002
 Alpha virt. eigenvalues --    0.03082   0.03916   0.04038   0.04357   0.05367
 Alpha virt. eigenvalues --    0.09742   0.11314   0.11991   0.12617   0.12638
 Alpha virt. eigenvalues --    0.13804   0.15509   0.16070   0.16383   0.17227
 Alpha virt. eigenvalues --    0.17406   0.18059   0.19165   0.20054   0.21274
 Alpha virt. eigenvalues --    0.21900   0.23247   0.23645   0.24423   0.26607
 Alpha virt. eigenvalues --    0.27528   0.28121   0.29614   0.30790   0.31887
 Alpha virt. eigenvalues --    0.32411   0.32530   0.34346   0.36058   0.36428
 Alpha virt. eigenvalues --    0.37596   0.39359   0.41453   0.43080   0.47044
 Alpha virt. eigenvalues --    0.47188   0.48227   0.50643   0.50965   0.54383
 Alpha virt. eigenvalues --    0.55371   0.56411   0.58668   0.62733   0.70249
 Alpha virt. eigenvalues --    0.73733   0.74271   0.75026   0.75502   0.78419
 Alpha virt. eigenvalues --    0.79787   0.83379   0.84780   0.87765   0.91712
 Alpha virt. eigenvalues --    0.94574   0.95996   1.00001   1.01519   1.02526
 Alpha virt. eigenvalues --    1.02658   1.03553   1.04498   1.06223   1.07293
 Alpha virt. eigenvalues --    1.15651   1.20333   1.23994   1.25654   1.28212
 Alpha virt. eigenvalues --    1.29086   1.30368   1.30936   1.31167   1.32921
 Alpha virt. eigenvalues --    1.35826   1.39598   1.42086   1.42261   1.45874
 Alpha virt. eigenvalues --    1.49502   1.51490   1.59063   1.69620   1.78707
 Alpha virt. eigenvalues --    1.80814   1.85606   1.87910   1.89702   1.97568
 Alpha virt. eigenvalues --    1.99740   2.19447   2.23388   2.30835   2.39687
 Alpha virt. eigenvalues --    2.45141   2.54597   2.61056   2.87988   2.96713
 Alpha virt. eigenvalues --    2.99562   3.16313   3.28222   3.42942   3.86566
 Alpha virt. eigenvalues --    4.20899   5.86673   5.87592   6.03075   6.05421
 Alpha virt. eigenvalues --    6.47632
          Condensed to atoms (all electrons):
 Mulliken charges:
               1
     1  Cl  -1.045493
     2  B    2.631343
     3  C    4.577785
     4  O   -2.501627
     5  N   -2.535290
     6  Cl  -1.126719
 Sum of Mulliken charges =  -0.00000
 Mulliken charges with hydrogens summed into heavy atoms:
               1
     1  Cl  -1.045493
     2  B    2.631343
     3  C    4.577785
     4  O   -2.501627
     5  N   -2.535290
     6  Cl  -1.126719
 Electronic spatial extent (au):  <R**2>=           1019.1591
 Charge=              0.0000 electrons
 Dipole moment (field-independent basis, Debye):
    X=             -2.0282    Y=              0.1298    Z=             -0.0000  Tot=              2.0323

 Test job not archived.
 1\1\GINC-SE082\SP\RHF\Aug-CC-pVDZ\C1B1Cl2N1O1\OHZDE\09-Apr-2025\0\\#t 
 hf aug-cc-pvdz iop(5/13=1,5/36=2,99/5=2) pseudo=read geom=check guess=
 (read,tcheck) scf=(maxcycle=1)\\title\\0,1\Cl,0,0.744737,1.677417,0.00
 0001\B,0,0.416332,-0.059423,0.\C,0,-2.088249,-0.35534,0.000001\O,0,-3.
 244649,-0.254884,0.000001\N,0,-0.898886,-0.552389,0.000002\Cl,0,1.7668
 64,-1.187126,-0.000003\\Version=ES64L-G16RevC.01\State=1-A\HF=-1112.31
 11581\RMSD=8.634e-02\Dipole=-0.7979437,0.0510524,-0.0000003\Quadrupole
 =1.6812286,-1.1865283,-0.4947003,-0.0904989,0.0000001,0.0000012\PG=C01
  [X(C1B1Cl2N1O1)]\\@


 SILVERMAN'S PARADOX - IF MURPHY'S LAW CAN GO WRONG, IT WILL.
 Job cpu time:       0 days  0 hours  0 minutes 19.0 seconds.
 Elapsed time:       0 days  0 hours  0 minutes  2.1 seconds.
 File lengths (MBytes):  RWF=      6 Int=      0 D2E=      0 Chk=      4 Scr=      1
 Normal termination of Gaussian 16 at Wed Apr  9 00:04:31 2025.
