 Entering Gaussian System, Link 0=g16
 Input=BDE49_nonexpt_2064_mol1.gjf
 Output=BDE49_nonexpt_2064_mol1.log
 Initial command:
 /arc/software/Gaussian/g16.c01/l1.exe "/tmp/slurm/4850383/Gau-2240842.inp" -scrdir="/tmp/slurm/4850383/"
 Entering Link 1 = /arc/software/Gaussian/g16.c01/l1.exe PID=   2240843.
  
 Copyright (c) 1988-2019, Gaussian, Inc.  All Rights Reserved.
  
 This is part of the Gaussian(R) 16 program.  It is based on
 the Gaussian(R) 09 system (copyright 2009, Gaussian, Inc.),
 the Gaussian(R) 03 system (copyright 2003, Gaussian, Inc.),
 the Gaussian(R) 98 system (copyright 1998, Gaussian, Inc.),
 the Gaussian(R) 94 system (copyright 1995, Gaussian, Inc.),
 the Gaussian 92(TM) system (copyright 1992, Gaussian, Inc.),
 the Gaussian 90(TM) system (copyright 1990, Gaussian, Inc.),
 the Gaussian 88(TM) system (copyright 1988, Gaussian, Inc.),
 the Gaussian 86(TM) system (copyright 1986, Carnegie Mellon
 University), and the Gaussian 82(TM) system (copyright 1983,
 Carnegie Mellon University). Gaussian is a federally registered
 trademark of Gaussian, Inc.
  
 This software contains proprietary and confidential information,
 including trade secrets, belonging to Gaussian, Inc.
  
 This software is provided under written license and may be
 used, copied, transmitted, or stored only in accord with that
 written license.
  
 The following legend is applicable only to US Government
 contracts under FAR:
  
                    RESTRICTED RIGHTS LEGEND
  
 Use, reproduction and disclosure by the US Government is
 subject to restrictions as set forth in subparagraphs (a)
 and (c) of the Commercial Computer Software - Restricted
 Rights clause in FAR 52.227-19.
  
 Gaussian, Inc.
 340 Quinnipiac St., Bldg. 40, Wallingford CT 06492
  
  
 ---------------------------------------------------------------
 Warning -- This program may not be used in any manner that
 competes with the business of Gaussian, Inc. or will provide
 assistance to any competitor of Gaussian, Inc.  The licensee
 of this program is prohibited from giving any competitor of
 Gaussian, Inc. access to this program.  By using this program,
 the user acknowledges that Gaussian, Inc. is engaged in the
 business of creating and licensing software in the field of
 computational chemistry and represents and warrants to the
 licensee that it is not a competitor of Gaussian, Inc. and that
 it will not use this program in any manner prohibited above.
 ---------------------------------------------------------------
  

 Cite this work as:
 Gaussian 16, Revision C.01,
 M. J. Frisch, G. W. Trucks, H. B. Schlegel, G. E. Scuseria, 
 M. A. Robb, J. R. Cheeseman, G. Scalmani, V. Barone, 
 G. A. Petersson, H. Nakatsuji, X. Li, M. Caricato, A. V. Marenich, 
 J. Bloino, B. G. Janesko, R. Gomperts, B. Mennucci, H. P. Hratchian, 
 J. V. Ortiz, A. F. Izmaylov, J. L. Sonnenberg, D. Williams-Young, 
 F. Ding, F. Lipparini, F. Egidi, J. Goings, B. Peng, A. Petrone, 
 T. Henderson, D. Ranasinghe, V. G. Zakrzewski, J. Gao, N. Rega, 
 G. Zheng, W. Liang, M. Hada, M. Ehara, K. Toyota, R. Fukuda, 
 J. Hasegawa, M. Ishida, T. Nakajima, Y. Honda, O. Kitao, H. Nakai, 
 T. Vreven, K. Throssell, J. A. Montgomery, Jr., J. E. Peralta, 
 F. Ogliaro, M. J. Bearpark, J. J. Heyd, E. N. Brothers, K. N. Kudin, 
 V. N. Staroverov, T. A. Keith, R. Kobayashi, J. Normand, 
 K. Raghavachari, A. P. Rendell, J. C. Burant, S. S. Iyengar, 
 J. Tomasi, M. Cossi, J. M. Millam, M. Klene, C. Adamo, R. Cammi, 
 J. W. Ochterski, R. L. Martin, K. Morokuma, O. Farkas, 
 J. B. Foresman, and D. J. Fox, Gaussian, Inc., Wallingford CT, 2019.
 
 ******************************************
 Gaussian 16:  ES64L-G16RevC.01  3-Jul-2019
                 8-Apr-2025 
 ******************************************
 %nprocs=16
 Will use up to   16 processors via shared memory.
 %mem=30GB
 %chk=BDE49_nonexpt_2064_mol1.chk
 ----------------------------------------------------------------------
 #t hf aug-cc-pvdz symm=none int=(grid=ultrafine) guess=(read,tcheck) s
 table=(opt,rrhf)
 ----------------------------------------------------------------------
 -----
 title
 -----
 Symbolic Z-matrix:
 Charge =  0 Multiplicity = 1
 Si                    1.66851   0.06754  0. 
 C                    -0.1273   -0.47082   0.00001 
 N                    -1.02767   0.4339   -0.00001 
 H                    -0.4266   -1.5246    0.00002 
 O                    -2.31666  -0.11023   0. 
 H                    -2.87951   0.67171  -0.00001 
 H                     1.74427   1.54156  -0.00004 
 H                     2.34673  -0.48238  -1.19759 
 H                     2.34673  -0.48232   1.19762 
 
                    Distance matrix (angstroms):
                    1          2          3          4          5
     1  Si   0.000000
     2  C    1.874763   0.000000
     3  N    2.720952   1.276391   0.000000
     4  H    2.631417   1.095460   2.048652   0.000000
     5  O    3.989136   2.218865   1.399138   2.360675   0.000000
     6  H    4.587971   2.979941   1.867049   3.292498   0.963445
     7  H    1.475974   2.748168   2.985054   3.756860   4.384016
     8  H    1.482098   2.748668   3.695987   3.195597   4.829076
     9  H    1.482098   2.748670   3.695981   3.195605   4.829072
                    6          7          8          9
     6  H    0.000000
     7  H    4.704884   0.000000
     8  H    5.484496   2.427642   0.000000
     9  H    5.484488   2.427642   2.395210   0.000000
 Symmetry turned off by external request.
 Rotational constants (GHZ):          35.6763690           2.4751337           2.3775131
   141 basis functions,   265 primitive gaussians,   149 cartesian basis functions
    20 alpha electrons       20 beta electrons
       nuclear repulsion energy       152.0823394960 Hartrees.
 NAtoms=    9 NActive=    9 NUniq=    9 SFac= 1.00D+00 NAtFMM=   60 NAOKFM=F Big=F
 ExpMin= 2.50D-02 ExpMax= 7.89D+04 ExpMxC= 2.69D+03 IAcc=3 IRadAn=         5 AccDes= 0.00D+00
 Harris functional with IExCor=  205 and IRadAn=       5 diagonalized for initial guess.
 HarFok:  IExCor=  205 AccDes= 0.00D+00 IRadAn=         5 IDoV= 1 UseB2=F ITyADJ=14
 ICtDFT=  3500011 ScaDFX=  1.000000  1.000000  1.000000  1.000000
 FoFCou: FMM=F IPFlag=           0 FMFlag=      100000 FMFlg1=           0
         NFxFlg=           0 DoJE=T BraDBF=F KetDBF=T FulRan=T
         wScrn=  0.000000 ICntrl=       500 IOpCl=  0 I1Cent=   200000004 NGrid=           0
         NMat0=    1 NMatS0=      1 NMatT0=    0 NMatD0=    1 NMtDS0=    0 NMtDT0=    0
 Symmetry not used in FoFCou.
 SCF Done:  E(RHF) =  -458.967948905     A.U. after   13 cycles
            NFock= 13  Conv=0.63D-08     -V/T= 2.0006

 **********************************************************************

            Population analysis using the SCF Density.

 **********************************************************************

 Alpha  occ. eigenvalues --  -68.79375 -20.61487 -15.65279 -11.27286  -6.14197
 Alpha  occ. eigenvalues --   -4.24819  -4.24796  -4.24793  -1.43751  -1.16355
 Alpha  occ. eigenvalues --   -0.83050  -0.73749  -0.70244  -0.64909  -0.59901
 Alpha  occ. eigenvalues --   -0.51834  -0.49575  -0.48878  -0.43884  -0.40348
 Alpha virt. eigenvalues --    0.03577   0.04325   0.04990   0.06117   0.06699
 Alpha virt. eigenvalues --    0.07697   0.09104   0.09111   0.09728   0.13837
 Alpha virt. eigenvalues --    0.15133   0.15658   0.16314   0.16870   0.18510
 Alpha virt. eigenvalues --    0.18925   0.19683   0.20074   0.21417   0.23597
 Alpha virt. eigenvalues --    0.24739   0.26235   0.26932   0.28232   0.30415
 Alpha virt. eigenvalues --    0.30618   0.33496   0.35461   0.36882   0.37450
 Alpha virt. eigenvalues --    0.39643   0.40033   0.42645   0.43219   0.43715
 Alpha virt. eigenvalues --    0.45061   0.45889   0.47371   0.48359   0.50178
 Alpha virt. eigenvalues --    0.52258   0.53420   0.54776   0.56018   0.56667
 Alpha virt. eigenvalues --    0.57587   0.58298   0.60005   0.62483   0.63761
 Alpha virt. eigenvalues --    0.65032   0.69250   0.69362   0.70998   0.71921
 Alpha virt. eigenvalues --    0.77728   0.79468   0.80488   0.81903   0.84742
 Alpha virt. eigenvalues --    0.88743   0.89999   0.94693   0.97153   0.98547
 Alpha virt. eigenvalues --    1.02619   1.03832   1.06732   1.11667   1.11739
 Alpha virt. eigenvalues --    1.16598   1.20351   1.22681   1.26058   1.26247
 Alpha virt. eigenvalues --    1.27082   1.30183   1.40106   1.41739   1.48236
 Alpha virt. eigenvalues --    1.51490   1.60571   1.63495   1.65323   1.67023
 Alpha virt. eigenvalues --    1.69023   1.70139   1.79364   1.83099   1.84958
 Alpha virt. eigenvalues --    1.91854   1.92999   1.94434   2.02261   2.04789
 Alpha virt. eigenvalues --    2.09818   2.13353   2.17676   2.18843   2.21586
 Alpha virt. eigenvalues --    2.22981   2.26250   2.33990   2.34491   2.43405
 Alpha virt. eigenvalues --    2.48467   2.56149   2.59218   2.60404   2.75522
 Alpha virt. eigenvalues --    2.77301   2.87092   2.99168   3.04123   3.27366
 Alpha virt. eigenvalues --    3.60838   3.69906   3.76098   3.81833   4.05548
 Alpha virt. eigenvalues --    4.32852
          Condensed to atoms (all electrons):
 Mulliken charges:
               1
     1  Si   0.484943
     2  C    0.238812
     3  N   -0.066783
     4  H   -0.210366
     5  O   -0.558859
     6  H    0.181182
     7  H    0.029693
     8  H   -0.049310
     9  H   -0.049311
 Sum of Mulliken charges =  -0.00000
 Mulliken charges with hydrogens summed into heavy atoms:
               1
     1  Si   0.416014
     2  C    0.028446
     3  N   -0.066783
     5  O   -0.377677
 Electronic spatial extent (au):  <R**2>=            511.8451
 Charge=             -0.0000 electrons
 Dipole moment (field-independent basis, Debye):
    X=              0.2436    Y=             -0.1426    Z=              0.0000  Tot=              0.2823
 NROrb=    141 NOA=    20 NOB=    20 NVA=   121 NVB=   121

 **** Warning!!: The largest alpha MO coefficient is  0.23350863D+02

    12 initial guesses have been made.
 Iteration     1 Dimension    12 NMult     0 NNew     12
 New state      1 was old state      2
 Iteration     2 Dimension    24 NMult    12 NNew     12
 Iteration     3 Dimension    27 NMult    24 NNew      3
 Iteration     4 Dimension    30 NMult    27 NNew      3
 Iteration     5 Dimension    33 NMult    30 NNew      3
 Iteration     6 Dimension    36 NMult    33 NNew      3
 ***********************************************************************
 Stability analysis using <AA,BB:AA,BB> singles matrix:
 ***********************************************************************
 Ground to excited state transition densities written to RWF  633

 Eigenvectors of the stability matrix:
 
 Excited state symmetry could not be determined.
 Eigenvector   1:      Singlet-?Sym  Eigenvalue= 0.2325897  <S**2>=0.000
      16 -> 29         0.11889
      19 -> 28         0.16814
      19 -> 29         0.51419
      19 -> 32        -0.32326
      19 -> 40        -0.11985
      19 -> 45         0.10153
 The wavefunction is stable under the perturbations considered.
 The wavefunction is already stable.

 **********************************************************************

            Population analysis using the SCF Density.

 **********************************************************************

 Alpha  occ. eigenvalues --  -68.79375 -20.61487 -15.65279 -11.27286  -6.14197
 Alpha  occ. eigenvalues --   -4.24819  -4.24796  -4.24793  -1.43751  -1.16355
 Alpha  occ. eigenvalues --   -0.83050  -0.73749  -0.70244  -0.64909  -0.59901
 Alpha  occ. eigenvalues --   -0.51834  -0.49575  -0.48878  -0.43884  -0.40348
 Alpha virt. eigenvalues --    0.03577   0.04325   0.04990   0.06117   0.06699
 Alpha virt. eigenvalues --    0.07697   0.09104   0.09111   0.09728   0.13837
 Alpha virt. eigenvalues --    0.15133   0.15658   0.16314   0.16870   0.18510
 Alpha virt. eigenvalues --    0.18925   0.19683   0.20074   0.21417   0.23597
 Alpha virt. eigenvalues --    0.24739   0.26235   0.26932   0.28232   0.30415
 Alpha virt. eigenvalues --    0.30618   0.33496   0.35461   0.36882   0.37450
 Alpha virt. eigenvalues --    0.39643   0.40033   0.42645   0.43219   0.43715
 Alpha virt. eigenvalues --    0.45061   0.45889   0.47371   0.48359   0.50178
 Alpha virt. eigenvalues --    0.52258   0.53420   0.54776   0.56018   0.56667
 Alpha virt. eigenvalues --    0.57587   0.58298   0.60005   0.62483   0.63761
 Alpha virt. eigenvalues --    0.65032   0.69250   0.69362   0.70998   0.71921
 Alpha virt. eigenvalues --    0.77728   0.79468   0.80488   0.81903   0.84742
 Alpha virt. eigenvalues --    0.88743   0.89999   0.94693   0.97153   0.98547
 Alpha virt. eigenvalues --    1.02619   1.03832   1.06732   1.11667   1.11739
 Alpha virt. eigenvalues --    1.16598   1.20351   1.22681   1.26058   1.26247
 Alpha virt. eigenvalues --    1.27082   1.30183   1.40106   1.41739   1.48236
 Alpha virt. eigenvalues --    1.51490   1.60571   1.63495   1.65323   1.67023
 Alpha virt. eigenvalues --    1.69023   1.70139   1.79364   1.83099   1.84958
 Alpha virt. eigenvalues --    1.91854   1.92999   1.94434   2.02261   2.04789
 Alpha virt. eigenvalues --    2.09818   2.13353   2.17676   2.18843   2.21586
 Alpha virt. eigenvalues --    2.22981   2.26250   2.33990   2.34491   2.43405
 Alpha virt. eigenvalues --    2.48467   2.56149   2.59218   2.60404   2.75522
 Alpha virt. eigenvalues --    2.77301   2.87092   2.99168   3.04123   3.27366
 Alpha virt. eigenvalues --    3.60838   3.69906   3.76098   3.81833   4.05548
 Alpha virt. eigenvalues --    4.32852
          Condensed to atoms (all electrons):
 Mulliken charges:
               1
     1  Si   0.484943
     2  C    0.238812
     3  N   -0.066783
     4  H   -0.210366
     5  O   -0.558859
     6  H    0.181182
     7  H    0.029693
     8  H   -0.049310
     9  H   -0.049311
 Sum of Mulliken charges =  -0.00000
 Mulliken charges with hydrogens summed into heavy atoms:
               1
     1  Si   0.416014
     2  C    0.028446
     3  N   -0.066783
     5  O   -0.377677
 Electronic spatial extent (au):  <R**2>=            511.8451
 Charge=             -0.0000 electrons
 Dipole moment (field-independent basis, Debye):
    X=              0.2436    Y=             -0.1426    Z=              0.0000  Tot=              0.2823
 Unable to Open any file for archive entry.
 1\1\GINC-SE095\Stability\RHF\Aug-CC-pVDZ\C1H5N1O1Si1\OHZDE\08-Apr-2025
 \0\\#t hf aug-cc-pvdz symm=none int=(grid=ultrafine) guess=(read,tchec
 k) stable=(opt,rrhf)\\title\\0,1\Si,0,1.668509,0.067536,-0.000002\C,0,
 -0.127295,-0.470818,0.000007\N,0,-1.027666,0.433895,-0.000006\H,0,-0.4
 26597,-1.524597,0.000024\O,0,-2.316664,-0.11023,0.000004\H,0,-2.879507
 ,0.671712,-0.000008\H,0,1.744268,1.541564,-0.000039\H,0,2.34673,-0.482
 381,-1.197592\H,0,2.346726,-0.48232,1.197618\\Version=ES64L-G16RevC.01
 \HF=-458.9679489\RMSD=6.283e-09\Dipole=0.0958363,-0.0561172,0.0000011\
 Quadrupole=1.4600145,-0.0422028,-1.4178116,-2.3557998,0.0000365,-0.000
 0207\PG=Unknown\\@
 The archive entry for this job was punched.


 THOSE WHO ASPIRE NOT TO GUESS AND DIVINE,
 BUT TO DISCOVER AND KNOW, WHO PROPOSE NOT TO DEVISE 
 MIMIC AND FABULOUS WORLDS OF THEIR OWN, BUT TO 
 EXAMINE AND DISSECT THE NATURE OF THIS VERY WORLD 
 ITSELF, MUST GO TO THE FACTS THEMSELVES FOR EVERYTHING.

                               -- FRANCIS BACON, 1620
 Job cpu time:       0 days  0 hours  0 minutes 38.0 seconds.
 Elapsed time:       0 days  0 hours  0 minutes  4.7 seconds.
 File lengths (MBytes):  RWF=    125 Int=      0 D2E=      0 Chk=      4 Scr=      1
 Normal termination of Gaussian 16 at Tue Apr  8 23:58:53 2025.
 Initial command:
 /arc/software/Gaussian/g16.c01/l1.exe "/tmp/slurm/4850383/Gau-2240842.inp" -scrdir="/tmp/slurm/4850383/"
 Entering Link 1 = /arc/software/Gaussian/g16.c01/l1.exe PID=   2241054.
  
 Copyright (c) 1988-2019, Gaussian, Inc.  All Rights Reserved.
  
 This is part of the Gaussian(R) 16 program.  It is based on
 the Gaussian(R) 09 system (copyright 2009, Gaussian, Inc.),
 the Gaussian(R) 03 system (copyright 2003, Gaussian, Inc.),
 the Gaussian(R) 98 system (copyright 1998, Gaussian, Inc.),
 the Gaussian(R) 94 system (copyright 1995, Gaussian, Inc.),
 the Gaussian 92(TM) system (copyright 1992, Gaussian, Inc.),
 the Gaussian 90(TM) system (copyright 1990, Gaussian, Inc.),
 the Gaussian 88(TM) system (copyright 1988, Gaussian, Inc.),
 the Gaussian 86(TM) system (copyright 1986, Carnegie Mellon
 University), and the Gaussian 82(TM) system (copyright 1983,
 Carnegie Mellon University). Gaussian is a federally registered
 trademark of Gaussian, Inc.
  
 This software contains proprietary and confidential information,
 including trade secrets, belonging to Gaussian, Inc.
  
 This software is provided under written license and may be
 used, copied, transmitted, or stored only in accord with that
 written license.
  
 The following legend is applicable only to US Government
 contracts under FAR:
  
                    RESTRICTED RIGHTS LEGEND
  
 Use, reproduction and disclosure by the US Government is
 subject to restrictions as set forth in subparagraphs (a)
 and (c) of the Commercial Computer Software - Restricted
 Rights clause in FAR 52.227-19.
  
 Gaussian, Inc.
 340 Quinnipiac St., Bldg. 40, Wallingford CT 06492
  
  
 ---------------------------------------------------------------
 Warning -- This program may not be used in any manner that
 competes with the business of Gaussian, Inc. or will provide
 assistance to any competitor of Gaussian, Inc.  The licensee
 of this program is prohibited from giving any competitor of
 Gaussian, Inc. access to this program.  By using this program,
 the user acknowledges that Gaussian, Inc. is engaged in the
 business of creating and licensing software in the field of
 computational chemistry and represents and warrants to the
 licensee that it is not a competitor of Gaussian, Inc. and that
 it will not use this program in any manner prohibited above.
 ---------------------------------------------------------------
  

 Cite this work as:
 Gaussian 16, Revision C.01,
 M. J. Frisch, G. W. Trucks, H. B. Schlegel, G. E. Scuseria, 
 M. A. Robb, J. R. Cheeseman, G. Scalmani, V. Barone, 
 G. A. Petersson, H. Nakatsuji, X. Li, M. Caricato, A. V. Marenich, 
 J. Bloino, B. G. Janesko, R. Gomperts, B. Mennucci, H. P. Hratchian, 
 J. V. Ortiz, A. F. Izmaylov, J. L. Sonnenberg, D. Williams-Young, 
 F. Ding, F. Lipparini, F. Egidi, J. Goings, B. Peng, A. Petrone, 
 T. Henderson, D. Ranasinghe, V. G. Zakrzewski, J. Gao, N. Rega, 
 G. Zheng, W. Liang, M. Hada, M. Ehara, K. Toyota, R. Fukuda, 
 J. Hasegawa, M. Ishida, T. Nakajima, Y. Honda, O. Kitao, H. Nakai, 
 T. Vreven, K. Throssell, J. A. Montgomery, Jr., J. E. Peralta, 
 F. Ogliaro, M. J. Bearpark, J. J. Heyd, E. N. Brothers, K. N. Kudin, 
 V. N. Staroverov, T. A. Keith, R. Kobayashi, J. Normand, 
 K. Raghavachari, A. P. Rendell, J. C. Burant, S. S. Iyengar, 
 J. Tomasi, M. Cossi, J. M. Millam, M. Klene, C. Adamo, R. Cammi, 
 J. W. Ochterski, R. L. Martin, K. Morokuma, O. Farkas, 
 J. B. Foresman, and D. J. Fox, Gaussian, Inc., Wallingford CT, 2019.
 
 ******************************************
 Gaussian 16:  ES64L-G16RevC.01  3-Jul-2019
                 8-Apr-2025 
 ******************************************
 %nprocs=16
 Will use up to   16 processors via shared memory.
 %mem=30GB
 %chk=BDE49_nonexpt_2064_mol1.chk
 ----------------------------------------------------------------------
 #t hf aug-cc-pvdz iop(5/13=1,5/36=2,99/5=2) pseudo=read geom=check gue
 ss=(read,tcheck) scf=(maxcycle=1)
 ----------------------------------------------------------------------
 -----
 title
 -----
 Structure from the checkpoint file:  "BDE49_nonexpt_2064_mol1.chk"
 Charge =  0 Multiplicity = 1
 Z-Matrix found in chk file.
 Si,0,1.668509,0.067536,-0.000002
 C,0,-0.127295,-0.470818,0.000007
 N,0,-1.027666,0.433895,-0.000006
 H,0,-0.426597,-1.524597,0.000024
 O,0,-2.316664,-0.11023,0.000004
 H,0,-2.879507,0.671712,-0.000008
 H,0,1.744268,1.541564,-0.000039
 H,0,2.34673,-0.482381,-1.197592
 H,0,2.346726,-0.48232,1.197618
 Recover connectivity data from disk.
                    Distance matrix (angstroms):
                    1          2          3          4          5
     1  Si   0.000000
     2  C    1.874763   0.000000
     3  N    2.720952   1.276391   0.000000
     4  H    2.631417   1.095460   2.048652   0.000000
     5  O    3.989136   2.218865   1.399138   2.360675   0.000000
     6  H    4.587971   2.979941   1.867049   3.292498   0.963445
     7  H    1.475974   2.748168   2.985054   3.756860   4.384016
     8  H    1.482098   2.748668   3.695987   3.195597   4.829076
     9  H    1.482098   2.748670   3.695981   3.195605   4.829072
                    6          7          8          9
     6  H    0.000000
     7  H    4.704884   0.000000
     8  H    5.484496   2.427642   0.000000
     9  H    5.484488   2.427642   2.395210   0.000000
 Framework group  C1[X(CH5NOSi)]
 Deg. of freedom    21
                         Standard orientation:                         
 ---------------------------------------------------------------------
 Center     Atomic      Atomic             Coordinates (Angstroms)
 Number     Number       Type             X           Y           Z
 ---------------------------------------------------------------------
      1         14           0        1.668509    0.067536   -0.000002
      2          6           0       -0.127295   -0.470818    0.000007
      3          7           0       -1.027666    0.433895   -0.000006
      4          1           0       -0.426597   -1.524597    0.000024
      5          8           0       -2.316664   -0.110230    0.000004
      6          1           0       -2.879507    0.671712   -0.000008
      7          1           0        1.744268    1.541564   -0.000039
      8          1           0        2.346730   -0.482381   -1.197592
      9          1           0        2.346726   -0.482320    1.197618
 ---------------------------------------------------------------------
 Rotational constants (GHZ):          35.6763690           2.4751337           2.3775131
 ======================================================================================================
                                       Pseudopotential Parameters
 ======================================================================================================
  Center     Atomic      Valence      Angular      Power
  Number     Number     Electrons     Momentum     of R      Exponent        Coefficient   SO-Coeffient
 ======================================================================================================
    1         14           14
                                      G and up 
                                                     0        0.0000010        0.00318584    0.00000000
                                                     2        0.1200000        0.01495489    0.00000000
                                                     2        0.1400000        0.00226724    0.00000000
                                                     2        0.2400000        0.19400623    0.00000000
                                                     2        0.4000000       -1.10589618    0.00000000
                                                     2        0.5000000       -0.33441440    0.00000000
                                                     2        1.1000000        1.54014497    0.00000000
                                      S - G
                                                     0        0.0000010       -0.02754341    0.00000000
                                                     2        0.1400000       -0.27210261    0.00000000
                                                     2        0.5000000        1.68277205    0.00000000
                                      P - G
                                                     0        0.0000010        0.23409914    0.00000000
                                                     2        0.1400000       -0.38285789    0.00000000
                                                     2        0.3000000        0.63427704    0.00000000
                                      D - G
                                                     0        0.0000010        0.33783735    0.00000000
                                                     2        0.1200000        0.22636357    0.00000000
                                                     2        0.1600000       -1.50396781    0.00000000
                                                     2        0.2800000        2.43578453    0.00000000
                                      F - G
                                                     0        0.0000010       -0.32072413    0.00000000
                                                     2        0.1200000        0.11095462    0.00000000
                                                     2        0.1600000       -0.09560586    0.00000000
    2          6            6
                                      G and up 
                                                     0        0.0000010       -0.00286759    0.00000000
                                                     2        0.1200000        0.03193960    0.00000000
                                                     2        0.1600000       -0.04027782    0.00000000
                                                     2        0.2600000        0.24782456    0.00000000
                                                     2        0.4000000       -0.62266671    0.00000000
                                                     2        0.7000000        0.35695227    0.00000000
                                      S - G
                                                     0        0.0000010       -0.06602313    0.00000000
                                                     2        0.1200000        1.47277455    0.00000000
                                                     2        0.1600000       -4.06924166    0.00000000
                                                     2        0.3000000        5.02952802    0.00000000
                                                     2        0.7000000       -5.65856978    0.00000000
                                                     2        1.7000000        8.57604414    0.00000000
                                      P - G
                                                     0        0.0000010        0.49434425    0.00000000
                                                     2        0.1200000       -1.37391547    0.00000000
                                                     2        0.1600000        3.65411806    0.00000000
                                                     2        0.2800000       -7.36479843    0.00000000
                                                     2        0.6000000       17.22091285    0.00000000
                                                     2        1.1000000      -23.50107827    0.00000000
                                                     2        3.0000000       16.29464063    0.00000000
                                      D - G
                                                     0        0.0000010       -0.28693103    0.00000000
                                                     2        0.1200000        0.12273044    0.00000000
                                                     2        0.3000000       -0.43416384    0.00000000
                                                     2        0.7000000        2.23358493    0.00000000
                                      F - G
                                                     0        0.0000010        0.07263570    0.00000000
                                                     2        0.1400000       -0.76152861    0.00000000
                                                     2        0.2200000        1.98045593    0.00000000
                                                     2        0.4000000       -2.42426427    0.00000000
                                                     2        0.7000000        0.52335237    0.00000000
    3          7            7
                                      G and up 
                                                     0        0.0000010        0.00420138    0.00000000
                                                     2        0.1200000        0.05872431    0.00000000
                                                     2        0.1400000       -0.08436978    0.00000000
                                                     2        0.2000000        0.05409159    0.00000000
                                                     2        0.2600000        0.14199713    0.00000000
                                                     2        0.6000000       -0.79062770    0.00000000
                                                     2        0.7000000       -0.14441060    0.00000000
                                                     2        1.5000000        0.73772979    0.00000000
                                      S - G
                                                     0        0.0000010       -0.03094411    0.00000000
                                                     2        0.1200000        0.65332522    0.00000000
                                                     2        0.1800000       -1.38149133    0.00000000
                                                     2        1.3000000        3.29267299    0.00000000
                                      P - G
                                                     0        0.0000010        0.07303105    0.00000000
                                                     2        0.1200000        0.23145115    0.00000000
                                                     2        0.2000000       -1.20679699    0.00000000
                                                     2        0.4000000        1.75088447    0.00000000
                                                     2        1.2000000       -0.67486559    0.00000000
                                      D - G
                                                     0        0.0000010        0.07560739    0.00000000
                                                     2        0.3000000       -0.68679114    0.00000000
                                                     2        0.9000000        3.60133241    0.00000000
                                      F - G
                                                     0        0.0000010       -0.18221184    0.00000000
                                                     2        0.1200000       -0.39369067    0.00000000
                                                     2        0.1800000        0.72091725    0.00000000
                                                     2        0.6000000        0.15946111    0.00000000
    4          1            1
                                      F and up 
                                                     0        0.0000010        0.00072061    0.00000000
                                                     2        0.1200000        0.03832357    0.00000000
                                                     2        0.1400000       -0.08683256    0.00000000
                                                     2        0.1800000        0.09312970    0.00000000
                                                     2        0.2800000       -0.02532572    0.00000000
                                                     2        0.4000000       -0.09430787    0.00000000
                                                     2        0.7000000        0.42710831    0.00000000
                                                     2        1.2000000       -2.11746981    0.00000000
                                      S - F
                                                     0        0.0000010        0.14449603    0.00000000
                                                     2        0.1200000       -0.56378993    0.00000000
                                                     2        0.1400000        0.63941249    0.00000000
                                                     2        0.2600000       -0.58461015    0.00000000
                                                     2        0.5000000        1.00157293    0.00000000
                                                     2        1.8000000       -0.14135838    0.00000000
                                      P - F
                                                     0        0.0000010       -0.09353646    0.00000000
                                                     2        0.1200000        0.31768975    0.00000000
                                                     2        0.2000000       -0.71747951    0.00000000
                                                     2        0.4000000        0.65752308    0.00000000
                                                     2        1.7000000        2.94052587    0.00000000
                                      D - F
                                                     0        0.0000010       -0.04491202    0.00000000
                                                     2        0.1200000       -0.02862031    0.00000000
                                                     2        0.1800000       -0.21515263    0.00000000
                                                     2        0.3000000        0.80560647    0.00000000
                                                     2        0.4000000        0.47351754    0.00000000
                                                     2        0.7000000       -4.57051794    0.00000000
                                                     2        1.6000000       18.53737826    0.00000000
    5          8            8
                                      G and up 
                                                     0        0.0000010       -0.00165251    0.00000000
                                                     2        0.1200000       -0.10937202    0.00000000
                                                     2        0.1400000        0.35668905    0.00000000
                                                     2        0.1800000       -0.51696033    0.00000000
                                                     2        0.2400000        0.52446472    0.00000000
                                                     2        0.4000000       -0.07754493    0.00000000
                                                     2        0.8000000       -1.90560988    0.00000000
                                                     2        1.7000000        0.19857963    0.00000000
                                      S - G
                                                     0        0.0000010       -0.03845181    0.00000000
                                                     2        0.1400000        0.42024558    0.00000000
                                                     2        0.4000000       -4.10467779    0.00000000
                                                     2        1.3000000        9.99571838    0.00000000
                                      P - G
                                                     0        0.0000010        0.33206183    0.00000000
                                                     2        0.1200000       -0.18708141    0.00000000
                                                     2        0.2800000       -0.18179081    0.00000000
                                                     2        0.7000000        1.18820394    0.00000000
                                      D - G
                                                     0        0.0000010       -0.57891674    0.00000000
                                                     2        0.1200000        0.60487490    0.00000000
                                                     2        0.2400000       -0.24931464    0.00000000
                                                     2        0.3000000       -2.75054612    0.00000000
                                                     2        1.0000000       15.96776040    0.00000000
                                      F - G
                                                     0        0.0000010        0.37449041    0.00000000
                                                     2        0.1200000       -0.63373642    0.00000000
                                                     2        0.1400000       -0.08412804    0.00000000
                                                     2        0.2800000        2.62321406    0.00000000
                                                     2        0.6000000       -2.68223623    0.00000000
    6          1            1
                                      F and up 
                                                     0        0.0000010        0.00072061    0.00000000
                                                     2        0.1200000        0.03832357    0.00000000
                                                     2        0.1400000       -0.08683256    0.00000000
                                                     2        0.1800000        0.09312970    0.00000000
                                                     2        0.2800000       -0.02532572    0.00000000
                                                     2        0.4000000       -0.09430787    0.00000000
                                                     2        0.7000000        0.42710831    0.00000000
                                                     2        1.2000000       -2.11746981    0.00000000
                                      S - F
                                                     0        0.0000010        0.14449603    0.00000000
                                                     2        0.1200000       -0.56378993    0.00000000
                                                     2        0.1400000        0.63941249    0.00000000
                                                     2        0.2600000       -0.58461015    0.00000000
                                                     2        0.5000000        1.00157293    0.00000000
                                                     2        1.8000000       -0.14135838    0.00000000
                                      P - F
                                                     0        0.0000010       -0.09353646    0.00000000
                                                     2        0.1200000        0.31768975    0.00000000
                                                     2        0.2000000       -0.71747951    0.00000000
                                                     2        0.4000000        0.65752308    0.00000000
                                                     2        1.7000000        2.94052587    0.00000000
                                      D - F
                                                     0        0.0000010       -0.04491202    0.00000000
                                                     2        0.1200000       -0.02862031    0.00000000
                                                     2        0.1800000       -0.21515263    0.00000000
                                                     2        0.3000000        0.80560647    0.00000000
                                                     2        0.4000000        0.47351754    0.00000000
                                                     2        0.7000000       -4.57051794    0.00000000
                                                     2        1.6000000       18.53737826    0.00000000
    7          1            1
                                      F and up 
                                                     0        0.0000010        0.00072061    0.00000000
                                                     2        0.1200000        0.03832357    0.00000000
                                                     2        0.1400000       -0.08683256    0.00000000
                                                     2        0.1800000        0.09312970    0.00000000
                                                     2        0.2800000       -0.02532572    0.00000000
                                                     2        0.4000000       -0.09430787    0.00000000
                                                     2        0.7000000        0.42710831    0.00000000
                                                     2        1.2000000       -2.11746981    0.00000000
                                      S - F
                                                     0        0.0000010        0.14449603    0.00000000
                                                     2        0.1200000       -0.56378993    0.00000000
                                                     2        0.1400000        0.63941249    0.00000000
                                                     2        0.2600000       -0.58461015    0.00000000
                                                     2        0.5000000        1.00157293    0.00000000
                                                     2        1.8000000       -0.14135838    0.00000000
                                      P - F
                                                     0        0.0000010       -0.09353646    0.00000000
                                                     2        0.1200000        0.31768975    0.00000000
                                                     2        0.2000000       -0.71747951    0.00000000
                                                     2        0.4000000        0.65752308    0.00000000
                                                     2        1.7000000        2.94052587    0.00000000
                                      D - F
                                                     0        0.0000010       -0.04491202    0.00000000
                                                     2        0.1200000       -0.02862031    0.00000000
                                                     2        0.1800000       -0.21515263    0.00000000
                                                     2        0.3000000        0.80560647    0.00000000
                                                     2        0.4000000        0.47351754    0.00000000
                                                     2        0.7000000       -4.57051794    0.00000000
                                                     2        1.6000000       18.53737826    0.00000000
    8          1            1
                                      F and up 
                                                     0        0.0000010        0.00072061    0.00000000
                                                     2        0.1200000        0.03832357    0.00000000
                                                     2        0.1400000       -0.08683256    0.00000000
                                                     2        0.1800000        0.09312970    0.00000000
                                                     2        0.2800000       -0.02532572    0.00000000
                                                     2        0.4000000       -0.09430787    0.00000000
                                                     2        0.7000000        0.42710831    0.00000000
                                                     2        1.2000000       -2.11746981    0.00000000
                                      S - F
                                                     0        0.0000010        0.14449603    0.00000000
                                                     2        0.1200000       -0.56378993    0.00000000
                                                     2        0.1400000        0.63941249    0.00000000
                                                     2        0.2600000       -0.58461015    0.00000000
                                                     2        0.5000000        1.00157293    0.00000000
                                                     2        1.8000000       -0.14135838    0.00000000
                                      P - F
                                                     0        0.0000010       -0.09353646    0.00000000
                                                     2        0.1200000        0.31768975    0.00000000
                                                     2        0.2000000       -0.71747951    0.00000000
                                                     2        0.4000000        0.65752308    0.00000000
                                                     2        1.7000000        2.94052587    0.00000000
                                      D - F
                                                     0        0.0000010       -0.04491202    0.00000000
                                                     2        0.1200000       -0.02862031    0.00000000
                                                     2        0.1800000       -0.21515263    0.00000000
                                                     2        0.3000000        0.80560647    0.00000000
                                                     2        0.4000000        0.47351754    0.00000000
                                                     2        0.7000000       -4.57051794    0.00000000
                                                     2        1.6000000       18.53737826    0.00000000
    9          1            1
                                      F and up 
                                                     0        0.0000010        0.00072061    0.00000000
                                                     2        0.1200000        0.03832357    0.00000000
                                                     2        0.1400000       -0.08683256    0.00000000
                                                     2        0.1800000        0.09312970    0.00000000
                                                     2        0.2800000       -0.02532572    0.00000000
                                                     2        0.4000000       -0.09430787    0.00000000
                                                     2        0.7000000        0.42710831    0.00000000
                                                     2        1.2000000       -2.11746981    0.00000000
                                      S - F
                                                     0        0.0000010        0.14449603    0.00000000
                                                     2        0.1200000       -0.56378993    0.00000000
                                                     2        0.1400000        0.63941249    0.00000000
                                                     2        0.2600000       -0.58461015    0.00000000
                                                     2        0.5000000        1.00157293    0.00000000
                                                     2        1.8000000       -0.14135838    0.00000000
                                      P - F
                                                     0        0.0000010       -0.09353646    0.00000000
                                                     2        0.1200000        0.31768975    0.00000000
                                                     2        0.2000000       -0.71747951    0.00000000
                                                     2        0.4000000        0.65752308    0.00000000
                                                     2        1.7000000        2.94052587    0.00000000
                                      D - F
                                                     0        0.0000010       -0.04491202    0.00000000
                                                     2        0.1200000       -0.02862031    0.00000000
                                                     2        0.1800000       -0.21515263    0.00000000
                                                     2        0.3000000        0.80560647    0.00000000
                                                     2        0.4000000        0.47351754    0.00000000
                                                     2        0.7000000       -4.57051794    0.00000000
                                                     2        1.6000000       18.53737826    0.00000000
 ======================================================================================================
   141 basis functions,   265 primitive gaussians,   149 cartesian basis functions
    20 alpha electrons       20 beta electrons
       nuclear repulsion energy       152.0823394960 Hartrees.
 NAtoms=    9 NActive=    9 NUniq=    9 SFac= 1.00D+00 NAtFMM=   60 NAOKFM=F Big=F
   1 Symmetry operations used in ECPInt.
 ECPInt:  NShTT=    2016 NPrTT=   11150 LenC2=    2014 LenP2D=    8804.
 LDataN:  DoStor=T MaxTD1= 6 Len=  172
 Initial guess from the checkpoint file:  "BDE49_nonexpt_2064_mol1.chk"
 B after Tr=    -0.000000    0.000000   -0.000000
         Rot=    1.000000   -0.000000   -0.000000    0.000000 Ang=   0.00 deg.
 >>>>>>>>>> Convergence criterion not met.
 SCF Done:  E(RHF) =  -459.863491489     A.U. after    2 cycles
            NFock=  1  Conv=0.84D-01     -V/T= 2.0533

 **********************************************************************

            Population analysis using the SCF Density.

 **********************************************************************

 Orbital symmetries:
       Occupied  (A) (A) (A) (A) (A) (A) (A) (A) (A) (A) (A) (A)
                 (A) (A) (A) (A) (A) (A) (A) (A)
       Virtual   (A) (A) (A) (A) (A) (A) (A) (A) (A) (A) (A) (A)
                 (A) (A) (A) (A) (A) (A) (A) (A) (A) (A) (A) (A)
                 (A) (A) (A) (A) (A) (A) (A) (A) (A) (A) (A) (A)
                 (A) (A) (A) (A) (A) (A) (A) (A) (A) (A) (A) (A)
                 (A) (A) (A) (A) (A) (A) (A) (A) (A) (A) (A) (A)
                 (A) (A) (A) (A) (A) (A) (A) (A) (A) (A) (A) (A)
                 (A) (A) (A) (A) (A) (A) (A) (A) (A) (A) (A) (A)
                 (A) (A) (A) (A) (A) (A) (A) (A) (A) (A) (A) (A)
                 (A) (A) (A) (A) (A) (A) (A) (A) (A) (A) (A) (A)
                 (A) (A) (A) (A) (A) (A) (A) (A) (A) (A) (A) (A)
                 (A)
 The electronic state is 1-A.
 Alpha  occ. eigenvalues --  -76.22646 -21.10386 -15.80012 -11.39567  -5.56198
 Alpha  occ. eigenvalues --   -2.20191  -2.18566  -2.18169  -1.79317  -1.25419
 Alpha  occ. eigenvalues --   -0.86372  -0.75752  -0.65375  -0.58060  -0.53440
 Alpha  occ. eigenvalues --   -0.47821  -0.47625  -0.46306  -0.35850  -0.31667
 Alpha virt. eigenvalues --    0.03972   0.05025   0.05601   0.06555   0.06771
 Alpha virt. eigenvalues --    0.07915   0.09486   0.09494   0.10696   0.14220
 Alpha virt. eigenvalues --    0.14880   0.15801   0.16642   0.17135   0.18287
 Alpha virt. eigenvalues --    0.19199   0.19438   0.20053   0.21328   0.23353
 Alpha virt. eigenvalues --    0.24763   0.25516   0.26902   0.27341   0.30333
 Alpha virt. eigenvalues --    0.30534   0.33359   0.35352   0.36815   0.37208
 Alpha virt. eigenvalues --    0.39168   0.39505   0.41612   0.42961   0.43952
 Alpha virt. eigenvalues --    0.44792   0.45576   0.47113   0.47394   0.50408
 Alpha virt. eigenvalues --    0.52270   0.53359   0.55290   0.56640   0.56927
 Alpha virt. eigenvalues --    0.57595   0.58930   0.61305   0.63796   0.65686
 Alpha virt. eigenvalues --    0.66530   0.70461   0.71190   0.73647   0.78452
 Alpha virt. eigenvalues --    0.81034   0.81750   0.83555   0.83821   0.90804
 Alpha virt. eigenvalues --    0.93296   0.94602   0.98448   1.01961   1.05541
 Alpha virt. eigenvalues --    1.06555   1.19492   1.20411   1.21375   1.24314
 Alpha virt. eigenvalues --    1.28243   1.30989   1.31802   1.33616   1.38016
 Alpha virt. eigenvalues --    1.41132   1.47359   1.57330   1.60812   1.68783
 Alpha virt. eigenvalues --    1.70150   1.80782   1.81839   1.84386   1.85669
 Alpha virt. eigenvalues --    1.89432   1.91960   1.94136   2.03027   2.03086
 Alpha virt. eigenvalues --    2.03798   2.09070   2.11005   2.17725   2.22196
 Alpha virt. eigenvalues --    2.23624   2.29302   2.29933   2.32259   2.38101
 Alpha virt. eigenvalues --    2.46521   2.51020   2.53665   2.56343   2.67687
 Alpha virt. eigenvalues --    2.74629   2.87831   3.01187   3.07899   3.14286
 Alpha virt. eigenvalues --    3.21798   3.34139   3.54229   3.67388   3.89021
 Alpha virt. eigenvalues --    4.07387   6.00231   6.06085   6.06403   6.23871
 Alpha virt. eigenvalues --    6.85191
          Condensed to atoms (all electrons):
 Mulliken charges:
               1
     1  Si   6.126076
     2  C   -1.273172
     3  N   -0.042339
     4  H    1.545254
     5  O   -2.353851
     6  H    0.896825
     7  H   -1.612634
     8  H   -1.643078
     9  H   -1.643081
 Sum of Mulliken charges =  -0.00000
 Mulliken charges with hydrogens summed into heavy atoms:
               1
     1  Si   1.227283
     2  C    0.272082
     3  N   -0.042339
     5  O   -1.457026
 Electronic spatial extent (au):  <R**2>=            528.9565
 Charge=             -0.0000 electrons
 Dipole moment (field-independent basis, Debye):
    X=             -0.9877    Y=             -0.3525    Z=              0.0000  Tot=              1.0487

 Test job not archived.
 1\1\GINC-SE095\SP\RHF\Aug-CC-pVDZ\C1H5N1O1Si1\OHZDE\08-Apr-2025\0\\#t 
 hf aug-cc-pvdz iop(5/13=1,5/36=2,99/5=2) pseudo=read geom=check guess=
 (read,tcheck) scf=(maxcycle=1)\\title\\0,1\Si,0,1.668509,0.067536,-0.0
 00002\C,0,-0.127295,-0.470818,0.000007\N,0,-1.027666,0.433895,-0.00000
 6\H,0,-0.426597,-1.524597,0.000024\O,0,-2.316664,-0.11023,0.000004\H,0
 ,-2.879507,0.671712,-0.000008\H,0,1.744268,1.541564,-0.000039\H,0,2.34
 673,-0.482381,-1.197592\H,0,2.346726,-0.48232,1.197618\\Version=ES64L-
 G16RevC.01\State=1-A\HF=-459.8634915\RMSD=8.378e-02\Dipole=-0.3885718,
 -0.1387002,0.0000031\Quadrupole=2.0726608,-0.4307842,-1.6418765,-1.155
 6986,0.000015,-0.0000198\PG=C01 [X(C1H5N1O1Si1)]\\@


 This summer one third of the nation will be ill-housed
 ill-nourished and ill-clad. Only they call it a vacation.
 -- Jonas Salk
 Job cpu time:       0 days  0 hours  0 minutes 21.6 seconds.
 Elapsed time:       0 days  0 hours  0 minutes  2.2 seconds.
 File lengths (MBytes):  RWF=      6 Int=      0 D2E=      0 Chk=      4 Scr=      1
 Normal termination of Gaussian 16 at Tue Apr  8 23:58:55 2025.
