 Entering Gaussian System, Link 0=g16
 Input=BDE49_nonexpt_212_mol1.gjf
 Output=BDE49_nonexpt_212_mol1.log
 Initial command:
 /arc/software/Gaussian/g16.c01/l1.exe "/tmp/slurm/4850643/Gau-2824139.inp" -scrdir="/tmp/slurm/4850643/"
 Entering Link 1 = /arc/software/Gaussian/g16.c01/l1.exe PID=   2824140.
  
 Copyright (c) 1988-2019, Gaussian, Inc.  All Rights Reserved.
  
 This is part of the Gaussian(R) 16 program.  It is based on
 the Gaussian(R) 09 system (copyright 2009, Gaussian, Inc.),
 the Gaussian(R) 03 system (copyright 2003, Gaussian, Inc.),
 the Gaussian(R) 98 system (copyright 1998, Gaussian, Inc.),
 the Gaussian(R) 94 system (copyright 1995, Gaussian, Inc.),
 the Gaussian 92(TM) system (copyright 1992, Gaussian, Inc.),
 the Gaussian 90(TM) system (copyright 1990, Gaussian, Inc.),
 the Gaussian 88(TM) system (copyright 1988, Gaussian, Inc.),
 the Gaussian 86(TM) system (copyright 1986, Carnegie Mellon
 University), and the Gaussian 82(TM) system (copyright 1983,
 Carnegie Mellon University). Gaussian is a federally registered
 trademark of Gaussian, Inc.
  
 This software contains proprietary and confidential information,
 including trade secrets, belonging to Gaussian, Inc.
  
 This software is provided under written license and may be
 used, copied, transmitted, or stored only in accord with that
 written license.
  
 The following legend is applicable only to US Government
 contracts under FAR:
  
                    RESTRICTED RIGHTS LEGEND
  
 Use, reproduction and disclosure by the US Government is
 subject to restrictions as set forth in subparagraphs (a)
 and (c) of the Commercial Computer Software - Restricted
 Rights clause in FAR 52.227-19.
  
 Gaussian, Inc.
 340 Quinnipiac St., Bldg. 40, Wallingford CT 06492
  
  
 ---------------------------------------------------------------
 Warning -- This program may not be used in any manner that
 competes with the business of Gaussian, Inc. or will provide
 assistance to any competitor of Gaussian, Inc.  The licensee
 of this program is prohibited from giving any competitor of
 Gaussian, Inc. access to this program.  By using this program,
 the user acknowledges that Gaussian, Inc. is engaged in the
 business of creating and licensing software in the field of
 computational chemistry and represents and warrants to the
 licensee that it is not a competitor of Gaussian, Inc. and that
 it will not use this program in any manner prohibited above.
 ---------------------------------------------------------------
  

 Cite this work as:
 Gaussian 16, Revision C.01,
 M. J. Frisch, G. W. Trucks, H. B. Schlegel, G. E. Scuseria, 
 M. A. Robb, J. R. Cheeseman, G. Scalmani, V. Barone, 
 G. A. Petersson, H. Nakatsuji, X. Li, M. Caricato, A. V. Marenich, 
 J. Bloino, B. G. Janesko, R. Gomperts, B. Mennucci, H. P. Hratchian, 
 J. V. Ortiz, A. F. Izmaylov, J. L. Sonnenberg, D. Williams-Young, 
 F. Ding, F. Lipparini, F. Egidi, J. Goings, B. Peng, A. Petrone, 
 T. Henderson, D. Ranasinghe, V. G. Zakrzewski, J. Gao, N. Rega, 
 G. Zheng, W. Liang, M. Hada, M. Ehara, K. Toyota, R. Fukuda, 
 J. Hasegawa, M. Ishida, T. Nakajima, Y. Honda, O. Kitao, H. Nakai, 
 T. Vreven, K. Throssell, J. A. Montgomery, Jr., J. E. Peralta, 
 F. Ogliaro, M. J. Bearpark, J. J. Heyd, E. N. Brothers, K. N. Kudin, 
 V. N. Staroverov, T. A. Keith, R. Kobayashi, J. Normand, 
 K. Raghavachari, A. P. Rendell, J. C. Burant, S. S. Iyengar, 
 J. Tomasi, M. Cossi, J. M. Millam, M. Klene, C. Adamo, R. Cammi, 
 J. W. Ochterski, R. L. Martin, K. Morokuma, O. Farkas, 
 J. B. Foresman, and D. J. Fox, Gaussian, Inc., Wallingford CT, 2019.
 
 ******************************************
 Gaussian 16:  ES64L-G16RevC.01  3-Jul-2019
                 9-Apr-2025 
 ******************************************
 %nprocs=16
 Will use up to   16 processors via shared memory.
 %mem=30GB
 %chk=BDE49_nonexpt_212_mol1.chk
 ----------------------------------------------------------------------
 #t hf aug-cc-pvdz symm=none int=(grid=ultrafine) guess=(read,tcheck) s
 table=(opt,rrhf)
 ----------------------------------------------------------------------
 -----
 title
 -----
 Symbolic Z-matrix:
 Charge =  0 Multiplicity = 1
 Cl                    2.34337  -0.74221  -0.34452 
 Cl                    1.00192   1.936     0.22373 
 B                     0.94245   0.21368   0.00839 
 S                    -0.69901  -0.72812   0.16766 
 O                    -0.61157  -1.48537   1.38692 
 O                    -1.81241   0.40786   0.46044 
 C                    -2.50637   1.02526  -0.65228 
 H                    -3.37266   1.50954  -0.2066 
 H                    -2.81818   0.2699   -1.37136 
 H                    -1.8696    1.77175  -1.13155 
 O                    -0.98845  -1.34944  -1.10337 
 
                    Distance matrix (angstroms):
                    1          2          3          4          5
     1  Cl   0.000000
     2  Cl   3.048810   0.000000
     3  B    1.732298   1.736756   0.000000
     4  S    3.085220   3.161305   1.899135   0.000000
     5  O    3.504549   3.957541   2.683668   1.437935   0.000000
     6  O    4.386467   3.211180   2.798439   1.617351   2.425831
     7  C    5.170939   3.728927   3.604086   2.648243   3.748573
     8  H    6.145108   4.416328   4.510607   3.506507   4.374051
     9  H    5.359144   4.462442   4.006145   2.802777   3.944392
    10  H    4.968759   3.179528   3.410963   3.050838   4.305130
    11  O    3.470681   4.064100   2.721710   1.444069   2.522314
                    6          7          8          9         10
     6  O    0.000000
     7  C    1.449449   0.000000
     8  H    2.023122   1.087940   0.000000
     9  H    2.094307   1.088521   1.789081   0.000000
    10  H    2.097120   1.091981   1.784226   1.792446   0.000000
    11  O    2.492486   2.854249   3.829147   2.458048   3.243307
                   11
    11  O    0.000000
 Symmetry turned off by external request.
 Rotational constants (GHZ):           1.5742495           1.0242917           0.7460473
   223 basis functions,   491 primitive gaussians,   239 cartesian basis functions
    44 alpha electrons       44 beta electrons
       nuclear repulsion energy       659.2700234534 Hartrees.
 NAtoms=   11 NActive=   11 NUniq=   11 SFac= 1.00D+00 NAtFMM=   60 NAOKFM=F Big=F
 ExpMin= 2.38D-02 ExpMax= 1.28D+05 ExpMxC= 1.24D+03 IAcc=3 IRadAn=         5 AccDes= 0.00D+00
 Harris functional with IExCor=  205 and IRadAn=       5 diagonalized for initial guess.
 HarFok:  IExCor=  205 AccDes= 0.00D+00 IRadAn=         5 IDoV= 1 UseB2=F ITyADJ=14
 ICtDFT=  3500011 ScaDFX=  1.000000  1.000000  1.000000  1.000000
 FoFCou: FMM=F IPFlag=           0 FMFlag=      100000 FMFlg1=           0
         NFxFlg=           0 DoJE=T BraDBF=F KetDBF=T FulRan=T
         wScrn=  0.000000 ICntrl=       500 IOpCl=  0 I1Cent=   200000004 NGrid=           0
         NMat0=    1 NMatS0=      1 NMatT0=    0 NMatD0=    1 NMtDS0=    0 NMtDT0=    0
 Symmetry not used in FoFCou.
 SCF Done:  E(RHF) =  -1605.44717764     A.U. after   14 cycles
            NFock= 14  Conv=0.45D-08     -V/T= 2.0004

 **********************************************************************

            Population analysis using the SCF Density.

 **********************************************************************

 Alpha  occ. eigenvalues -- -104.88860-104.88337 -92.24811 -20.64109 -20.58471
 Alpha  occ. eigenvalues --  -20.58021 -11.32067 -10.61649 -10.61113  -9.21648
 Alpha  occ. eigenvalues --   -8.08380  -8.08133  -8.08080  -8.07847  -8.07591
 Alpha  occ. eigenvalues --   -8.07545  -7.78977  -6.90211  -6.90172  -6.89970
 Alpha  occ. eigenvalues --   -1.52009  -1.40226  -1.37672  -1.18970  -1.14681
 Alpha  occ. eigenvalues --   -1.00527  -0.89916  -0.78093  -0.72852  -0.69544
 Alpha  occ. eigenvalues --   -0.69322  -0.65279  -0.63556  -0.61992  -0.57219
 Alpha  occ. eigenvalues --   -0.56199  -0.55111  -0.53107  -0.51851  -0.51394
 Alpha  occ. eigenvalues --   -0.50191  -0.49398  -0.49138  -0.45312
 Alpha virt. eigenvalues --    0.03053   0.03389   0.04412   0.05024   0.05569
 Alpha virt. eigenvalues --    0.06690   0.07054   0.07589   0.11166   0.11511
 Alpha virt. eigenvalues --    0.13033   0.13482   0.14024   0.15060   0.15738
 Alpha virt. eigenvalues --    0.15847   0.17100   0.17469   0.17829   0.18530
 Alpha virt. eigenvalues --    0.18913   0.19081   0.19906   0.21015   0.22880
 Alpha virt. eigenvalues --    0.24341   0.24796   0.24997   0.25425   0.26727
 Alpha virt. eigenvalues --    0.27527   0.28932   0.29906   0.31444   0.32341
 Alpha virt. eigenvalues --    0.32550   0.33398   0.33595   0.34498   0.35842
 Alpha virt. eigenvalues --    0.36268   0.37662   0.38066   0.38667   0.39963
 Alpha virt. eigenvalues --    0.41508   0.42181   0.42719   0.44589   0.46121
 Alpha virt. eigenvalues --    0.46986   0.47302   0.48592   0.50283   0.52809
 Alpha virt. eigenvalues --    0.53341   0.54903   0.55582   0.56226   0.57168
 Alpha virt. eigenvalues --    0.57626   0.58473   0.59345   0.59625   0.60281
 Alpha virt. eigenvalues --    0.61577   0.62576   0.64038   0.64452   0.65335
 Alpha virt. eigenvalues --    0.66583   0.67295   0.68664   0.69780   0.70647
 Alpha virt. eigenvalues --    0.73749   0.75050   0.75961   0.77564   0.78407
 Alpha virt. eigenvalues --    0.83388   0.86572   0.87700   0.90161   0.90546
 Alpha virt. eigenvalues --    0.96747   0.98497   0.99270   1.01462   1.02808
 Alpha virt. eigenvalues --    1.04028   1.05569   1.07376   1.09543   1.10186
 Alpha virt. eigenvalues --    1.12502   1.14232   1.14303   1.14831   1.18153
 Alpha virt. eigenvalues --    1.18677   1.19882   1.22168   1.24118   1.25391
 Alpha virt. eigenvalues --    1.27356   1.28885   1.30363   1.33062   1.33797
 Alpha virt. eigenvalues --    1.36071   1.38735   1.39302   1.40211   1.42075
 Alpha virt. eigenvalues --    1.43926   1.45375   1.46743   1.47228   1.47701
 Alpha virt. eigenvalues --    1.48714   1.49598   1.51307   1.51688   1.53956
 Alpha virt. eigenvalues --    1.56865   1.57389   1.59938   1.61538   1.64690
 Alpha virt. eigenvalues --    1.68877   1.70164   1.72335   1.73019   1.76317
 Alpha virt. eigenvalues --    1.79551   1.82849   1.85835   1.87213   1.88332
 Alpha virt. eigenvalues --    1.90348   1.95188   2.01369   2.04738   2.06102
 Alpha virt. eigenvalues --    2.09280   2.11625   2.13662   2.16873   2.20569
 Alpha virt. eigenvalues --    2.24927   2.26556   2.28917   2.32639   2.44892
 Alpha virt. eigenvalues --    2.59559   2.67902   2.69397   2.84467   2.93650
 Alpha virt. eigenvalues --    3.01851   3.08190   3.21727   3.34954   3.67436
 Alpha virt. eigenvalues --    3.69071   3.71143   3.71542   3.72957   3.74737
 Alpha virt. eigenvalues --    3.75259   3.76512   3.76871   3.80166   3.85192
 Alpha virt. eigenvalues --    3.86993   3.92784   4.00095   4.04346
          Condensed to atoms (all electrons):
 Mulliken charges:
               1
     1  Cl  -0.285912
     2  Cl  -0.218182
     3  B    0.725771
     4  S    2.631677
     5  O   -1.061490
     6  O   -1.156984
     7  C    0.779028
     8  H   -0.195359
     9  H   -0.026246
    10  H   -0.091514
    11  O   -1.100790
 Sum of Mulliken charges =   0.00000
 Mulliken charges with hydrogens summed into heavy atoms:
               1
     1  Cl  -0.285912
     2  Cl  -0.218182
     3  B    0.725771
     4  S    2.631677
     5  O   -1.061490
     6  O   -1.156984
     7  C    0.465909
    11  O   -1.100790
 Electronic spatial extent (au):  <R**2>=           1519.1850
 Charge=             -0.0000 electrons
 Dipole moment (field-independent basis, Debye):
    X=              0.2461    Y=              4.0273    Z=             -1.5994  Tot=              4.3402
 NROrb=    223 NOA=    44 NOB=    44 NVA=   179 NVB=   179

 **** Warning!!: The largest alpha MO coefficient is  0.19991892D+02

    12 initial guesses have been made.
 Iteration     1 Dimension    12 NMult     0 NNew     12
 Iteration     2 Dimension    24 NMult    12 NNew     12
 Iteration     3 Dimension    27 NMult    24 NNew      3
 Iteration     4 Dimension    30 NMult    27 NNew      3
 Iteration     5 Dimension    33 NMult    30 NNew      3
 Iteration     6 Dimension    36 NMult    33 NNew      3
 Iteration     7 Dimension    39 NMult    36 NNew      3
 ***********************************************************************
 Stability analysis using <AA,BB:AA,BB> singles matrix:
 ***********************************************************************
 Ground to excited state transition densities written to RWF  633

 Eigenvectors of the stability matrix:
 
 Excited state symmetry could not be determined.
 Eigenvector   1:      Singlet-?Sym  Eigenvalue= 0.2316792  <S**2>=0.000
      44 -> 45        -0.24698
      44 -> 46         0.60683
 The wavefunction is stable under the perturbations considered.
 The wavefunction is already stable.

 **********************************************************************

            Population analysis using the SCF Density.

 **********************************************************************

 Alpha  occ. eigenvalues -- -104.88860-104.88337 -92.24811 -20.64109 -20.58471
 Alpha  occ. eigenvalues --  -20.58021 -11.32067 -10.61649 -10.61113  -9.21648
 Alpha  occ. eigenvalues --   -8.08380  -8.08133  -8.08080  -8.07847  -8.07591
 Alpha  occ. eigenvalues --   -8.07545  -7.78977  -6.90211  -6.90172  -6.89970
 Alpha  occ. eigenvalues --   -1.52009  -1.40226  -1.37672  -1.18970  -1.14681
 Alpha  occ. eigenvalues --   -1.00527  -0.89916  -0.78093  -0.72852  -0.69544
 Alpha  occ. eigenvalues --   -0.69322  -0.65279  -0.63556  -0.61992  -0.57219
 Alpha  occ. eigenvalues --   -0.56199  -0.55111  -0.53107  -0.51851  -0.51394
 Alpha  occ. eigenvalues --   -0.50191  -0.49398  -0.49138  -0.45312
 Alpha virt. eigenvalues --    0.03053   0.03389   0.04412   0.05024   0.05569
 Alpha virt. eigenvalues --    0.06690   0.07054   0.07589   0.11166   0.11511
 Alpha virt. eigenvalues --    0.13033   0.13482   0.14024   0.15060   0.15738
 Alpha virt. eigenvalues --    0.15847   0.17100   0.17469   0.17829   0.18530
 Alpha virt. eigenvalues --    0.18913   0.19081   0.19906   0.21015   0.22880
 Alpha virt. eigenvalues --    0.24341   0.24796   0.24997   0.25425   0.26727
 Alpha virt. eigenvalues --    0.27527   0.28932   0.29906   0.31444   0.32341
 Alpha virt. eigenvalues --    0.32550   0.33398   0.33595   0.34498   0.35842
 Alpha virt. eigenvalues --    0.36268   0.37662   0.38066   0.38667   0.39963
 Alpha virt. eigenvalues --    0.41508   0.42181   0.42719   0.44589   0.46121
 Alpha virt. eigenvalues --    0.46986   0.47302   0.48592   0.50283   0.52809
 Alpha virt. eigenvalues --    0.53341   0.54903   0.55582   0.56226   0.57168
 Alpha virt. eigenvalues --    0.57626   0.58473   0.59345   0.59625   0.60281
 Alpha virt. eigenvalues --    0.61577   0.62576   0.64038   0.64452   0.65335
 Alpha virt. eigenvalues --    0.66583   0.67295   0.68664   0.69780   0.70647
 Alpha virt. eigenvalues --    0.73749   0.75050   0.75961   0.77564   0.78407
 Alpha virt. eigenvalues --    0.83388   0.86572   0.87700   0.90161   0.90546
 Alpha virt. eigenvalues --    0.96747   0.98497   0.99270   1.01462   1.02808
 Alpha virt. eigenvalues --    1.04028   1.05569   1.07376   1.09543   1.10186
 Alpha virt. eigenvalues --    1.12502   1.14232   1.14303   1.14831   1.18153
 Alpha virt. eigenvalues --    1.18677   1.19882   1.22168   1.24118   1.25391
 Alpha virt. eigenvalues --    1.27356   1.28885   1.30363   1.33062   1.33797
 Alpha virt. eigenvalues --    1.36071   1.38735   1.39302   1.40211   1.42075
 Alpha virt. eigenvalues --    1.43926   1.45375   1.46743   1.47228   1.47701
 Alpha virt. eigenvalues --    1.48714   1.49598   1.51307   1.51688   1.53956
 Alpha virt. eigenvalues --    1.56865   1.57389   1.59938   1.61538   1.64690
 Alpha virt. eigenvalues --    1.68877   1.70164   1.72335   1.73019   1.76317
 Alpha virt. eigenvalues --    1.79551   1.82849   1.85835   1.87213   1.88332
 Alpha virt. eigenvalues --    1.90348   1.95188   2.01369   2.04738   2.06102
 Alpha virt. eigenvalues --    2.09280   2.11625   2.13662   2.16873   2.20569
 Alpha virt. eigenvalues --    2.24927   2.26556   2.28917   2.32639   2.44892
 Alpha virt. eigenvalues --    2.59559   2.67902   2.69397   2.84467   2.93650
 Alpha virt. eigenvalues --    3.01851   3.08190   3.21727   3.34954   3.67436
 Alpha virt. eigenvalues --    3.69071   3.71143   3.71542   3.72957   3.74737
 Alpha virt. eigenvalues --    3.75259   3.76512   3.76871   3.80166   3.85192
 Alpha virt. eigenvalues --    3.86993   3.92784   4.00095   4.04346
          Condensed to atoms (all electrons):
 Mulliken charges:
               1
     1  Cl  -0.285912
     2  Cl  -0.218182
     3  B    0.725771
     4  S    2.631677
     5  O   -1.061490
     6  O   -1.156984
     7  C    0.779028
     8  H   -0.195359
     9  H   -0.026246
    10  H   -0.091514
    11  O   -1.100790
 Sum of Mulliken charges =   0.00000
 Mulliken charges with hydrogens summed into heavy atoms:
               1
     1  Cl  -0.285912
     2  Cl  -0.218182
     3  B    0.725771
     4  S    2.631677
     5  O   -1.061490
     6  O   -1.156984
     7  C    0.465909
    11  O   -1.100790
 Electronic spatial extent (au):  <R**2>=           1519.1850
 Charge=             -0.0000 electrons
 Dipole moment (field-independent basis, Debye):
    X=              0.2461    Y=              4.0273    Z=             -1.5994  Tot=              4.3402
 Unable to Open any file for archive entry.
 1\1\GINC-SE338\Stability\RHF\Aug-CC-pVDZ\C1H3B1Cl2O3S1\OHZDE\09-Apr-20
 25\0\\#t hf aug-cc-pvdz symm=none int=(grid=ultrafine) guess=(read,tch
 eck) stable=(opt,rrhf)\\title\\0,1\Cl,0,2.343372,-0.742211,-0.344517\C
 l,0,1.001917,1.936003,0.223734\B,0,0.942446,0.213676,0.008389\S,0,-0.6
 99005,-0.728123,0.167662\O,0,-0.611573,-1.485367,1.386922\O,0,-1.81240
 5,0.407855,0.46044\C,0,-2.506365,1.025257,-0.652276\H,0,-3.372656,1.50
 9535,-0.206599\H,0,-2.818182,0.269901,-1.371363\H,0,-1.869602,1.771749
 ,-1.131551\O,0,-0.988451,-1.34944,-1.10337\\Version=ES64L-G16RevC.01\H
 F=-1605.4471776\RMSD=4.479e-09\Dipole=0.0968395,1.5844453,-0.6292577\Q
 uadrupole=5.1477008,-2.0781363,-3.0695645,-4.3712654,2.2073611,-0.2942
 049\PG=Unknown\\@
 The archive entry for this job was punched.


 I KNOW YOU BELIEVE YOU UNDERSTAND WHAT YOU THINK I SAID,
 BUT I AM NOT SURE YOU REALIZE THAT WHAT YOU HEARD IS NOT WHAT I MEANT.
 Job cpu time:       0 days  0 hours  2 minutes 41.8 seconds.
 Elapsed time:       0 days  0 hours  0 minutes 19.8 seconds.
 File lengths (MBytes):  RWF=    336 Int=      0 D2E=      0 Chk=      8 Scr=      1
 Normal termination of Gaussian 16 at Wed Apr  9 00:01:41 2025.
 Initial command:
 /arc/software/Gaussian/g16.c01/l1.exe "/tmp/slurm/4850643/Gau-2824139.inp" -scrdir="/tmp/slurm/4850643/"
 Entering Link 1 = /arc/software/Gaussian/g16.c01/l1.exe PID=   2824358.
  
 Copyright (c) 1988-2019, Gaussian, Inc.  All Rights Reserved.
  
 This is part of the Gaussian(R) 16 program.  It is based on
 the Gaussian(R) 09 system (copyright 2009, Gaussian, Inc.),
 the Gaussian(R) 03 system (copyright 2003, Gaussian, Inc.),
 the Gaussian(R) 98 system (copyright 1998, Gaussian, Inc.),
 the Gaussian(R) 94 system (copyright 1995, Gaussian, Inc.),
 the Gaussian 92(TM) system (copyright 1992, Gaussian, Inc.),
 the Gaussian 90(TM) system (copyright 1990, Gaussian, Inc.),
 the Gaussian 88(TM) system (copyright 1988, Gaussian, Inc.),
 the Gaussian 86(TM) system (copyright 1986, Carnegie Mellon
 University), and the Gaussian 82(TM) system (copyright 1983,
 Carnegie Mellon University). Gaussian is a federally registered
 trademark of Gaussian, Inc.
  
 This software contains proprietary and confidential information,
 including trade secrets, belonging to Gaussian, Inc.
  
 This software is provided under written license and may be
 used, copied, transmitted, or stored only in accord with that
 written license.
  
 The following legend is applicable only to US Government
 contracts under FAR:
  
                    RESTRICTED RIGHTS LEGEND
  
 Use, reproduction and disclosure by the US Government is
 subject to restrictions as set forth in subparagraphs (a)
 and (c) of the Commercial Computer Software - Restricted
 Rights clause in FAR 52.227-19.
  
 Gaussian, Inc.
 340 Quinnipiac St., Bldg. 40, Wallingford CT 06492
  
  
 ---------------------------------------------------------------
 Warning -- This program may not be used in any manner that
 competes with the business of Gaussian, Inc. or will provide
 assistance to any competitor of Gaussian, Inc.  The licensee
 of this program is prohibited from giving any competitor of
 Gaussian, Inc. access to this program.  By using this program,
 the user acknowledges that Gaussian, Inc. is engaged in the
 business of creating and licensing software in the field of
 computational chemistry and represents and warrants to the
 licensee that it is not a competitor of Gaussian, Inc. and that
 it will not use this program in any manner prohibited above.
 ---------------------------------------------------------------
  

 Cite this work as:
 Gaussian 16, Revision C.01,
 M. J. Frisch, G. W. Trucks, H. B. Schlegel, G. E. Scuseria, 
 M. A. Robb, J. R. Cheeseman, G. Scalmani, V. Barone, 
 G. A. Petersson, H. Nakatsuji, X. Li, M. Caricato, A. V. Marenich, 
 J. Bloino, B. G. Janesko, R. Gomperts, B. Mennucci, H. P. Hratchian, 
 J. V. Ortiz, A. F. Izmaylov, J. L. Sonnenberg, D. Williams-Young, 
 F. Ding, F. Lipparini, F. Egidi, J. Goings, B. Peng, A. Petrone, 
 T. Henderson, D. Ranasinghe, V. G. Zakrzewski, J. Gao, N. Rega, 
 G. Zheng, W. Liang, M. Hada, M. Ehara, K. Toyota, R. Fukuda, 
 J. Hasegawa, M. Ishida, T. Nakajima, Y. Honda, O. Kitao, H. Nakai, 
 T. Vreven, K. Throssell, J. A. Montgomery, Jr., J. E. Peralta, 
 F. Ogliaro, M. J. Bearpark, J. J. Heyd, E. N. Brothers, K. N. Kudin, 
 V. N. Staroverov, T. A. Keith, R. Kobayashi, J. Normand, 
 K. Raghavachari, A. P. Rendell, J. C. Burant, S. S. Iyengar, 
 J. Tomasi, M. Cossi, J. M. Millam, M. Klene, C. Adamo, R. Cammi, 
 J. W. Ochterski, R. L. Martin, K. Morokuma, O. Farkas, 
 J. B. Foresman, and D. J. Fox, Gaussian, Inc., Wallingford CT, 2019.
 
 ******************************************
 Gaussian 16:  ES64L-G16RevC.01  3-Jul-2019
                 9-Apr-2025 
 ******************************************
 %nprocs=16
 Will use up to   16 processors via shared memory.
 %mem=30GB
 %chk=BDE49_nonexpt_212_mol1.chk
 ----------------------------------------------------------------------
 #t hf aug-cc-pvdz iop(5/13=1,5/36=2,99/5=2) pseudo=read geom=check gue
 ss=(read,tcheck) scf=(maxcycle=1)
 ----------------------------------------------------------------------
 -----
 title
 -----
 Structure from the checkpoint file:  "BDE49_nonexpt_212_mol1.chk"
 Charge =  0 Multiplicity = 1
 Z-Matrix found in chk file.
 Cl,0,2.343372,-0.742211,-0.344517
 Cl,0,1.001917,1.936003,0.223734
 B,0,0.942446,0.213676,0.008389
 S,0,-0.699005,-0.728123,0.167662
 O,0,-0.611573,-1.485367,1.386922
 O,0,-1.812405,0.407855,0.46044
 C,0,-2.506365,1.025257,-0.652276
 H,0,-3.372656,1.509535,-0.206599
 H,0,-2.818182,0.269901,-1.371363
 H,0,-1.869602,1.771749,-1.131551
 O,0,-0.988451,-1.34944,-1.10337
 Recover connectivity data from disk.
                    Distance matrix (angstroms):
                    1          2          3          4          5
     1  Cl   0.000000
     2  Cl   3.048810   0.000000
     3  B    1.732298   1.736756   0.000000
     4  S    3.085220   3.161305   1.899135   0.000000
     5  O    3.504549   3.957541   2.683668   1.437935   0.000000
     6  O    4.386467   3.211180   2.798439   1.617351   2.425831
     7  C    5.170939   3.728927   3.604086   2.648243   3.748573
     8  H    6.145108   4.416328   4.510607   3.506507   4.374051
     9  H    5.359144   4.462442   4.006145   2.802777   3.944392
    10  H    4.968759   3.179528   3.410963   3.050838   4.305130
    11  O    3.470681   4.064100   2.721710   1.444069   2.522314
                    6          7          8          9         10
     6  O    0.000000
     7  C    1.449449   0.000000
     8  H    2.023122   1.087940   0.000000
     9  H    2.094307   1.088521   1.789081   0.000000
    10  H    2.097120   1.091981   1.784226   1.792446   0.000000
    11  O    2.492486   2.854249   3.829147   2.458048   3.243307
                   11
    11  O    0.000000
 Framework group  C1[X(CH3BCl2O3S)]
 Deg. of freedom    27
                         Standard orientation:                         
 ---------------------------------------------------------------------
 Center     Atomic      Atomic             Coordinates (Angstroms)
 Number     Number       Type             X           Y           Z
 ---------------------------------------------------------------------
      1         17           0        2.343372   -0.742211   -0.344517
      2         17           0        1.001917    1.936003    0.223734
      3          5           0        0.942446    0.213676    0.008389
      4         16           0       -0.699005   -0.728123    0.167662
      5          8           0       -0.611573   -1.485367    1.386922
      6          8           0       -1.812405    0.407855    0.460440
      7          6           0       -2.506365    1.025257   -0.652276
      8          1           0       -3.372656    1.509536   -0.206599
      9          1           0       -2.818182    0.269901   -1.371363
     10          1           0       -1.869602    1.771749   -1.131551
     11          8           0       -0.988451   -1.349440   -1.103370
 ---------------------------------------------------------------------
 Rotational constants (GHZ):           1.5742495           1.0242917           0.7460473
 ======================================================================================================
                                       Pseudopotential Parameters
 ======================================================================================================
  Center     Atomic      Valence      Angular      Power
  Number     Number     Electrons     Momentum     of R      Exponent        Coefficient   SO-Coeffient
 ======================================================================================================
    1         17           17
                                      G and up 
                                                     0        0.0000010        0.00409650    0.00000000
                                                     2        0.1200000        0.06945192    0.00000000
                                                     2        0.1400000       -0.06660574    0.00000000
                                                     2        0.2200000        0.15305308    0.00000000
                                      S - G
                                                     0        0.0000010        0.00555482    0.00000000
                                                     2        0.2000000       -0.53060378    0.00000000
                                      P - G
                                                     0        0.0000010       -0.16962542    0.00000000
                                                     2        0.1200000        0.15585357    0.00000000
                                                     2        0.1800000       -0.79460714    0.00000000
                                                     2        0.5000000        1.36495881    0.00000000
                                      D - G
                                                     0        0.0000010        0.91266089    0.00000000
                                                     2        0.2400000       -1.50552862    0.00000000
                                      F - G
                                                     0        0.0000010       -0.76620800    0.00000000
                                                     2        0.1200000       -0.23737626    0.00000000
                                                     2        0.1800000        0.28531204    0.00000000
    2         17           17
                                      G and up 
                                                     0        0.0000010        0.00409650    0.00000000
                                                     2        0.1200000        0.06945192    0.00000000
                                                     2        0.1400000       -0.06660574    0.00000000
                                                     2        0.2200000        0.15305308    0.00000000
                                      S - G
                                                     0        0.0000010        0.00555482    0.00000000
                                                     2        0.2000000       -0.53060378    0.00000000
                                      P - G
                                                     0        0.0000010       -0.16962542    0.00000000
                                                     2        0.1200000        0.15585357    0.00000000
                                                     2        0.1800000       -0.79460714    0.00000000
                                                     2        0.5000000        1.36495881    0.00000000
                                      D - G
                                                     0        0.0000010        0.91266089    0.00000000
                                                     2        0.2400000       -1.50552862    0.00000000
                                      F - G
                                                     0        0.0000010       -0.76620800    0.00000000
                                                     2        0.1200000       -0.23737626    0.00000000
                                                     2        0.1800000        0.28531204    0.00000000
    3          5            5
                                      G and up 
                                                     0        0.0000010        0.00322401    0.00000000
                                                     2        0.1200000        0.00498000    0.00000000
                                                     2        0.2000000        0.09485229    0.00000000
                                                     2        0.2400000        0.01359109    0.00000000
                                                     2        0.4000000       -0.77574495    0.00000000
                                                     2        0.7000000        4.88158264    0.00000000
                                                     2        3.0000000       -1.47570482    0.00000000
                                      S - G
                                                     0        0.0000010       -0.03355475    0.00000000
                                                     2        0.1200000        0.61074044    0.00000000
                                                     2        0.2000000       -2.07118504    0.00000000
                                      P - G
                                                     0        0.0000010       -1.02759347    0.00000000
                                                     2        0.1200000        0.64674346    0.00000000
                                                     2        0.2000000       -0.92012472    0.00000000
                                      D - G
                                                     0        0.0000010        1.26102689    0.00000000
                                                     2        0.1200000       -0.86577517    0.00000000
                                                     2        0.4000000        3.34267170    0.00000000
                                                     2        0.9000000      -12.60945446    0.00000000
                                      F - G
                                                     0        0.0000010       -0.36092963    0.00000000
                                                     2        0.1200000       -0.17118798    0.00000000
                                                     2        0.1600000        0.78727920    0.00000000
                                                     2        0.8000000       -6.62088660    0.00000000
                                                     2        1.0000000      -57.27416670    0.00000000
    4         16           16
                                      G and up 
                                                     0        0.0000010       -0.00444167    0.00000000
                                                     2        0.1200000        0.11677988    0.00000000
                                                     2        0.1400000       -0.22050378    0.00000000
                                                     2        0.1800000        0.26452031    0.00000000
                                                     2        0.2800000       -0.04353316    0.00000000
                                                     2        0.5000000       -1.18567514    0.00000000
                                      S - G
                                                     0        0.0000010        0.03992419    0.00000000
                                                     2        0.1200000       -0.56926432    0.00000000
                                                     2        0.3000000        0.88393965    0.00000000
                                      P - G
                                                     0        0.0000010       -0.92181603    0.00000000
                                                     2        0.1200000        1.30681810    0.00000000
                                                     2        0.2000000       -1.50828653    0.00000000
                                                     2        0.2400000       -2.25148793    0.00000000
                                                     2        0.6000000       10.10218731    0.00000000
                                      D - G
                                                     0        0.0000010        0.72039481    0.00000000
                                                     2        0.1200000       -0.56105075    0.00000000
                                                     2        0.2000000        0.42910414    0.00000000
                                                     2        0.8000000        0.44203418    0.00000000
                                      F - G
                                                     2        0.1200000       -0.62623060    0.00000000
                                                     2        0.1800000        0.89777932    0.00000000
                                                     2        0.5000000       -1.32991832    0.00000000
    5          8            8
                                      G and up 
                                                     0        0.0000010       -0.00165251    0.00000000
                                                     2        0.1200000       -0.10937202    0.00000000
                                                     2        0.1400000        0.35668905    0.00000000
                                                     2        0.1800000       -0.51696033    0.00000000
                                                     2        0.2400000        0.52446472    0.00000000
                                                     2        0.4000000       -0.07754493    0.00000000
                                                     2        0.8000000       -1.90560988    0.00000000
                                                     2        1.7000000        0.19857963    0.00000000
                                      S - G
                                                     0        0.0000010       -0.03845181    0.00000000
                                                     2        0.1400000        0.42024558    0.00000000
                                                     2        0.4000000       -4.10467779    0.00000000
                                                     2        1.3000000        9.99571838    0.00000000
                                      P - G
                                                     0        0.0000010        0.33206183    0.00000000
                                                     2        0.1200000       -0.18708141    0.00000000
                                                     2        0.2800000       -0.18179081    0.00000000
                                                     2        0.7000000        1.18820394    0.00000000
                                      D - G
                                                     0        0.0000010       -0.57891674    0.00000000
                                                     2        0.1200000        0.60487490    0.00000000
                                                     2        0.2400000       -0.24931464    0.00000000
                                                     2        0.3000000       -2.75054612    0.00000000
                                                     2        1.0000000       15.96776040    0.00000000
                                      F - G
                                                     0        0.0000010        0.37449041    0.00000000
                                                     2        0.1200000       -0.63373642    0.00000000
                                                     2        0.1400000       -0.08412804    0.00000000
                                                     2        0.2800000        2.62321406    0.00000000
                                                     2        0.6000000       -2.68223623    0.00000000
    6          8            8
                                      G and up 
                                                     0        0.0000010       -0.00165251    0.00000000
                                                     2        0.1200000       -0.10937202    0.00000000
                                                     2        0.1400000        0.35668905    0.00000000
                                                     2        0.1800000       -0.51696033    0.00000000
                                                     2        0.2400000        0.52446472    0.00000000
                                                     2        0.4000000       -0.07754493    0.00000000
                                                     2        0.8000000       -1.90560988    0.00000000
                                                     2        1.7000000        0.19857963    0.00000000
                                      S - G
                                                     0        0.0000010       -0.03845181    0.00000000
                                                     2        0.1400000        0.42024558    0.00000000
                                                     2        0.4000000       -4.10467779    0.00000000
                                                     2        1.3000000        9.99571838    0.00000000
                                      P - G
                                                     0        0.0000010        0.33206183    0.00000000
                                                     2        0.1200000       -0.18708141    0.00000000
                                                     2        0.2800000       -0.18179081    0.00000000
                                                     2        0.7000000        1.18820394    0.00000000
                                      D - G
                                                     0        0.0000010       -0.57891674    0.00000000
                                                     2        0.1200000        0.60487490    0.00000000
                                                     2        0.2400000       -0.24931464    0.00000000
                                                     2        0.3000000       -2.75054612    0.00000000
                                                     2        1.0000000       15.96776040    0.00000000
                                      F - G
                                                     0        0.0000010        0.37449041    0.00000000
                                                     2        0.1200000       -0.63373642    0.00000000
                                                     2        0.1400000       -0.08412804    0.00000000
                                                     2        0.2800000        2.62321406    0.00000000
                                                     2        0.6000000       -2.68223623    0.00000000
    7          6            6
                                      G and up 
                                                     0        0.0000010       -0.00286759    0.00000000
                                                     2        0.1200000        0.03193960    0.00000000
                                                     2        0.1600000       -0.04027782    0.00000000
                                                     2        0.2600000        0.24782456    0.00000000
                                                     2        0.4000000       -0.62266671    0.00000000
                                                     2        0.7000000        0.35695227    0.00000000
                                      S - G
                                                     0        0.0000010       -0.06602313    0.00000000
                                                     2        0.1200000        1.47277455    0.00000000
                                                     2        0.1600000       -4.06924166    0.00000000
                                                     2        0.3000000        5.02952802    0.00000000
                                                     2        0.7000000       -5.65856978    0.00000000
                                                     2        1.7000000        8.57604414    0.00000000
                                      P - G
                                                     0        0.0000010        0.49434425    0.00000000
                                                     2        0.1200000       -1.37391547    0.00000000
                                                     2        0.1600000        3.65411806    0.00000000
                                                     2        0.2800000       -7.36479843    0.00000000
                                                     2        0.6000000       17.22091285    0.00000000
                                                     2        1.1000000      -23.50107827    0.00000000
                                                     2        3.0000000       16.29464063    0.00000000
                                      D - G
                                                     0        0.0000010       -0.28693103    0.00000000
                                                     2        0.1200000        0.12273044    0.00000000
                                                     2        0.3000000       -0.43416384    0.00000000
                                                     2        0.7000000        2.23358493    0.00000000
                                      F - G
                                                     0        0.0000010        0.07263570    0.00000000
                                                     2        0.1400000       -0.76152861    0.00000000
                                                     2        0.2200000        1.98045593    0.00000000
                                                     2        0.4000000       -2.42426427    0.00000000
                                                     2        0.7000000        0.52335237    0.00000000
    8          1            1
                                      F and up 
                                                     0        0.0000010        0.00072061    0.00000000
                                                     2        0.1200000        0.03832357    0.00000000
                                                     2        0.1400000       -0.08683256    0.00000000
                                                     2        0.1800000        0.09312970    0.00000000
                                                     2        0.2800000       -0.02532572    0.00000000
                                                     2        0.4000000       -0.09430787    0.00000000
                                                     2        0.7000000        0.42710831    0.00000000
                                                     2        1.2000000       -2.11746981    0.00000000
                                      S - F
                                                     0        0.0000010        0.14449603    0.00000000
                                                     2        0.1200000       -0.56378993    0.00000000
                                                     2        0.1400000        0.63941249    0.00000000
                                                     2        0.2600000       -0.58461015    0.00000000
                                                     2        0.5000000        1.00157293    0.00000000
                                                     2        1.8000000       -0.14135838    0.00000000
                                      P - F
                                                     0        0.0000010       -0.09353646    0.00000000
                                                     2        0.1200000        0.31768975    0.00000000
                                                     2        0.2000000       -0.71747951    0.00000000
                                                     2        0.4000000        0.65752308    0.00000000
                                                     2        1.7000000        2.94052587    0.00000000
                                      D - F
                                                     0        0.0000010       -0.04491202    0.00000000
                                                     2        0.1200000       -0.02862031    0.00000000
                                                     2        0.1800000       -0.21515263    0.00000000
                                                     2        0.3000000        0.80560647    0.00000000
                                                     2        0.4000000        0.47351754    0.00000000
                                                     2        0.7000000       -4.57051794    0.00000000
                                                     2        1.6000000       18.53737826    0.00000000
    9          1            1
                                      F and up 
                                                     0        0.0000010        0.00072061    0.00000000
                                                     2        0.1200000        0.03832357    0.00000000
                                                     2        0.1400000       -0.08683256    0.00000000
                                                     2        0.1800000        0.09312970    0.00000000
                                                     2        0.2800000       -0.02532572    0.00000000
                                                     2        0.4000000       -0.09430787    0.00000000
                                                     2        0.7000000        0.42710831    0.00000000
                                                     2        1.2000000       -2.11746981    0.00000000
                                      S - F
                                                     0        0.0000010        0.14449603    0.00000000
                                                     2        0.1200000       -0.56378993    0.00000000
                                                     2        0.1400000        0.63941249    0.00000000
                                                     2        0.2600000       -0.58461015    0.00000000
                                                     2        0.5000000        1.00157293    0.00000000
                                                     2        1.8000000       -0.14135838    0.00000000
                                      P - F
                                                     0        0.0000010       -0.09353646    0.00000000
                                                     2        0.1200000        0.31768975    0.00000000
                                                     2        0.2000000       -0.71747951    0.00000000
                                                     2        0.4000000        0.65752308    0.00000000
                                                     2        1.7000000        2.94052587    0.00000000
                                      D - F
                                                     0        0.0000010       -0.04491202    0.00000000
                                                     2        0.1200000       -0.02862031    0.00000000
                                                     2        0.1800000       -0.21515263    0.00000000
                                                     2        0.3000000        0.80560647    0.00000000
                                                     2        0.4000000        0.47351754    0.00000000
                                                     2        0.7000000       -4.57051794    0.00000000
                                                     2        1.6000000       18.53737826    0.00000000
   10          1            1
                                      F and up 
                                                     0        0.0000010        0.00072061    0.00000000
                                                     2        0.1200000        0.03832357    0.00000000
                                                     2        0.1400000       -0.08683256    0.00000000
                                                     2        0.1800000        0.09312970    0.00000000
                                                     2        0.2800000       -0.02532572    0.00000000
                                                     2        0.4000000       -0.09430787    0.00000000
                                                     2        0.7000000        0.42710831    0.00000000
                                                     2        1.2000000       -2.11746981    0.00000000
                                      S - F
                                                     0        0.0000010        0.14449603    0.00000000
                                                     2        0.1200000       -0.56378993    0.00000000
                                                     2        0.1400000        0.63941249    0.00000000
                                                     2        0.2600000       -0.58461015    0.00000000
                                                     2        0.5000000        1.00157293    0.00000000
                                                     2        1.8000000       -0.14135838    0.00000000
                                      P - F
                                                     0        0.0000010       -0.09353646    0.00000000
                                                     2        0.1200000        0.31768975    0.00000000
                                                     2        0.2000000       -0.71747951    0.00000000
                                                     2        0.4000000        0.65752308    0.00000000
                                                     2        1.7000000        2.94052587    0.00000000
                                      D - F
                                                     0        0.0000010       -0.04491202    0.00000000
                                                     2        0.1200000       -0.02862031    0.00000000
                                                     2        0.1800000       -0.21515263    0.00000000
                                                     2        0.3000000        0.80560647    0.00000000
                                                     2        0.4000000        0.47351754    0.00000000
                                                     2        0.7000000       -4.57051794    0.00000000
                                                     2        1.6000000       18.53737826    0.00000000
   11          8            8
                                      G and up 
                                                     0        0.0000010       -0.00165251    0.00000000
                                                     2        0.1200000       -0.10937202    0.00000000
                                                     2        0.1400000        0.35668905    0.00000000
                                                     2        0.1800000       -0.51696033    0.00000000
                                                     2        0.2400000        0.52446472    0.00000000
                                                     2        0.4000000       -0.07754493    0.00000000
                                                     2        0.8000000       -1.90560988    0.00000000
                                                     2        1.7000000        0.19857963    0.00000000
                                      S - G
                                                     0        0.0000010       -0.03845181    0.00000000
                                                     2        0.1400000        0.42024558    0.00000000
                                                     2        0.4000000       -4.10467779    0.00000000
                                                     2        1.3000000        9.99571838    0.00000000
                                      P - G
                                                     0        0.0000010        0.33206183    0.00000000
                                                     2        0.1200000       -0.18708141    0.00000000
                                                     2        0.2800000       -0.18179081    0.00000000
                                                     2        0.7000000        1.18820394    0.00000000
                                      D - G
                                                     0        0.0000010       -0.57891674    0.00000000
                                                     2        0.1200000        0.60487490    0.00000000
                                                     2        0.2400000       -0.24931464    0.00000000
                                                     2        0.3000000       -2.75054612    0.00000000
                                                     2        1.0000000       15.96776040    0.00000000
                                      F - G
                                                     0        0.0000010        0.37449041    0.00000000
                                                     2        0.1200000       -0.63373642    0.00000000
                                                     2        0.1400000       -0.08412804    0.00000000
                                                     2        0.2800000        2.62321406    0.00000000
                                                     2        0.6000000       -2.68223623    0.00000000
 ======================================================================================================
   223 basis functions,   491 primitive gaussians,   239 cartesian basis functions
    44 alpha electrons       44 beta electrons
       nuclear repulsion energy       659.2700234534 Hartrees.
 NAtoms=   11 NActive=   11 NUniq=   11 SFac= 1.00D+00 NAtFMM=   60 NAOKFM=F Big=F
   1 Symmetry operations used in ECPInt.
 ECPInt:  NShTT=    4371 NPrTT=   35845 LenC2=    4329 LenP2D=   22621.
 LDataN:  DoStor=T MaxTD1= 6 Len=  172
 Initial guess from the checkpoint file:  "BDE49_nonexpt_212_mol1.chk"
 B after Tr=    -0.000000    0.000000    0.000000
         Rot=    1.000000   -0.000000    0.000000    0.000000 Ang=   0.00 deg.
 >>>>>>>>>> Convergence criterion not met.
 SCF Done:  E(RHF) =  -1607.42457386     A.U. after    2 cycles
            NFock=  1  Conv=0.54D-01     -V/T= 1.9984

 **********************************************************************

            Population analysis using the SCF Density.

 **********************************************************************

 Orbital symmetries:
       Occupied  (A) (A) (A) (A) (A) (A) (A) (A) (A) (A) (A) (A)
                 (A) (A) (A) (A) (A) (A) (A) (A) (A) (A) (A) (A)
                 (A) (A) (A) (A) (A) (A) (A) (A) (A) (A) (A) (A)
                 (A) (A) (A) (A) (A) (A) (A) (A)
       Virtual   (A) (A) (A) (A) (A) (A) (A) (A) (A) (A) (A) (A)
                 (A) (A) (A) (A) (A) (A) (A) (A) (A) (A) (A) (A)
                 (A) (A) (A) (A) (A) (A) (A) (A) (A) (A) (A) (A)
                 (A) (A) (A) (A) (A) (A) (A) (A) (A) (A) (A) (A)
                 (A) (A) (A) (A) (A) (A) (A) (A) (A) (A) (A) (A)
                 (A) (A) (A) (A) (A) (A) (A) (A) (A) (A) (A) (A)
                 (A) (A) (A) (A) (A) (A) (A) (A) (A) (A) (A) (A)
                 (A) (A) (A) (A) (A) (A) (A) (A) (A) (A) (A) (A)
                 (A) (A) (A) (A) (A) (A) (A) (A) (A) (A) (A) (A)
                 (A) (A) (A) (A) (A) (A) (A) (A) (A) (A) (A) (A)
                 (A) (A) (A) (A) (A) (A) (A) (A) (A) (A) (A) (A)
                 (A) (A) (A) (A) (A) (A) (A) (A) (A) (A) (A) (A)
                 (A) (A) (A) (A) (A) (A) (A) (A) (A) (A) (A) (A)
                 (A) (A) (A) (A) (A) (A) (A) (A) (A) (A) (A) (A)
                 (A) (A) (A) (A) (A) (A) (A) (A) (A) (A) (A)
 The electronic state is 1-A.
 Alpha  occ. eigenvalues --  -99.94543 -99.94028 -75.92130 -21.10966 -21.07111
 Alpha  occ. eigenvalues --  -21.06809 -13.55125 -13.45439 -13.37768 -11.44141
 Alpha  occ. eigenvalues --  -10.51824 -10.51277  -9.71779  -9.71349  -9.71218
 Alpha  occ. eigenvalues --   -9.71139  -9.70808  -9.70626  -8.27242  -7.77259
 Alpha  occ. eigenvalues --   -1.91722  -1.74434  -1.67524  -1.44364  -1.34154
 Alpha  occ. eigenvalues --   -1.07616  -0.97218  -0.82173  -0.70835  -0.69056
 Alpha  occ. eigenvalues --   -0.65635  -0.63640  -0.62035  -0.60134  -0.56516
 Alpha  occ. eigenvalues --   -0.56054  -0.54329  -0.51418  -0.45817  -0.42806
 Alpha  occ. eigenvalues --   -0.40105  -0.38365  -0.37486  -0.36317
 Alpha virt. eigenvalues --    0.00760   0.02266   0.02967   0.03610   0.04515
 Alpha virt. eigenvalues --    0.06715   0.07525   0.08091   0.09453   0.11242
 Alpha virt. eigenvalues --    0.11754   0.13070   0.13447   0.14111   0.15239
 Alpha virt. eigenvalues --    0.15871   0.16265   0.16695   0.17278   0.17427
 Alpha virt. eigenvalues --    0.17872   0.18121   0.18837   0.19683   0.19905
 Alpha virt. eigenvalues --    0.20576   0.21400   0.22038   0.23076   0.24461
 Alpha virt. eigenvalues --    0.25132   0.25681   0.27015   0.27723   0.28731
 Alpha virt. eigenvalues --    0.29494   0.30838   0.31192   0.31762   0.32803
 Alpha virt. eigenvalues --    0.33051   0.33909   0.34915   0.35900   0.36286
 Alpha virt. eigenvalues --    0.36574   0.37331   0.38591   0.39711   0.40489
 Alpha virt. eigenvalues --    0.42228   0.43761   0.44944   0.45610   0.45942
 Alpha virt. eigenvalues --    0.47535   0.48307   0.48448   0.50499   0.51354
 Alpha virt. eigenvalues --    0.52766   0.53559   0.54823   0.55484   0.56550
 Alpha virt. eigenvalues --    0.57590   0.59137   0.61427   0.61688   0.62908
 Alpha virt. eigenvalues --    0.63819   0.64865   0.65964   0.67086   0.68145
 Alpha virt. eigenvalues --    0.69716   0.70764   0.73622   0.75667   0.77552
 Alpha virt. eigenvalues --    0.78214   0.80713   0.84340   0.89204   0.92144
 Alpha virt. eigenvalues --    0.93630   0.94976   0.96016   0.97560   0.98927
 Alpha virt. eigenvalues --    1.01024   1.01228   1.03542   1.03794   1.05409
 Alpha virt. eigenvalues --    1.09187   1.09988   1.12426   1.13855   1.16837
 Alpha virt. eigenvalues --    1.19446   1.20150   1.21800   1.22465   1.25298
 Alpha virt. eigenvalues --    1.26180   1.26742   1.28416   1.29458   1.30220
 Alpha virt. eigenvalues --    1.32124   1.33133   1.34473   1.35302   1.36609
 Alpha virt. eigenvalues --    1.38386   1.41167   1.42972   1.45372   1.47723
 Alpha virt. eigenvalues --    1.50234   1.50592   1.53880   1.56006   1.59457
 Alpha virt. eigenvalues --    1.61135   1.63810   1.69808   1.72755   1.75853
 Alpha virt. eigenvalues --    1.80808   1.83685   1.87284   1.92305   1.94968
 Alpha virt. eigenvalues --    1.95561   1.98238   2.06437   2.09434   2.13422
 Alpha virt. eigenvalues --    2.15863   2.16795   2.21880   2.26600   2.31023
 Alpha virt. eigenvalues --    2.35910   2.37178   2.40527   2.42733   2.47192
 Alpha virt. eigenvalues --    2.57337   2.59810   2.62737   2.66562   2.72636
 Alpha virt. eigenvalues --    2.88444   2.98991   3.22307   3.33904   3.37530
 Alpha virt. eigenvalues --    3.49431   3.60714   3.65529   3.72604   5.93606
 Alpha virt. eigenvalues --    5.95486   5.96705   5.98226   5.98438   6.01194
 Alpha virt. eigenvalues --    6.02001   6.03251   6.04061   6.07702   6.10890
 Alpha virt. eigenvalues --    6.16449   6.19135   6.21439   6.32227
          Condensed to atoms (all electrons):
 Mulliken charges:
               1
     1  Cl  -1.177156
     2  Cl  -1.069398
     3  B    2.979379
     4  S    6.202889
     5  O   -2.537876
     6  O   -3.118653
     7  C   -2.838641
     8  H    1.299810
     9  H    1.434555
    10  H    1.348898
    11  O   -2.523807
 Sum of Mulliken charges =  -0.00000
 Mulliken charges with hydrogens summed into heavy atoms:
               1
     1  Cl  -1.177156
     2  Cl  -1.069398
     3  B    2.979379
     4  S    6.202889
     5  O   -2.537876
     6  O   -3.118653
     7  C    1.244621
    11  O   -2.523807
 Electronic spatial extent (au):  <R**2>=           1535.6476
 Charge=             -0.0000 electrons
 Dipole moment (field-independent basis, Debye):
    X=             -1.3280    Y=              1.7637    Z=             -0.5354  Tot=              2.2718

 Test job not archived.
 1\1\GINC-SE338\SP\RHF\Aug-CC-pVDZ\C1H3B1Cl2O3S1\OHZDE\09-Apr-2025\0\\#
 t hf aug-cc-pvdz iop(5/13=1,5/36=2,99/5=2) pseudo=read geom=check gues
 s=(read,tcheck) scf=(maxcycle=1)\\title\\0,1\Cl,0,2.343372,-0.742211,-
 0.344517\Cl,0,1.001917,1.936003,0.223734\B,0,0.942446,0.213676,0.00838
 9\S,0,-0.699005,-0.728123,0.167662\O,0,-0.611573,-1.485367,1.386922\O,
 0,-1.812405,0.407855,0.46044\C,0,-2.506365,1.025257,-0.652276\H,0,-3.3
 72656,1.509535,-0.206599\H,0,-2.818182,0.269901,-1.371363\H,0,-1.86960
 2,1.771749,-1.131551\O,0,-0.988451,-1.34944,-1.10337\\Version=ES64L-G1
 6RevC.01\State=1-A\HF=-1607.4245739\RMSD=5.386e-02\Dipole=-0.5224902,0
 .6938991,-0.2106244\Quadrupole=3.1618721,-0.71078,-2.4510921,-3.298461
 3,1.0390314,-0.2064503\PG=C01 [X(C1H3B1Cl2O3S1)]\\@


 Cherishing children is the mark of a civilized society.
 -- Joan Ganz Cooney
 Job cpu time:       0 days  0 hours  0 minutes 53.7 seconds.
 Elapsed time:       0 days  0 hours  0 minutes  4.7 seconds.
 File lengths (MBytes):  RWF=     10 Int=      0 D2E=      0 Chk=      8 Scr=      1
 Normal termination of Gaussian 16 at Wed Apr  9 00:01:45 2025.
