 Entering Gaussian System, Link 0=g16
 Input=BDE49_nonexpt_864_mol1.gjf
 Output=BDE49_nonexpt_864_mol1.log
 Initial command:
 /arc/software/Gaussian/g16.c01/l1.exe "/tmp/slurm/4855319/Gau-3054102.inp" -scrdir="/tmp/slurm/4855319/"
 Entering Link 1 = /arc/software/Gaussian/g16.c01/l1.exe PID=   3054103.
  
 Copyright (c) 1988-2019, Gaussian, Inc.  All Rights Reserved.
  
 This is part of the Gaussian(R) 16 program.  It is based on
 the Gaussian(R) 09 system (copyright 2009, Gaussian, Inc.),
 the Gaussian(R) 03 system (copyright 2003, Gaussian, Inc.),
 the Gaussian(R) 98 system (copyright 1998, Gaussian, Inc.),
 the Gaussian(R) 94 system (copyright 1995, Gaussian, Inc.),
 the Gaussian 92(TM) system (copyright 1992, Gaussian, Inc.),
 the Gaussian 90(TM) system (copyright 1990, Gaussian, Inc.),
 the Gaussian 88(TM) system (copyright 1988, Gaussian, Inc.),
 the Gaussian 86(TM) system (copyright 1986, Carnegie Mellon
 University), and the Gaussian 82(TM) system (copyright 1983,
 Carnegie Mellon University). Gaussian is a federally registered
 trademark of Gaussian, Inc.
  
 This software contains proprietary and confidential information,
 including trade secrets, belonging to Gaussian, Inc.
  
 This software is provided under written license and may be
 used, copied, transmitted, or stored only in accord with that
 written license.
  
 The following legend is applicable only to US Government
 contracts under FAR:
  
                    RESTRICTED RIGHTS LEGEND
  
 Use, reproduction and disclosure by the US Government is
 subject to restrictions as set forth in subparagraphs (a)
 and (c) of the Commercial Computer Software - Restricted
 Rights clause in FAR 52.227-19.
  
 Gaussian, Inc.
 340 Quinnipiac St., Bldg. 40, Wallingford CT 06492
  
  
 ---------------------------------------------------------------
 Warning -- This program may not be used in any manner that
 competes with the business of Gaussian, Inc. or will provide
 assistance to any competitor of Gaussian, Inc.  The licensee
 of this program is prohibited from giving any competitor of
 Gaussian, Inc. access to this program.  By using this program,
 the user acknowledges that Gaussian, Inc. is engaged in the
 business of creating and licensing software in the field of
 computational chemistry and represents and warrants to the
 licensee that it is not a competitor of Gaussian, Inc. and that
 it will not use this program in any manner prohibited above.
 ---------------------------------------------------------------
  

 Cite this work as:
 Gaussian 16, Revision C.01,
 M. J. Frisch, G. W. Trucks, H. B. Schlegel, G. E. Scuseria, 
 M. A. Robb, J. R. Cheeseman, G. Scalmani, V. Barone, 
 G. A. Petersson, H. Nakatsuji, X. Li, M. Caricato, A. V. Marenich, 
 J. Bloino, B. G. Janesko, R. Gomperts, B. Mennucci, H. P. Hratchian, 
 J. V. Ortiz, A. F. Izmaylov, J. L. Sonnenberg, D. Williams-Young, 
 F. Ding, F. Lipparini, F. Egidi, J. Goings, B. Peng, A. Petrone, 
 T. Henderson, D. Ranasinghe, V. G. Zakrzewski, J. Gao, N. Rega, 
 G. Zheng, W. Liang, M. Hada, M. Ehara, K. Toyota, R. Fukuda, 
 J. Hasegawa, M. Ishida, T. Nakajima, Y. Honda, O. Kitao, H. Nakai, 
 T. Vreven, K. Throssell, J. A. Montgomery, Jr., J. E. Peralta, 
 F. Ogliaro, M. J. Bearpark, J. J. Heyd, E. N. Brothers, K. N. Kudin, 
 V. N. Staroverov, T. A. Keith, R. Kobayashi, J. Normand, 
 K. Raghavachari, A. P. Rendell, J. C. Burant, S. S. Iyengar, 
 J. Tomasi, M. Cossi, J. M. Millam, M. Klene, C. Adamo, R. Cammi, 
 J. W. Ochterski, R. L. Martin, K. Morokuma, O. Farkas, 
 J. B. Foresman, and D. J. Fox, Gaussian, Inc., Wallingford CT, 2019.
 
 ******************************************
 Gaussian 16:  ES64L-G16RevC.01  3-Jul-2019
                 9-Apr-2025 
 ******************************************
 %nprocs=16
 Will use up to   16 processors via shared memory.
 %mem=30GB
 %chk=BDE49_nonexpt_864_mol1.chk
 ----------------------------------------------------------------------
 #t hf aug-cc-pvdz symm=none int=(grid=ultrafine) guess=(read,tcheck) s
 table=(opt,rrhf)
 ----------------------------------------------------------------------
 -----
 title
 -----
 Symbolic Z-matrix:
 Charge =  0 Multiplicity = 1
 H                     4.24654  -0.15202  -0.05677 
 S                    -2.15957  -1.47983   0.31237 
 S                    -1.99714   1.56645  -0.34806 
 B                    -1.14812  -0.00273   0.00773 
 N                     2.49441  -1.14605  -0.48738 
 C                     3.16254  -0.0815   -0.03244 
 C                     2.53837   1.06613   0.45089 
 H                     3.12919   1.90215   0.80605 
 C                     1.15034   1.10854   0.46694 
 H                     0.63922   1.98794   0.84359 
 C                     0.41104   0.00269   0.01363 
 C                     1.16223  -1.09106  -0.45512 
 H                     0.65501  -1.96829  -0.84847 
 H                    -3.26232   1.17068  -0.12072 
 H                    -1.16765  -2.31916   0.65687 
 
                    Distance matrix (angstroms):
                    1          2          3          4          5
     1  H    0.000000
     2  S    6.552680   0.000000
     3  S    6.482397   3.121276   0.000000
     4  B    5.397113   1.815948   1.819266   0.000000
     5  N    2.059968   4.733981   5.248911   3.849723   0.000000
     6  C    1.086564   5.513535   5.425645   4.311568   1.336642
     7  C    2.158573   5.345259   4.632436   3.863818   2.403333
     8  H    2.492487   6.297024   5.265349   4.749872   3.371552
     9  C    3.383743   4.204648   3.283371   2.593978   2.792920
    10  H    4.289853   4.487855   2.923702   2.802856   3.877512
    11  C    3.839264   2.982473   2.894044   1.559183   2.431263
    12  C    3.248604   3.431410   4.129827   2.595467   1.333702
    13  H    4.101792   3.083510   4.447324   2.801393   2.046915
    14  H    7.624737   2.903243   1.344994   2.421410   6.216241
    15  H    5.875302   1.344276   4.098280   2.405748   4.012002
                    6          7          8          9         10
     6  C    0.000000
     7  C    1.392931   0.000000
     8  H    2.153841   1.083570   0.000000
     9  C    2.390506   1.388771   2.158856   0.000000
    10  H    3.378932   2.147263   2.491737   1.084648   0.000000
    11  C    2.753172   2.418192   3.409432   1.405334   2.163823
    12  C    2.280150   2.714423   3.797204   2.385074   3.382374
    13  H    3.242460   3.800405   4.882545   3.382679   4.302913
    14  H    6.546342   5.829727   6.499647   4.452056   4.101196
    15  H    4.922675   5.023664   6.025320   4.142250   4.674475
                   11         12         13         14         15
    11  C    0.000000
    12  C    1.407234   0.000000
    13  H    2.165060   1.086979   0.000000
    14  H    3.856922   4.980362   5.072303   0.000000
    15  H    2.880445   2.858858   2.389822   4.143826   0.000000
 Symmetry turned off by external request.
 Rotational constants (GHZ):           2.0350623           0.7532323           0.5752354
   269 basis functions,   529 primitive gaussians,   287 cartesian basis functions
    40 alpha electrons       40 beta electrons
       nuclear repulsion energy       521.2947959425 Hartrees.
 NAtoms=   15 NActive=   15 NUniq=   15 SFac= 1.00D+00 NAtFMM=   60 NAOKFM=F Big=F
 ExpMin= 2.38D-02 ExpMax= 1.11D+05 ExpMxC= 1.07D+03 IAcc=3 IRadAn=         5 AccDes= 0.00D+00
 Harris functional with IExCor=  205 and IRadAn=       5 diagonalized for initial guess.
 HarFok:  IExCor=  205 AccDes= 0.00D+00 IRadAn=         5 IDoV= 1 UseB2=F ITyADJ=14
 ICtDFT=  3500011 ScaDFX=  1.000000  1.000000  1.000000  1.000000
 FoFCou: FMM=F IPFlag=           0 FMFlag=      100000 FMFlg1=           0
         NFxFlg=           0 DoJE=T BraDBF=F KetDBF=T FulRan=T
         wScrn=  0.000000 ICntrl=       500 IOpCl=  0 I1Cent=   200000004 NGrid=           0
         NMat0=    1 NMatS0=      1 NMatT0=    0 NMatD0=    1 NMtDS0=    0 NMtDT0=    0
 Symmetry not used in FoFCou.
 SCF Done:  E(RHF) =  -1067.13892329     A.U. after   15 cycles
            NFock= 15  Conv=0.50D-08     -V/T= 2.0003

 **********************************************************************

            Population analysis using the SCF Density.

 **********************************************************************

 Alpha  occ. eigenvalues --  -91.96940 -91.96771 -15.58304 -11.29601 -11.29545
 Alpha  occ. eigenvalues --  -11.27801 -11.25602 -11.24554  -8.97323  -8.97154
 Alpha  occ. eigenvalues --   -7.67152  -6.65525  -6.65382  -6.65359  -6.65242
 Alpha  occ. eigenvalues --   -6.65212  -6.65074  -1.27208  -1.10234  -1.05263
 Alpha  occ. eigenvalues --   -1.01075  -0.97002  -0.86929  -0.86796  -0.73409
 Alpha  occ. eigenvalues --   -0.68554  -0.67258  -0.62579  -0.60262  -0.58221
 Alpha  occ. eigenvalues --   -0.56493  -0.55028  -0.52626  -0.47530  -0.45774
 Alpha  occ. eigenvalues --   -0.43869  -0.42282  -0.38994  -0.37569  -0.35335
 Alpha virt. eigenvalues --    0.03093   0.04008   0.04534   0.05246   0.05402
 Alpha virt. eigenvalues --    0.05993   0.06391   0.07289   0.07829   0.07897
 Alpha virt. eigenvalues --    0.08705   0.09863   0.10480   0.11871   0.11974
 Alpha virt. eigenvalues --    0.12440   0.13461   0.14321   0.14438   0.14619
 Alpha virt. eigenvalues --    0.15210   0.15315   0.16107   0.16633   0.17017
 Alpha virt. eigenvalues --    0.17546   0.17975   0.18387   0.18603   0.19345
 Alpha virt. eigenvalues --    0.19710   0.20289   0.20708   0.21122   0.21899
 Alpha virt. eigenvalues --    0.22792   0.23823   0.24684   0.25747   0.26364
 Alpha virt. eigenvalues --    0.27871   0.29479   0.29874   0.30466   0.30742
 Alpha virt. eigenvalues --    0.31263   0.32331   0.32891   0.33857   0.34412
 Alpha virt. eigenvalues --    0.35173   0.36005   0.36404   0.37795   0.38697
 Alpha virt. eigenvalues --    0.39016   0.39686   0.40944   0.41656   0.42179
 Alpha virt. eigenvalues --    0.42647   0.44016   0.45002   0.45882   0.47525
 Alpha virt. eigenvalues --    0.48117   0.49018   0.50005   0.51939   0.52244
 Alpha virt. eigenvalues --    0.52764   0.53091   0.53851   0.54375   0.55186
 Alpha virt. eigenvalues --    0.55427   0.56520   0.56885   0.58031   0.58401
 Alpha virt. eigenvalues --    0.59336   0.59812   0.61253   0.61814   0.61997
 Alpha virt. eigenvalues --    0.62969   0.63662   0.64330   0.65770   0.66040
 Alpha virt. eigenvalues --    0.66619   0.68321   0.68805   0.68863   0.70240
 Alpha virt. eigenvalues --    0.70593   0.71317   0.73010   0.73620   0.74125
 Alpha virt. eigenvalues --    0.74298   0.76002   0.76764   0.77728   0.79697
 Alpha virt. eigenvalues --    0.80135   0.82470   0.83865   0.85568   0.86809
 Alpha virt. eigenvalues --    0.87974   0.88282   0.90203   0.90726   0.91195
 Alpha virt. eigenvalues --    0.92743   0.94324   0.94720   0.95198   0.96775
 Alpha virt. eigenvalues --    0.98365   0.99357   1.02550   1.03005   1.05013
 Alpha virt. eigenvalues --    1.05408   1.05871   1.06844   1.08261   1.09313
 Alpha virt. eigenvalues --    1.10711   1.13169   1.14535   1.15899   1.16937
 Alpha virt. eigenvalues --    1.18405   1.20085   1.20794   1.22609   1.23414
 Alpha virt. eigenvalues --    1.25289   1.27401   1.28440   1.28713   1.29180
 Alpha virt. eigenvalues --    1.31412   1.32927   1.33540   1.35656   1.38469
 Alpha virt. eigenvalues --    1.40137   1.41928   1.42368   1.46217   1.47687
 Alpha virt. eigenvalues --    1.48617   1.51156   1.54108   1.56306   1.56800
 Alpha virt. eigenvalues --    1.59557   1.60148   1.61368   1.62825   1.64297
 Alpha virt. eigenvalues --    1.65199   1.67630   1.69897   1.72343   1.72899
 Alpha virt. eigenvalues --    1.73739   1.75922   1.77699   1.78645   1.81188
 Alpha virt. eigenvalues --    1.85178   1.86266   1.86797   1.87239   1.88151
 Alpha virt. eigenvalues --    1.89275   1.91363   1.91569   1.96208   1.97479
 Alpha virt. eigenvalues --    2.01585   2.03800   2.04087   2.04556   2.07170
 Alpha virt. eigenvalues --    2.09108   2.10485   2.11338   2.14888   2.15808
 Alpha virt. eigenvalues --    2.19726   2.22530   2.24494   2.25809   2.28215
 Alpha virt. eigenvalues --    2.31900   2.35110   2.38256   2.42647   2.44201
 Alpha virt. eigenvalues --    2.45783   2.47190   2.49524   2.51645   2.61430
 Alpha virt. eigenvalues --    2.65374   2.70360   2.72437   2.76843   2.77715
 Alpha virt. eigenvalues --    2.87233   2.94113   2.99510   3.00559   3.06623
 Alpha virt. eigenvalues --    3.08829   3.11792   3.23247   3.35868   3.41978
 Alpha virt. eigenvalues --    3.53206   3.61372   4.03390   4.18090
          Condensed to atoms (all electrons):
 Mulliken charges:
               1
     1  H   -0.319491
     2  S   -0.380552
     3  S   -0.360581
     4  B    0.621027
     5  N   -0.572114
     6  C    0.422130
     7  C    0.813459
     8  H   -0.406335
     9  C    0.131517
    10  H   -0.596603
    11  C    0.605207
    12  C    0.473447
    13  H   -0.545501
    14  H    0.034335
    15  H    0.080055
 Sum of Mulliken charges =  -0.00000
 Mulliken charges with hydrogens summed into heavy atoms:
               1
     2  S   -0.300498
     3  S   -0.326246
     4  B    0.621027
     5  N   -0.572114
     6  C    0.102639
     7  C    0.407124
     9  C   -0.465086
    11  C    0.605207
    12  C   -0.072054
 Electronic spatial extent (au):  <R**2>=           1865.7333
 Charge=             -0.0000 electrons
 Dipole moment (field-independent basis, Debye):
    X=              0.2884    Y=              1.0539    Z=              1.1676  Tot=              1.5991
 NROrb=    269 NOA=    40 NOB=    40 NVA=   229 NVB=   229

 **** Warning!!: The largest alpha MO coefficient is  0.85041168D+02

    12 initial guesses have been made.
 Iteration     1 Dimension    12 NMult     0 NNew     12
 New state      1 was old state      3
 Iteration     2 Dimension    24 NMult    12 NNew     12
 Iteration     3 Dimension    27 NMult    24 NNew      3
 Iteration     4 Dimension    30 NMult    27 NNew      3
 Iteration     5 Dimension    33 NMult    30 NNew      3
 Iteration     6 Dimension    36 NMult    33 NNew      3
 ***********************************************************************
 Stability analysis using <AA,BB:AA,BB> singles matrix:
 ***********************************************************************
 Ground to excited state transition densities written to RWF  633

 Eigenvectors of the stability matrix:
 
 Excited state symmetry could not be determined.
 Eigenvector   1:      Singlet-?Sym  Eigenvalue= 0.1708683  <S**2>=0.000
      38 -> 45        -0.15311
      38 -> 46         0.22080
      38 -> 47         0.10860
      38 -> 51         0.12895
      38 -> 54         0.10735
      40 -> 45         0.12396
      40 -> 46        -0.30903
      40 -> 48         0.15416
      40 -> 49        -0.18499
      40 -> 51         0.15659
      40 -> 52         0.22749
 The wavefunction is stable under the perturbations considered.
 The wavefunction is already stable.

 **********************************************************************

            Population analysis using the SCF Density.

 **********************************************************************

 Alpha  occ. eigenvalues --  -91.96940 -91.96771 -15.58304 -11.29601 -11.29545
 Alpha  occ. eigenvalues --  -11.27801 -11.25602 -11.24554  -8.97323  -8.97154
 Alpha  occ. eigenvalues --   -7.67152  -6.65525  -6.65382  -6.65359  -6.65242
 Alpha  occ. eigenvalues --   -6.65212  -6.65074  -1.27208  -1.10234  -1.05263
 Alpha  occ. eigenvalues --   -1.01075  -0.97002  -0.86929  -0.86796  -0.73409
 Alpha  occ. eigenvalues --   -0.68554  -0.67258  -0.62579  -0.60262  -0.58221
 Alpha  occ. eigenvalues --   -0.56493  -0.55028  -0.52626  -0.47530  -0.45774
 Alpha  occ. eigenvalues --   -0.43869  -0.42282  -0.38994  -0.37569  -0.35335
 Alpha virt. eigenvalues --    0.03093   0.04008   0.04534   0.05246   0.05402
 Alpha virt. eigenvalues --    0.05993   0.06391   0.07289   0.07829   0.07897
 Alpha virt. eigenvalues --    0.08705   0.09863   0.10480   0.11871   0.11974
 Alpha virt. eigenvalues --    0.12440   0.13461   0.14321   0.14438   0.14619
 Alpha virt. eigenvalues --    0.15210   0.15315   0.16107   0.16633   0.17017
 Alpha virt. eigenvalues --    0.17546   0.17975   0.18387   0.18603   0.19345
 Alpha virt. eigenvalues --    0.19710   0.20289   0.20708   0.21122   0.21899
 Alpha virt. eigenvalues --    0.22792   0.23823   0.24684   0.25747   0.26364
 Alpha virt. eigenvalues --    0.27871   0.29479   0.29874   0.30466   0.30742
 Alpha virt. eigenvalues --    0.31263   0.32331   0.32891   0.33857   0.34412
 Alpha virt. eigenvalues --    0.35173   0.36005   0.36404   0.37795   0.38697
 Alpha virt. eigenvalues --    0.39016   0.39686   0.40944   0.41656   0.42179
 Alpha virt. eigenvalues --    0.42647   0.44016   0.45002   0.45882   0.47525
 Alpha virt. eigenvalues --    0.48117   0.49018   0.50005   0.51939   0.52244
 Alpha virt. eigenvalues --    0.52764   0.53091   0.53851   0.54375   0.55186
 Alpha virt. eigenvalues --    0.55427   0.56520   0.56885   0.58031   0.58401
 Alpha virt. eigenvalues --    0.59336   0.59812   0.61253   0.61814   0.61997
 Alpha virt. eigenvalues --    0.62969   0.63662   0.64330   0.65770   0.66040
 Alpha virt. eigenvalues --    0.66619   0.68321   0.68805   0.68863   0.70240
 Alpha virt. eigenvalues --    0.70593   0.71317   0.73010   0.73620   0.74125
 Alpha virt. eigenvalues --    0.74298   0.76002   0.76764   0.77728   0.79697
 Alpha virt. eigenvalues --    0.80135   0.82470   0.83865   0.85568   0.86809
 Alpha virt. eigenvalues --    0.87974   0.88282   0.90203   0.90726   0.91195
 Alpha virt. eigenvalues --    0.92743   0.94324   0.94720   0.95198   0.96775
 Alpha virt. eigenvalues --    0.98365   0.99357   1.02550   1.03005   1.05013
 Alpha virt. eigenvalues --    1.05408   1.05871   1.06844   1.08261   1.09313
 Alpha virt. eigenvalues --    1.10711   1.13169   1.14535   1.15899   1.16937
 Alpha virt. eigenvalues --    1.18405   1.20085   1.20794   1.22609   1.23414
 Alpha virt. eigenvalues --    1.25289   1.27401   1.28440   1.28713   1.29180
 Alpha virt. eigenvalues --    1.31412   1.32927   1.33540   1.35656   1.38469
 Alpha virt. eigenvalues --    1.40137   1.41928   1.42368   1.46217   1.47687
 Alpha virt. eigenvalues --    1.48617   1.51156   1.54108   1.56306   1.56800
 Alpha virt. eigenvalues --    1.59557   1.60148   1.61368   1.62825   1.64297
 Alpha virt. eigenvalues --    1.65199   1.67630   1.69897   1.72343   1.72899
 Alpha virt. eigenvalues --    1.73739   1.75922   1.77699   1.78645   1.81188
 Alpha virt. eigenvalues --    1.85178   1.86266   1.86797   1.87239   1.88151
 Alpha virt. eigenvalues --    1.89275   1.91363   1.91569   1.96208   1.97479
 Alpha virt. eigenvalues --    2.01585   2.03800   2.04087   2.04556   2.07170
 Alpha virt. eigenvalues --    2.09108   2.10485   2.11338   2.14888   2.15808
 Alpha virt. eigenvalues --    2.19726   2.22530   2.24494   2.25809   2.28215
 Alpha virt. eigenvalues --    2.31900   2.35110   2.38256   2.42647   2.44201
 Alpha virt. eigenvalues --    2.45783   2.47190   2.49524   2.51645   2.61430
 Alpha virt. eigenvalues --    2.65374   2.70360   2.72437   2.76843   2.77715
 Alpha virt. eigenvalues --    2.87233   2.94113   2.99510   3.00559   3.06623
 Alpha virt. eigenvalues --    3.08829   3.11792   3.23247   3.35868   3.41978
 Alpha virt. eigenvalues --    3.53206   3.61372   4.03390   4.18090
          Condensed to atoms (all electrons):
 Mulliken charges:
               1
     1  H   -0.319491
     2  S   -0.380552
     3  S   -0.360581
     4  B    0.621027
     5  N   -0.572114
     6  C    0.422130
     7  C    0.813459
     8  H   -0.406335
     9  C    0.131517
    10  H   -0.596603
    11  C    0.605207
    12  C    0.473447
    13  H   -0.545501
    14  H    0.034335
    15  H    0.080055
 Sum of Mulliken charges =  -0.00000
 Mulliken charges with hydrogens summed into heavy atoms:
               1
     2  S   -0.300498
     3  S   -0.326246
     4  B    0.621027
     5  N   -0.572114
     6  C    0.102639
     7  C    0.407124
     9  C   -0.465086
    11  C    0.605207
    12  C   -0.072054
 Electronic spatial extent (au):  <R**2>=           1865.7333
 Charge=             -0.0000 electrons
 Dipole moment (field-independent basis, Debye):
    X=              0.2884    Y=              1.0539    Z=              1.1676  Tot=              1.5991
 Unable to Open any file for archive entry.
 1\1\GINC-SE332\Stability\RHF\Aug-CC-pVDZ\C5H6B1N1S2\OHZDE\09-Apr-2025\
 0\\#t hf aug-cc-pvdz symm=none int=(grid=ultrafine) guess=(read,tcheck
 ) stable=(opt,rrhf)\\title\\0,1\H,0,4.246539,-0.152016,-0.056767\S,0,-
 2.159573,-1.47983,0.312368\S,0,-1.997138,1.56645,-0.348055\B,0,-1.1481
 23,-0.002728,0.007728\N,0,2.494412,-1.146046,-0.487377\C,0,3.162538,-0
 .081504,-0.032437\C,0,2.538371,1.066134,0.450885\H,0,3.129192,1.902145
 ,0.806048\C,0,1.15034,1.108537,0.466943\H,0,0.639215,1.98794,0.843591\
 C,0,0.411039,0.002686,0.013632\C,0,1.162234,-1.091064,-0.455116\H,0,0.
 655013,-1.968287,-0.848473\H,0,-3.262323,1.170679,-0.12072\H,0,-1.1676
 45,-2.31916,0.656869\\Version=ES64L-G16RevC.01\HF=-1067.1389233\RMSD=4
 .992e-09\Dipole=0.1134849,0.4146554,0.4593529\Quadrupole=2.2221555,0.3
 944976,-2.6166531,3.7142266,1.8617336,0.5336085\PG=Unknown\\@
 The archive entry for this job was punched.


 THE POLHOLDE ROLLS WITHOUT SLIPPING ON THE HERPOLHOLDE LYING IN
 THE INVARIABLE PLANE.
 H.GOLDSTEIN, "CLASSICAL MECHANICS", PG 161
 Job cpu time:       0 days  0 hours 12 minutes 40.2 seconds.
 Elapsed time:       0 days  0 hours  0 minutes 53.0 seconds.
 File lengths (MBytes):  RWF=    381 Int=      0 D2E=      0 Chk=     11 Scr=      1
 Normal termination of Gaussian 16 at Wed Apr  9 00:49:45 2025.
 Initial command:
 /arc/software/Gaussian/g16.c01/l1.exe "/tmp/slurm/4855319/Gau-3054102.inp" -scrdir="/tmp/slurm/4855319/"
 Entering Link 1 = /arc/software/Gaussian/g16.c01/l1.exe PID=   3054328.
  
 Copyright (c) 1988-2019, Gaussian, Inc.  All Rights Reserved.
  
 This is part of the Gaussian(R) 16 program.  It is based on
 the Gaussian(R) 09 system (copyright 2009, Gaussian, Inc.),
 the Gaussian(R) 03 system (copyright 2003, Gaussian, Inc.),
 the Gaussian(R) 98 system (copyright 1998, Gaussian, Inc.),
 the Gaussian(R) 94 system (copyright 1995, Gaussian, Inc.),
 the Gaussian 92(TM) system (copyright 1992, Gaussian, Inc.),
 the Gaussian 90(TM) system (copyright 1990, Gaussian, Inc.),
 the Gaussian 88(TM) system (copyright 1988, Gaussian, Inc.),
 the Gaussian 86(TM) system (copyright 1986, Carnegie Mellon
 University), and the Gaussian 82(TM) system (copyright 1983,
 Carnegie Mellon University). Gaussian is a federally registered
 trademark of Gaussian, Inc.
  
 This software contains proprietary and confidential information,
 including trade secrets, belonging to Gaussian, Inc.
  
 This software is provided under written license and may be
 used, copied, transmitted, or stored only in accord with that
 written license.
  
 The following legend is applicable only to US Government
 contracts under FAR:
  
                    RESTRICTED RIGHTS LEGEND
  
 Use, reproduction and disclosure by the US Government is
 subject to restrictions as set forth in subparagraphs (a)
 and (c) of the Commercial Computer Software - Restricted
 Rights clause in FAR 52.227-19.
  
 Gaussian, Inc.
 340 Quinnipiac St., Bldg. 40, Wallingford CT 06492
  
  
 ---------------------------------------------------------------
 Warning -- This program may not be used in any manner that
 competes with the business of Gaussian, Inc. or will provide
 assistance to any competitor of Gaussian, Inc.  The licensee
 of this program is prohibited from giving any competitor of
 Gaussian, Inc. access to this program.  By using this program,
 the user acknowledges that Gaussian, Inc. is engaged in the
 business of creating and licensing software in the field of
 computational chemistry and represents and warrants to the
 licensee that it is not a competitor of Gaussian, Inc. and that
 it will not use this program in any manner prohibited above.
 ---------------------------------------------------------------
  

 Cite this work as:
 Gaussian 16, Revision C.01,
 M. J. Frisch, G. W. Trucks, H. B. Schlegel, G. E. Scuseria, 
 M. A. Robb, J. R. Cheeseman, G. Scalmani, V. Barone, 
 G. A. Petersson, H. Nakatsuji, X. Li, M. Caricato, A. V. Marenich, 
 J. Bloino, B. G. Janesko, R. Gomperts, B. Mennucci, H. P. Hratchian, 
 J. V. Ortiz, A. F. Izmaylov, J. L. Sonnenberg, D. Williams-Young, 
 F. Ding, F. Lipparini, F. Egidi, J. Goings, B. Peng, A. Petrone, 
 T. Henderson, D. Ranasinghe, V. G. Zakrzewski, J. Gao, N. Rega, 
 G. Zheng, W. Liang, M. Hada, M. Ehara, K. Toyota, R. Fukuda, 
 J. Hasegawa, M. Ishida, T. Nakajima, Y. Honda, O. Kitao, H. Nakai, 
 T. Vreven, K. Throssell, J. A. Montgomery, Jr., J. E. Peralta, 
 F. Ogliaro, M. J. Bearpark, J. J. Heyd, E. N. Brothers, K. N. Kudin, 
 V. N. Staroverov, T. A. Keith, R. Kobayashi, J. Normand, 
 K. Raghavachari, A. P. Rendell, J. C. Burant, S. S. Iyengar, 
 J. Tomasi, M. Cossi, J. M. Millam, M. Klene, C. Adamo, R. Cammi, 
 J. W. Ochterski, R. L. Martin, K. Morokuma, O. Farkas, 
 J. B. Foresman, and D. J. Fox, Gaussian, Inc., Wallingford CT, 2019.
 
 ******************************************
 Gaussian 16:  ES64L-G16RevC.01  3-Jul-2019
                 9-Apr-2025 
 ******************************************
 %nprocs=16
 Will use up to   16 processors via shared memory.
 %mem=30GB
 %chk=BDE49_nonexpt_864_mol1.chk
 ----------------------------------------------------------------------
 #t hf aug-cc-pvdz iop(5/13=1,5/36=2,99/5=2) pseudo=read geom=check gue
 ss=(read,tcheck) scf=(maxcycle=1)
 ----------------------------------------------------------------------
 -----
 title
 -----
 Structure from the checkpoint file:  "BDE49_nonexpt_864_mol1.chk"
 Charge =  0 Multiplicity = 1
 Z-Matrix found in chk file.
 H,0,4.246539,-0.152016,-0.056767
 S,0,-2.159573,-1.47983,0.312368
 S,0,-1.997138,1.56645,-0.348055
 B,0,-1.148123,-0.002728,0.007728
 N,0,2.494412,-1.146046,-0.487377
 C,0,3.162538,-0.081504,-0.032437
 C,0,2.538371,1.066134,0.450885
 H,0,3.129192,1.902145,0.806048
 C,0,1.15034,1.108537,0.466943
 H,0,0.639215,1.98794,0.843591
 C,0,0.411039,0.002686,0.013632
 C,0,1.162234,-1.091064,-0.455116
 H,0,0.655013,-1.968287,-0.848473
 H,0,-3.262323,1.170679,-0.12072
 H,0,-1.167645,-2.31916,0.656869
 Recover connectivity data from disk.
                    Distance matrix (angstroms):
                    1          2          3          4          5
     1  H    0.000000
     2  S    6.552680   0.000000
     3  S    6.482397   3.121276   0.000000
     4  B    5.397113   1.815948   1.819266   0.000000
     5  N    2.059968   4.733981   5.248911   3.849723   0.000000
     6  C    1.086564   5.513535   5.425645   4.311568   1.336642
     7  C    2.158573   5.345259   4.632436   3.863818   2.403333
     8  H    2.492487   6.297024   5.265349   4.749872   3.371552
     9  C    3.383743   4.204648   3.283371   2.593978   2.792920
    10  H    4.289853   4.487855   2.923702   2.802856   3.877512
    11  C    3.839264   2.982473   2.894044   1.559183   2.431263
    12  C    3.248604   3.431410   4.129827   2.595467   1.333702
    13  H    4.101792   3.083510   4.447324   2.801393   2.046915
    14  H    7.624737   2.903243   1.344994   2.421410   6.216241
    15  H    5.875302   1.344276   4.098280   2.405748   4.012002
                    6          7          8          9         10
     6  C    0.000000
     7  C    1.392931   0.000000
     8  H    2.153841   1.083570   0.000000
     9  C    2.390506   1.388771   2.158856   0.000000
    10  H    3.378932   2.147263   2.491737   1.084648   0.000000
    11  C    2.753172   2.418192   3.409432   1.405334   2.163823
    12  C    2.280150   2.714423   3.797204   2.385074   3.382374
    13  H    3.242460   3.800405   4.882545   3.382679   4.302913
    14  H    6.546342   5.829727   6.499647   4.452056   4.101196
    15  H    4.922675   5.023664   6.025320   4.142250   4.674475
                   11         12         13         14         15
    11  C    0.000000
    12  C    1.407234   0.000000
    13  H    2.165060   1.086979   0.000000
    14  H    3.856922   4.980362   5.072303   0.000000
    15  H    2.880445   2.858858   2.389822   4.143826   0.000000
 Framework group  C1[X(C5H6BNS2)]
 Deg. of freedom    39
                         Standard orientation:                         
 ---------------------------------------------------------------------
 Center     Atomic      Atomic             Coordinates (Angstroms)
 Number     Number       Type             X           Y           Z
 ---------------------------------------------------------------------
      1          1           0        4.246539   -0.152016   -0.056767
      2         16           0       -2.159573   -1.479830    0.312368
      3         16           0       -1.997138    1.566450   -0.348055
      4          5           0       -1.148123   -0.002728    0.007728
      5          7           0        2.494412   -1.146046   -0.487377
      6          6           0        3.162538   -0.081504   -0.032437
      7          6           0        2.538371    1.066134    0.450885
      8          1           0        3.129192    1.902145    0.806048
      9          6           0        1.150340    1.108537    0.466943
     10          1           0        0.639215    1.987940    0.843591
     11          6           0        0.411039    0.002686    0.013632
     12          6           0        1.162234   -1.091064   -0.455116
     13          1           0        0.655013   -1.968287   -0.848473
     14          1           0       -3.262323    1.170679   -0.120720
     15          1           0       -1.167645   -2.319160    0.656869
 ---------------------------------------------------------------------
 Rotational constants (GHZ):           2.0350623           0.7532323           0.5752354
 ======================================================================================================
                                       Pseudopotential Parameters
 ======================================================================================================
  Center     Atomic      Valence      Angular      Power
  Number     Number     Electrons     Momentum     of R      Exponent        Coefficient   SO-Coeffient
 ======================================================================================================
    1          1            1
                                      F and up 
                                                     0        0.0000010        0.00072061    0.00000000
                                                     2        0.1200000        0.03832357    0.00000000
                                                     2        0.1400000       -0.08683256    0.00000000
                                                     2        0.1800000        0.09312970    0.00000000
                                                     2        0.2800000       -0.02532572    0.00000000
                                                     2        0.4000000       -0.09430787    0.00000000
                                                     2        0.7000000        0.42710831    0.00000000
                                                     2        1.2000000       -2.11746981    0.00000000
                                      S - F
                                                     0        0.0000010        0.14449603    0.00000000
                                                     2        0.1200000       -0.56378993    0.00000000
                                                     2        0.1400000        0.63941249    0.00000000
                                                     2        0.2600000       -0.58461015    0.00000000
                                                     2        0.5000000        1.00157293    0.00000000
                                                     2        1.8000000       -0.14135838    0.00000000
                                      P - F
                                                     0        0.0000010       -0.09353646    0.00000000
                                                     2        0.1200000        0.31768975    0.00000000
                                                     2        0.2000000       -0.71747951    0.00000000
                                                     2        0.4000000        0.65752308    0.00000000
                                                     2        1.7000000        2.94052587    0.00000000
                                      D - F
                                                     0        0.0000010       -0.04491202    0.00000000
                                                     2        0.1200000       -0.02862031    0.00000000
                                                     2        0.1800000       -0.21515263    0.00000000
                                                     2        0.3000000        0.80560647    0.00000000
                                                     2        0.4000000        0.47351754    0.00000000
                                                     2        0.7000000       -4.57051794    0.00000000
                                                     2        1.6000000       18.53737826    0.00000000
    2         16           16
                                      G and up 
                                                     0        0.0000010       -0.00444167    0.00000000
                                                     2        0.1200000        0.11677988    0.00000000
                                                     2        0.1400000       -0.22050378    0.00000000
                                                     2        0.1800000        0.26452031    0.00000000
                                                     2        0.2800000       -0.04353316    0.00000000
                                                     2        0.5000000       -1.18567514    0.00000000
                                      S - G
                                                     0        0.0000010        0.03992419    0.00000000
                                                     2        0.1200000       -0.56926432    0.00000000
                                                     2        0.3000000        0.88393965    0.00000000
                                      P - G
                                                     0        0.0000010       -0.92181603    0.00000000
                                                     2        0.1200000        1.30681810    0.00000000
                                                     2        0.2000000       -1.50828653    0.00000000
                                                     2        0.2400000       -2.25148793    0.00000000
                                                     2        0.6000000       10.10218731    0.00000000
                                      D - G
                                                     0        0.0000010        0.72039481    0.00000000
                                                     2        0.1200000       -0.56105075    0.00000000
                                                     2        0.2000000        0.42910414    0.00000000
                                                     2        0.8000000        0.44203418    0.00000000
                                      F - G
                                                     2        0.1200000       -0.62623060    0.00000000
                                                     2        0.1800000        0.89777932    0.00000000
                                                     2        0.5000000       -1.32991832    0.00000000
    3         16           16
                                      G and up 
                                                     0        0.0000010       -0.00444167    0.00000000
                                                     2        0.1200000        0.11677988    0.00000000
                                                     2        0.1400000       -0.22050378    0.00000000
                                                     2        0.1800000        0.26452031    0.00000000
                                                     2        0.2800000       -0.04353316    0.00000000
                                                     2        0.5000000       -1.18567514    0.00000000
                                      S - G
                                                     0        0.0000010        0.03992419    0.00000000
                                                     2        0.1200000       -0.56926432    0.00000000
                                                     2        0.3000000        0.88393965    0.00000000
                                      P - G
                                                     0        0.0000010       -0.92181603    0.00000000
                                                     2        0.1200000        1.30681810    0.00000000
                                                     2        0.2000000       -1.50828653    0.00000000
                                                     2        0.2400000       -2.25148793    0.00000000
                                                     2        0.6000000       10.10218731    0.00000000
                                      D - G
                                                     0        0.0000010        0.72039481    0.00000000
                                                     2        0.1200000       -0.56105075    0.00000000
                                                     2        0.2000000        0.42910414    0.00000000
                                                     2        0.8000000        0.44203418    0.00000000
                                      F - G
                                                     2        0.1200000       -0.62623060    0.00000000
                                                     2        0.1800000        0.89777932    0.00000000
                                                     2        0.5000000       -1.32991832    0.00000000
    4          5            5
                                      G and up 
                                                     0        0.0000010        0.00322401    0.00000000
                                                     2        0.1200000        0.00498000    0.00000000
                                                     2        0.2000000        0.09485229    0.00000000
                                                     2        0.2400000        0.01359109    0.00000000
                                                     2        0.4000000       -0.77574495    0.00000000
                                                     2        0.7000000        4.88158264    0.00000000
                                                     2        3.0000000       -1.47570482    0.00000000
                                      S - G
                                                     0        0.0000010       -0.03355475    0.00000000
                                                     2        0.1200000        0.61074044    0.00000000
                                                     2        0.2000000       -2.07118504    0.00000000
                                      P - G
                                                     0        0.0000010       -1.02759347    0.00000000
                                                     2        0.1200000        0.64674346    0.00000000
                                                     2        0.2000000       -0.92012472    0.00000000
                                      D - G
                                                     0        0.0000010        1.26102689    0.00000000
                                                     2        0.1200000       -0.86577517    0.00000000
                                                     2        0.4000000        3.34267170    0.00000000
                                                     2        0.9000000      -12.60945446    0.00000000
                                      F - G
                                                     0        0.0000010       -0.36092963    0.00000000
                                                     2        0.1200000       -0.17118798    0.00000000
                                                     2        0.1600000        0.78727920    0.00000000
                                                     2        0.8000000       -6.62088660    0.00000000
                                                     2        1.0000000      -57.27416670    0.00000000
    5          7            7
                                      G and up 
                                                     0        0.0000010        0.00420138    0.00000000
                                                     2        0.1200000        0.05872431    0.00000000
                                                     2        0.1400000       -0.08436978    0.00000000
                                                     2        0.2000000        0.05409159    0.00000000
                                                     2        0.2600000        0.14199713    0.00000000
                                                     2        0.6000000       -0.79062770    0.00000000
                                                     2        0.7000000       -0.14441060    0.00000000
                                                     2        1.5000000        0.73772979    0.00000000
                                      S - G
                                                     0        0.0000010       -0.03094411    0.00000000
                                                     2        0.1200000        0.65332522    0.00000000
                                                     2        0.1800000       -1.38149133    0.00000000
                                                     2        1.3000000        3.29267299    0.00000000
                                      P - G
                                                     0        0.0000010        0.07303105    0.00000000
                                                     2        0.1200000        0.23145115    0.00000000
                                                     2        0.2000000       -1.20679699    0.00000000
                                                     2        0.4000000        1.75088447    0.00000000
                                                     2        1.2000000       -0.67486559    0.00000000
                                      D - G
                                                     0        0.0000010        0.07560739    0.00000000
                                                     2        0.3000000       -0.68679114    0.00000000
                                                     2        0.9000000        3.60133241    0.00000000
                                      F - G
                                                     0        0.0000010       -0.18221184    0.00000000
                                                     2        0.1200000       -0.39369067    0.00000000
                                                     2        0.1800000        0.72091725    0.00000000
                                                     2        0.6000000        0.15946111    0.00000000
    6          6            6
                                      G and up 
                                                     0        0.0000010       -0.00286759    0.00000000
                                                     2        0.1200000        0.03193960    0.00000000
                                                     2        0.1600000       -0.04027782    0.00000000
                                                     2        0.2600000        0.24782456    0.00000000
                                                     2        0.4000000       -0.62266671    0.00000000
                                                     2        0.7000000        0.35695227    0.00000000
                                      S - G
                                                     0        0.0000010       -0.06602313    0.00000000
                                                     2        0.1200000        1.47277455    0.00000000
                                                     2        0.1600000       -4.06924166    0.00000000
                                                     2        0.3000000        5.02952802    0.00000000
                                                     2        0.7000000       -5.65856978    0.00000000
                                                     2        1.7000000        8.57604414    0.00000000
                                      P - G
                                                     0        0.0000010        0.49434425    0.00000000
                                                     2        0.1200000       -1.37391547    0.00000000
                                                     2        0.1600000        3.65411806    0.00000000
                                                     2        0.2800000       -7.36479843    0.00000000
                                                     2        0.6000000       17.22091285    0.00000000
                                                     2        1.1000000      -23.50107827    0.00000000
                                                     2        3.0000000       16.29464063    0.00000000
                                      D - G
                                                     0        0.0000010       -0.28693103    0.00000000
                                                     2        0.1200000        0.12273044    0.00000000
                                                     2        0.3000000       -0.43416384    0.00000000
                                                     2        0.7000000        2.23358493    0.00000000
                                      F - G
                                                     0        0.0000010        0.07263570    0.00000000
                                                     2        0.1400000       -0.76152861    0.00000000
                                                     2        0.2200000        1.98045593    0.00000000
                                                     2        0.4000000       -2.42426427    0.00000000
                                                     2        0.7000000        0.52335237    0.00000000
    7          6            6
                                      G and up 
                                                     0        0.0000010       -0.00286759    0.00000000
                                                     2        0.1200000        0.03193960    0.00000000
                                                     2        0.1600000       -0.04027782    0.00000000
                                                     2        0.2600000        0.24782456    0.00000000
                                                     2        0.4000000       -0.62266671    0.00000000
                                                     2        0.7000000        0.35695227    0.00000000
                                      S - G
                                                     0        0.0000010       -0.06602313    0.00000000
                                                     2        0.1200000        1.47277455    0.00000000
                                                     2        0.1600000       -4.06924166    0.00000000
                                                     2        0.3000000        5.02952802    0.00000000
                                                     2        0.7000000       -5.65856978    0.00000000
                                                     2        1.7000000        8.57604414    0.00000000
                                      P - G
                                                     0        0.0000010        0.49434425    0.00000000
                                                     2        0.1200000       -1.37391547    0.00000000
                                                     2        0.1600000        3.65411806    0.00000000
                                                     2        0.2800000       -7.36479843    0.00000000
                                                     2        0.6000000       17.22091285    0.00000000
                                                     2        1.1000000      -23.50107827    0.00000000
                                                     2        3.0000000       16.29464063    0.00000000
                                      D - G
                                                     0        0.0000010       -0.28693103    0.00000000
                                                     2        0.1200000        0.12273044    0.00000000
                                                     2        0.3000000       -0.43416384    0.00000000
                                                     2        0.7000000        2.23358493    0.00000000
                                      F - G
                                                     0        0.0000010        0.07263570    0.00000000
                                                     2        0.1400000       -0.76152861    0.00000000
                                                     2        0.2200000        1.98045593    0.00000000
                                                     2        0.4000000       -2.42426427    0.00000000
                                                     2        0.7000000        0.52335237    0.00000000
    8          1            1
                                      F and up 
                                                     0        0.0000010        0.00072061    0.00000000
                                                     2        0.1200000        0.03832357    0.00000000
                                                     2        0.1400000       -0.08683256    0.00000000
                                                     2        0.1800000        0.09312970    0.00000000
                                                     2        0.2800000       -0.02532572    0.00000000
                                                     2        0.4000000       -0.09430787    0.00000000
                                                     2        0.7000000        0.42710831    0.00000000
                                                     2        1.2000000       -2.11746981    0.00000000
                                      S - F
                                                     0        0.0000010        0.14449603    0.00000000
                                                     2        0.1200000       -0.56378993    0.00000000
                                                     2        0.1400000        0.63941249    0.00000000
                                                     2        0.2600000       -0.58461015    0.00000000
                                                     2        0.5000000        1.00157293    0.00000000
                                                     2        1.8000000       -0.14135838    0.00000000
                                      P - F
                                                     0        0.0000010       -0.09353646    0.00000000
                                                     2        0.1200000        0.31768975    0.00000000
                                                     2        0.2000000       -0.71747951    0.00000000
                                                     2        0.4000000        0.65752308    0.00000000
                                                     2        1.7000000        2.94052587    0.00000000
                                      D - F
                                                     0        0.0000010       -0.04491202    0.00000000
                                                     2        0.1200000       -0.02862031    0.00000000
                                                     2        0.1800000       -0.21515263    0.00000000
                                                     2        0.3000000        0.80560647    0.00000000
                                                     2        0.4000000        0.47351754    0.00000000
                                                     2        0.7000000       -4.57051794    0.00000000
                                                     2        1.6000000       18.53737826    0.00000000
    9          6            6
                                      G and up 
                                                     0        0.0000010       -0.00286759    0.00000000
                                                     2        0.1200000        0.03193960    0.00000000
                                                     2        0.1600000       -0.04027782    0.00000000
                                                     2        0.2600000        0.24782456    0.00000000
                                                     2        0.4000000       -0.62266671    0.00000000
                                                     2        0.7000000        0.35695227    0.00000000
                                      S - G
                                                     0        0.0000010       -0.06602313    0.00000000
                                                     2        0.1200000        1.47277455    0.00000000
                                                     2        0.1600000       -4.06924166    0.00000000
                                                     2        0.3000000        5.02952802    0.00000000
                                                     2        0.7000000       -5.65856978    0.00000000
                                                     2        1.7000000        8.57604414    0.00000000
                                      P - G
                                                     0        0.0000010        0.49434425    0.00000000
                                                     2        0.1200000       -1.37391547    0.00000000
                                                     2        0.1600000        3.65411806    0.00000000
                                                     2        0.2800000       -7.36479843    0.00000000
                                                     2        0.6000000       17.22091285    0.00000000
                                                     2        1.1000000      -23.50107827    0.00000000
                                                     2        3.0000000       16.29464063    0.00000000
                                      D - G
                                                     0        0.0000010       -0.28693103    0.00000000
                                                     2        0.1200000        0.12273044    0.00000000
                                                     2        0.3000000       -0.43416384    0.00000000
                                                     2        0.7000000        2.23358493    0.00000000
                                      F - G
                                                     0        0.0000010        0.07263570    0.00000000
                                                     2        0.1400000       -0.76152861    0.00000000
                                                     2        0.2200000        1.98045593    0.00000000
                                                     2        0.4000000       -2.42426427    0.00000000
                                                     2        0.7000000        0.52335237    0.00000000
   10          1            1
                                      F and up 
                                                     0        0.0000010        0.00072061    0.00000000
                                                     2        0.1200000        0.03832357    0.00000000
                                                     2        0.1400000       -0.08683256    0.00000000
                                                     2        0.1800000        0.09312970    0.00000000
                                                     2        0.2800000       -0.02532572    0.00000000
                                                     2        0.4000000       -0.09430787    0.00000000
                                                     2        0.7000000        0.42710831    0.00000000
                                                     2        1.2000000       -2.11746981    0.00000000
                                      S - F
                                                     0        0.0000010        0.14449603    0.00000000
                                                     2        0.1200000       -0.56378993    0.00000000
                                                     2        0.1400000        0.63941249    0.00000000
                                                     2        0.2600000       -0.58461015    0.00000000
                                                     2        0.5000000        1.00157293    0.00000000
                                                     2        1.8000000       -0.14135838    0.00000000
                                      P - F
                                                     0        0.0000010       -0.09353646    0.00000000
                                                     2        0.1200000        0.31768975    0.00000000
                                                     2        0.2000000       -0.71747951    0.00000000
                                                     2        0.4000000        0.65752308    0.00000000
                                                     2        1.7000000        2.94052587    0.00000000
                                      D - F
                                                     0        0.0000010       -0.04491202    0.00000000
                                                     2        0.1200000       -0.02862031    0.00000000
                                                     2        0.1800000       -0.21515263    0.00000000
                                                     2        0.3000000        0.80560647    0.00000000
                                                     2        0.4000000        0.47351754    0.00000000
                                                     2        0.7000000       -4.57051794    0.00000000
                                                     2        1.6000000       18.53737826    0.00000000
   11          6            6
                                      G and up 
                                                     0        0.0000010       -0.00286759    0.00000000
                                                     2        0.1200000        0.03193960    0.00000000
                                                     2        0.1600000       -0.04027782    0.00000000
                                                     2        0.2600000        0.24782456    0.00000000
                                                     2        0.4000000       -0.62266671    0.00000000
                                                     2        0.7000000        0.35695227    0.00000000
                                      S - G
                                                     0        0.0000010       -0.06602313    0.00000000
                                                     2        0.1200000        1.47277455    0.00000000
                                                     2        0.1600000       -4.06924166    0.00000000
                                                     2        0.3000000        5.02952802    0.00000000
                                                     2        0.7000000       -5.65856978    0.00000000
                                                     2        1.7000000        8.57604414    0.00000000
                                      P - G
                                                     0        0.0000010        0.49434425    0.00000000
                                                     2        0.1200000       -1.37391547    0.00000000
                                                     2        0.1600000        3.65411806    0.00000000
                                                     2        0.2800000       -7.36479843    0.00000000
                                                     2        0.6000000       17.22091285    0.00000000
                                                     2        1.1000000      -23.50107827    0.00000000
                                                     2        3.0000000       16.29464063    0.00000000
                                      D - G
                                                     0        0.0000010       -0.28693103    0.00000000
                                                     2        0.1200000        0.12273044    0.00000000
                                                     2        0.3000000       -0.43416384    0.00000000
                                                     2        0.7000000        2.23358493    0.00000000
                                      F - G
                                                     0        0.0000010        0.07263570    0.00000000
                                                     2        0.1400000       -0.76152861    0.00000000
                                                     2        0.2200000        1.98045593    0.00000000
                                                     2        0.4000000       -2.42426427    0.00000000
                                                     2        0.7000000        0.52335237    0.00000000
   12          6            6
                                      G and up 
                                                     0        0.0000010       -0.00286759    0.00000000
                                                     2        0.1200000        0.03193960    0.00000000
                                                     2        0.1600000       -0.04027782    0.00000000
                                                     2        0.2600000        0.24782456    0.00000000
                                                     2        0.4000000       -0.62266671    0.00000000
                                                     2        0.7000000        0.35695227    0.00000000
                                      S - G
                                                     0        0.0000010       -0.06602313    0.00000000
                                                     2        0.1200000        1.47277455    0.00000000
                                                     2        0.1600000       -4.06924166    0.00000000
                                                     2        0.3000000        5.02952802    0.00000000
                                                     2        0.7000000       -5.65856978    0.00000000
                                                     2        1.7000000        8.57604414    0.00000000
                                      P - G
                                                     0        0.0000010        0.49434425    0.00000000
                                                     2        0.1200000       -1.37391547    0.00000000
                                                     2        0.1600000        3.65411806    0.00000000
                                                     2        0.2800000       -7.36479843    0.00000000
                                                     2        0.6000000       17.22091285    0.00000000
                                                     2        1.1000000      -23.50107827    0.00000000
                                                     2        3.0000000       16.29464063    0.00000000
                                      D - G
                                                     0        0.0000010       -0.28693103    0.00000000
                                                     2        0.1200000        0.12273044    0.00000000
                                                     2        0.3000000       -0.43416384    0.00000000
                                                     2        0.7000000        2.23358493    0.00000000
                                      F - G
                                                     0        0.0000010        0.07263570    0.00000000
                                                     2        0.1400000       -0.76152861    0.00000000
                                                     2        0.2200000        1.98045593    0.00000000
                                                     2        0.4000000       -2.42426427    0.00000000
                                                     2        0.7000000        0.52335237    0.00000000
   13          1            1
                                      F and up 
                                                     0        0.0000010        0.00072061    0.00000000
                                                     2        0.1200000        0.03832357    0.00000000
                                                     2        0.1400000       -0.08683256    0.00000000
                                                     2        0.1800000        0.09312970    0.00000000
                                                     2        0.2800000       -0.02532572    0.00000000
                                                     2        0.4000000       -0.09430787    0.00000000
                                                     2        0.7000000        0.42710831    0.00000000
                                                     2        1.2000000       -2.11746981    0.00000000
                                      S - F
                                                     0        0.0000010        0.14449603    0.00000000
                                                     2        0.1200000       -0.56378993    0.00000000
                                                     2        0.1400000        0.63941249    0.00000000
                                                     2        0.2600000       -0.58461015    0.00000000
                                                     2        0.5000000        1.00157293    0.00000000
                                                     2        1.8000000       -0.14135838    0.00000000
                                      P - F
                                                     0        0.0000010       -0.09353646    0.00000000
                                                     2        0.1200000        0.31768975    0.00000000
                                                     2        0.2000000       -0.71747951    0.00000000
                                                     2        0.4000000        0.65752308    0.00000000
                                                     2        1.7000000        2.94052587    0.00000000
                                      D - F
                                                     0        0.0000010       -0.04491202    0.00000000
                                                     2        0.1200000       -0.02862031    0.00000000
                                                     2        0.1800000       -0.21515263    0.00000000
                                                     2        0.3000000        0.80560647    0.00000000
                                                     2        0.4000000        0.47351754    0.00000000
                                                     2        0.7000000       -4.57051794    0.00000000
                                                     2        1.6000000       18.53737826    0.00000000
   14          1            1
                                      F and up 
                                                     0        0.0000010        0.00072061    0.00000000
                                                     2        0.1200000        0.03832357    0.00000000
                                                     2        0.1400000       -0.08683256    0.00000000
                                                     2        0.1800000        0.09312970    0.00000000
                                                     2        0.2800000       -0.02532572    0.00000000
                                                     2        0.4000000       -0.09430787    0.00000000
                                                     2        0.7000000        0.42710831    0.00000000
                                                     2        1.2000000       -2.11746981    0.00000000
                                      S - F
                                                     0        0.0000010        0.14449603    0.00000000
                                                     2        0.1200000       -0.56378993    0.00000000
                                                     2        0.1400000        0.63941249    0.00000000
                                                     2        0.2600000       -0.58461015    0.00000000
                                                     2        0.5000000        1.00157293    0.00000000
                                                     2        1.8000000       -0.14135838    0.00000000
                                      P - F
                                                     0        0.0000010       -0.09353646    0.00000000
                                                     2        0.1200000        0.31768975    0.00000000
                                                     2        0.2000000       -0.71747951    0.00000000
                                                     2        0.4000000        0.65752308    0.00000000
                                                     2        1.7000000        2.94052587    0.00000000
                                      D - F
                                                     0        0.0000010       -0.04491202    0.00000000
                                                     2        0.1200000       -0.02862031    0.00000000
                                                     2        0.1800000       -0.21515263    0.00000000
                                                     2        0.3000000        0.80560647    0.00000000
                                                     2        0.4000000        0.47351754    0.00000000
                                                     2        0.7000000       -4.57051794    0.00000000
                                                     2        1.6000000       18.53737826    0.00000000
   15          1            1
                                      F and up 
                                                     0        0.0000010        0.00072061    0.00000000
                                                     2        0.1200000        0.03832357    0.00000000
                                                     2        0.1400000       -0.08683256    0.00000000
                                                     2        0.1800000        0.09312970    0.00000000
                                                     2        0.2800000       -0.02532572    0.00000000
                                                     2        0.4000000       -0.09430787    0.00000000
                                                     2        0.7000000        0.42710831    0.00000000
                                                     2        1.2000000       -2.11746981    0.00000000
                                      S - F
                                                     0        0.0000010        0.14449603    0.00000000
                                                     2        0.1200000       -0.56378993    0.00000000
                                                     2        0.1400000        0.63941249    0.00000000
                                                     2        0.2600000       -0.58461015    0.00000000
                                                     2        0.5000000        1.00157293    0.00000000
                                                     2        1.8000000       -0.14135838    0.00000000
                                      P - F
                                                     0        0.0000010       -0.09353646    0.00000000
                                                     2        0.1200000        0.31768975    0.00000000
                                                     2        0.2000000       -0.71747951    0.00000000
                                                     2        0.4000000        0.65752308    0.00000000
                                                     2        1.7000000        2.94052587    0.00000000
                                      D - F
                                                     0        0.0000010       -0.04491202    0.00000000
                                                     2        0.1200000       -0.02862031    0.00000000
                                                     2        0.1800000       -0.21515263    0.00000000
                                                     2        0.3000000        0.80560647    0.00000000
                                                     2        0.4000000        0.47351754    0.00000000
                                                     2        0.7000000       -4.57051794    0.00000000
                                                     2        1.6000000       18.53737826    0.00000000
 ======================================================================================================
   269 basis functions,   529 primitive gaussians,   287 cartesian basis functions
    40 alpha electrons       40 beta electrons
       nuclear repulsion energy       521.2947959425 Hartrees.
 NAtoms=   15 NActive=   15 NUniq=   15 SFac= 1.00D+00 NAtFMM=   60 NAOKFM=F Big=F
   1 Symmetry operations used in ECPInt.
 ECPInt:  NShTT=    6670 NPrTT=   42482 LenC2=    6611 LenP2D=   28674.
 LDataN:  DoStor=T MaxTD1= 6 Len=  172
 Initial guess from the checkpoint file:  "BDE49_nonexpt_864_mol1.chk"
 B after Tr=    -0.000000    0.000000    0.000000
         Rot=    1.000000   -0.000000   -0.000000    0.000000 Ang=   0.00 deg.
 >>>>>>>>>> Convergence criterion not met.
 SCF Done:  E(RHF) =  -1068.85189973     A.U. after    2 cycles
            NFock=  1  Conv=0.14D+01     -V/T= 1.9891

 **********************************************************************

            Population analysis using the SCF Density.

 **********************************************************************

 Orbital symmetries:
       Occupied  (A) (A) (A) (A) (A) (A) (A) (A) (A) (A) (A) (A)
                 (A) (A) (A) (A) (A) (A) (A) (A) (A) (A) (A) (A)
                 (A) (A) (A) (A) (A) (A) (A) (A) (A) (A) (A) (A)
                 (A) (A) (A) (A)
       Virtual   (A) (A) (A) (A) (A) (A) (A) (A) (A) (A) (A) (A)
                 (A) (A) (A) (A) (A) (A) (A) (A) (A) (A) (A) (A)
                 (A) (A) (A) (A) (A) (A) (A) (A) (A) (A) (A) (A)
                 (A) (A) (A) (A) (A) (A) (A) (A) (A) (A) (A) (A)
                 (A) (A) (A) (A) (A) (A) (A) (A) (A) (A) (A) (A)
                 (A) (A) (A) (A) (A) (A) (A) (A) (A) (A) (A) (A)
                 (A) (A) (A) (A) (A) (A) (A) (A) (A) (A) (A) (A)
                 (A) (A) (A) (A) (A) (A) (A) (A) (A) (A) (A) (A)
                 (A) (A) (A) (A) (A) (A) (A) (A) (A) (A) (A) (A)
                 (A) (A) (A) (A) (A) (A) (A) (A) (A) (A) (A) (A)
                 (A) (A) (A) (A) (A) (A) (A) (A) (A) (A) (A) (A)
                 (A) (A) (A) (A) (A) (A) (A) (A) (A) (A) (A) (A)
                 (A) (A) (A) (A) (A) (A) (A) (A) (A) (A) (A) (A)
                 (A) (A) (A) (A) (A) (A) (A) (A) (A) (A) (A) (A)
                 (A) (A) (A) (A) (A) (A) (A) (A) (A) (A) (A) (A)
                 (A) (A) (A) (A) (A) (A) (A) (A) (A) (A) (A) (A)
                 (A) (A) (A) (A) (A) (A) (A) (A) (A) (A) (A) (A)
                 (A) (A) (A) (A) (A) (A) (A) (A) (A) (A) (A) (A)
                 (A) (A) (A) (A) (A) (A) (A) (A) (A) (A) (A) (A)
                 (A)
 The electronic state is 1-A.
 Alpha  occ. eigenvalues --  -75.70056 -75.69892 -15.74648 -13.17901 -13.17199
 Alpha  occ. eigenvalues --  -13.11869 -13.10147 -13.06333 -13.04277 -11.48865
 Alpha  occ. eigenvalues --  -11.45906 -11.44723 -11.41798 -11.38325  -8.04179
 Alpha  occ. eigenvalues --   -8.03680  -7.68971  -1.45893  -1.24469  -1.17738
 Alpha  occ. eigenvalues --   -1.11762  -1.10307  -0.90683  -0.89850  -0.75416
 Alpha  occ. eigenvalues --   -0.70535  -0.62207  -0.61848  -0.57864  -0.55990
 Alpha  occ. eigenvalues --   -0.55273  -0.51344  -0.47945  -0.40575  -0.38973
 Alpha  occ. eigenvalues --   -0.36633  -0.35624  -0.34392  -0.31259  -0.25716
 Alpha virt. eigenvalues --    0.02226   0.02950   0.03368   0.03934   0.05577
 Alpha virt. eigenvalues --    0.05936   0.07297   0.07823   0.08380   0.09151
 Alpha virt. eigenvalues --    0.09676   0.10322   0.11689   0.12319   0.12546
 Alpha virt. eigenvalues --    0.12716   0.13452   0.14226   0.14596   0.14717
 Alpha virt. eigenvalues --    0.15178   0.15754   0.15986   0.16543   0.16681
 Alpha virt. eigenvalues --    0.17049   0.17997   0.18534   0.19340   0.19643
 Alpha virt. eigenvalues --    0.20145   0.21043   0.21307   0.22028   0.23095
 Alpha virt. eigenvalues --    0.23287   0.23827   0.24734   0.25327   0.26373
 Alpha virt. eigenvalues --    0.26811   0.29112   0.29594   0.30410   0.31000
 Alpha virt. eigenvalues --    0.31983   0.32506   0.33312   0.34187   0.34880
 Alpha virt. eigenvalues --    0.35810   0.36125   0.37190   0.37961   0.38404
 Alpha virt. eigenvalues --    0.38909   0.40082   0.40340   0.41297   0.41719
 Alpha virt. eigenvalues --    0.42585   0.44147   0.44681   0.45121   0.47683
 Alpha virt. eigenvalues --    0.47907   0.49375   0.49763   0.51306   0.51781
 Alpha virt. eigenvalues --    0.52279   0.53173   0.53983   0.54492   0.55385
 Alpha virt. eigenvalues --    0.56068   0.57209   0.58225   0.58502   0.59123
 Alpha virt. eigenvalues --    0.59671   0.61402   0.61818   0.63091   0.63431
 Alpha virt. eigenvalues --    0.63715   0.64135   0.65040   0.65934   0.66416
 Alpha virt. eigenvalues --    0.66876   0.68029   0.68750   0.69701   0.69991
 Alpha virt. eigenvalues --    0.71600   0.72131   0.73334   0.74771   0.75655
 Alpha virt. eigenvalues --    0.76650   0.77612   0.78471   0.79304   0.80031
 Alpha virt. eigenvalues --    0.82069   0.83467   0.84343   0.86928   0.90313
 Alpha virt. eigenvalues --    0.90469   0.90758   0.91933   0.93531   0.94290
 Alpha virt. eigenvalues --    0.95247   0.96707   0.99009   1.00059   1.02337
 Alpha virt. eigenvalues --    1.04563   1.05720   1.06514   1.07426   1.10639
 Alpha virt. eigenvalues --    1.11068   1.11952   1.14418   1.16490   1.17472
 Alpha virt. eigenvalues --    1.19824   1.20726   1.21255   1.21915   1.22878
 Alpha virt. eigenvalues --    1.23494   1.26672   1.29325   1.29383   1.31262
 Alpha virt. eigenvalues --    1.33535   1.34393   1.37540   1.39120   1.40377
 Alpha virt. eigenvalues --    1.41810   1.43249   1.44800   1.46643   1.49273
 Alpha virt. eigenvalues --    1.50447   1.51380   1.53702   1.54864   1.56896
 Alpha virt. eigenvalues --    1.59142   1.64156   1.66838   1.69188   1.72539
 Alpha virt. eigenvalues --    1.74556   1.76217   1.77131   1.78625   1.80277
 Alpha virt. eigenvalues --    1.83431   1.84226   1.85484   1.86249   1.88448
 Alpha virt. eigenvalues --    1.88887   1.90823   1.91961   1.93074   1.94816
 Alpha virt. eigenvalues --    1.96754   1.98714   1.99845   2.01632   2.04229
 Alpha virt. eigenvalues --    2.05063   2.07693   2.09000   2.10914   2.13730
 Alpha virt. eigenvalues --    2.15314   2.16703   2.19493   2.24298   2.24626
 Alpha virt. eigenvalues --    2.25046   2.28873   2.33867   2.35078   2.38695
 Alpha virt. eigenvalues --    2.40203   2.41458   2.43002   2.47134   2.49367
 Alpha virt. eigenvalues --    2.53150   2.56195   2.57687   2.61202   2.61816
 Alpha virt. eigenvalues --    2.62746   2.71483   2.72793   2.75394   2.91764
 Alpha virt. eigenvalues --    2.92732   2.96464   3.04684   3.09092   3.14475
 Alpha virt. eigenvalues --    3.15433   3.21956   3.33866   3.36782   3.38058
 Alpha virt. eigenvalues --    3.47098   3.56632   3.61330   3.77351   3.88855
 Alpha virt. eigenvalues --    3.94908   3.97748   4.05930   4.60774
          Condensed to atoms (all electrons):
 Mulliken charges:
               1
     1  H    1.525888
     2  S   -2.989561
     3  S   -2.923626
     4  B    3.648252
     5  N   -3.466217
     6  C   -1.216149
     7  C   -0.821470
     8  H    1.426235
     9  C    0.120053
    10  H    1.836355
    11  C    0.572547
    12  C   -1.020363
    13  H    1.575822
    14  H    0.822312
    15  H    0.909923
 Sum of Mulliken charges =  -0.00000
 Mulliken charges with hydrogens summed into heavy atoms:
               1
     2  S   -2.079638
     3  S   -2.101314
     4  B    3.648252
     5  N   -3.466217
     6  C    0.309739
     7  C    0.604765
     9  C    1.956408
    11  C    0.572547
    12  C    0.555459
 Electronic spatial extent (au):  <R**2>=           1896.0359
 Charge=              0.0000 electrons
 Dipole moment (field-independent basis, Debye):
    X=             -1.1865    Y=              2.5692    Z=              0.1983  Tot=              2.8369

 Test job not archived.
 1\1\GINC-SE332\SP\RHF\Aug-CC-pVDZ\C5H6B1N1S2\OHZDE\09-Apr-2025\0\\#t h
 f aug-cc-pvdz iop(5/13=1,5/36=2,99/5=2) pseudo=read geom=check guess=(
 read,tcheck) scf=(maxcycle=1)\\title\\0,1\H,0,4.246539,-0.152016,-0.05
 6767\S,0,-2.159573,-1.47983,0.312368\S,0,-1.997138,1.56645,-0.348055\B
 ,0,-1.148123,-0.002728,0.007728\N,0,2.494412,-1.146046,-0.487377\C,0,3
 .162538,-0.081504,-0.032437\C,0,2.538371,1.066134,0.450885\H,0,3.12919
 2,1.902145,0.806048\C,0,1.15034,1.108537,0.466943\H,0,0.639215,1.98794
 ,0.843591\C,0,0.411039,0.002686,0.013632\C,0,1.162234,-1.091064,-0.455
 116\H,0,0.655013,-1.968287,-0.848473\H,0,-3.262323,1.170679,-0.12072\H
 ,0,-1.167645,-2.31916,0.656869\\Version=ES64L-G16RevC.01\State=1-A\HF=
 -1068.8518997\RMSD=1.374e+00\Dipole=-0.4668098,1.0107889,0.0780087\Qua
 drupole=3.4630496,1.3819254,-4.844975,3.4862221,2.0839061,-0.592993\PG
 =C01 [X(C5H6B1N1S2)]\\@


 Standing in the middle of the road is very dangerous;
 you get knocked down by the traffic from both sides.
                                -- Margaret Thatcher
 Job cpu time:       0 days  0 hours  1 minutes 22.8 seconds.
 Elapsed time:       0 days  0 hours  0 minutes  6.1 seconds.
 File lengths (MBytes):  RWF=     14 Int=      0 D2E=      0 Chk=     11 Scr=      1
 Normal termination of Gaussian 16 at Wed Apr  9 00:49:52 2025.
