 Entering Gaussian System, Link 0=g16
 Input=BDE49_nonexpt_2098_mol1.gjf
 Output=BDE49_nonexpt_2098_mol1.log
 Initial command:
 /arc/software/Gaussian/g16.c01/l1.exe "/tmp/slurm/4850519/Gau-3265106.inp" -scrdir="/tmp/slurm/4850519/"
 Entering Link 1 = /arc/software/Gaussian/g16.c01/l1.exe PID=   3265107.
  
 Copyright (c) 1988-2019, Gaussian, Inc.  All Rights Reserved.
  
 This is part of the Gaussian(R) 16 program.  It is based on
 the Gaussian(R) 09 system (copyright 2009, Gaussian, Inc.),
 the Gaussian(R) 03 system (copyright 2003, Gaussian, Inc.),
 the Gaussian(R) 98 system (copyright 1998, Gaussian, Inc.),
 the Gaussian(R) 94 system (copyright 1995, Gaussian, Inc.),
 the Gaussian 92(TM) system (copyright 1992, Gaussian, Inc.),
 the Gaussian 90(TM) system (copyright 1990, Gaussian, Inc.),
 the Gaussian 88(TM) system (copyright 1988, Gaussian, Inc.),
 the Gaussian 86(TM) system (copyright 1986, Carnegie Mellon
 University), and the Gaussian 82(TM) system (copyright 1983,
 Carnegie Mellon University). Gaussian is a federally registered
 trademark of Gaussian, Inc.
  
 This software contains proprietary and confidential information,
 including trade secrets, belonging to Gaussian, Inc.
  
 This software is provided under written license and may be
 used, copied, transmitted, or stored only in accord with that
 written license.
  
 The following legend is applicable only to US Government
 contracts under FAR:
  
                    RESTRICTED RIGHTS LEGEND
  
 Use, reproduction and disclosure by the US Government is
 subject to restrictions as set forth in subparagraphs (a)
 and (c) of the Commercial Computer Software - Restricted
 Rights clause in FAR 52.227-19.
  
 Gaussian, Inc.
 340 Quinnipiac St., Bldg. 40, Wallingford CT 06492
  
  
 ---------------------------------------------------------------
 Warning -- This program may not be used in any manner that
 competes with the business of Gaussian, Inc. or will provide
 assistance to any competitor of Gaussian, Inc.  The licensee
 of this program is prohibited from giving any competitor of
 Gaussian, Inc. access to this program.  By using this program,
 the user acknowledges that Gaussian, Inc. is engaged in the
 business of creating and licensing software in the field of
 computational chemistry and represents and warrants to the
 licensee that it is not a competitor of Gaussian, Inc. and that
 it will not use this program in any manner prohibited above.
 ---------------------------------------------------------------
  

 Cite this work as:
 Gaussian 16, Revision C.01,
 M. J. Frisch, G. W. Trucks, H. B. Schlegel, G. E. Scuseria, 
 M. A. Robb, J. R. Cheeseman, G. Scalmani, V. Barone, 
 G. A. Petersson, H. Nakatsuji, X. Li, M. Caricato, A. V. Marenich, 
 J. Bloino, B. G. Janesko, R. Gomperts, B. Mennucci, H. P. Hratchian, 
 J. V. Ortiz, A. F. Izmaylov, J. L. Sonnenberg, D. Williams-Young, 
 F. Ding, F. Lipparini, F. Egidi, J. Goings, B. Peng, A. Petrone, 
 T. Henderson, D. Ranasinghe, V. G. Zakrzewski, J. Gao, N. Rega, 
 G. Zheng, W. Liang, M. Hada, M. Ehara, K. Toyota, R. Fukuda, 
 J. Hasegawa, M. Ishida, T. Nakajima, Y. Honda, O. Kitao, H. Nakai, 
 T. Vreven, K. Throssell, J. A. Montgomery, Jr., J. E. Peralta, 
 F. Ogliaro, M. J. Bearpark, J. J. Heyd, E. N. Brothers, K. N. Kudin, 
 V. N. Staroverov, T. A. Keith, R. Kobayashi, J. Normand, 
 K. Raghavachari, A. P. Rendell, J. C. Burant, S. S. Iyengar, 
 J. Tomasi, M. Cossi, J. M. Millam, M. Klene, C. Adamo, R. Cammi, 
 J. W. Ochterski, R. L. Martin, K. Morokuma, O. Farkas, 
 J. B. Foresman, and D. J. Fox, Gaussian, Inc., Wallingford CT, 2019.
 
 ******************************************
 Gaussian 16:  ES64L-G16RevC.01  3-Jul-2019
                 9-Apr-2025 
 ******************************************
 %nprocs=16
 Will use up to   16 processors via shared memory.
 %mem=30GB
 %chk=BDE49_nonexpt_2098_mol1.chk
 ----------------------------------------------------------------------
 #t hf aug-cc-pvdz symm=none int=(grid=ultrafine) guess=(read,tcheck) s
 table=(opt,rrhf)
 ----------------------------------------------------------------------
 -----
 title
 -----
 Symbolic Z-matrix:
 Charge =  0 Multiplicity = 1
 N                     2.1304    0.98967  -0.17934 
 Si                    1.35509  -0.51624   0.15189 
 H                     2.30653   1.29959  -1.12347 
 H                     2.03496   1.77111   0.45139 
 C                    -2.8639    0.2249   -0.09843 
 C                    -0.46173  -0.65497  -0.33969 
 C                    -1.40035   0.36017   0.33559 
 H                    -0.78868  -1.67884  -0.1091 
 H                    -0.53554  -0.5603   -1.43176 
 H                    -1.05272   1.37688   0.11708 
 H                    -1.33586   0.24724   1.42452 
 H                    -3.25417  -0.76952   0.13935 
 H                    -2.96861   0.37058  -1.17814 
 H                    -3.50011   0.96162   0.40116 
 H                     1.4665   -0.71766   1.61828 
 H                     2.09957  -1.5816   -0.56532 
 
                    Distance matrix (angstroms):
                    1          2          3          4          5
     1  N    0.000000
     2  Si   1.725862   0.000000
     3  H    1.009183   2.414335   0.000000
     4  H    1.008748   2.404973   1.666213   0.000000
     5  C    5.053169   4.290902   5.379500   5.166422   0.000000
     6  C    3.074044   1.887256   3.478203   3.570036   2.569593
     7  C    3.623213   2.897292   4.092961   3.715581   1.532529
     8  H    3.955620   2.452649   4.413647   4.493245   2.816191
     9  H    3.328397   2.466652   3.410508   3.948316   2.795642
    10  H    3.220262   3.063114   3.581831   3.130648   2.157284
    11  H    3.890830   3.073059   4.568008   3.825127   2.157500
    12  H    5.673619   4.616229   6.066077   5.875973   1.094406
    13  H    5.232672   4.609753   5.356600   5.445420   1.094514
    14  H    5.660429   5.081254   6.012968   5.594176   1.094120
    15  H    2.566545   1.484338   3.506006   2.806908   4.752674
    16  H    2.600260   1.484462   2.942036   3.504070   5.302593
                    6          7          8          9         10
     6  C    0.000000
     7  C    1.538675   0.000000
     8  H    1.099259   2.174736   0.000000
     9  H    1.098655   2.172259   1.750615   0.000000
    10  H    2.164795   1.096491   3.075439   2.533590   0.000000
    11  H    2.165762   1.096674   2.522144   3.074251   1.750903
    12  H    2.835542   2.179757   2.639556   3.146925   3.074720
    13  H    2.835349   2.179661   3.177278   2.617388   2.522080
    14  H    3.520505   2.185180   3.818936   3.803229   2.498570
    15  H    2.748751   3.320522   2.998921   3.651801   3.603771
    16  H    2.733097   4.102628   2.925673   2.955937   4.376666
                   11         12         13         14         15
    11  H    0.000000
    12  H    2.522971   0.000000
    13  H    3.074892   1.765545   0.000000
    14  H    2.498315   1.768011   1.768056   0.000000
    15  H    2.970151   4.947186   5.354852   5.382245   0.000000
    16  H    4.371074   5.460638   5.465622   6.225628   2.432125
                   16
    16  H    0.000000
 Symmetry turned off by external request.
 Rotational constants (GHZ):           8.8227848           1.6565349           1.5123555
   218 basis functions,   374 primitive gaussians,   228 cartesian basis functions
    25 alpha electrons       25 beta electrons
       nuclear repulsion energy       235.2739892883 Hartrees.
 NAtoms=   16 NActive=   16 NUniq=   16 SFac= 1.00D+00 NAtFMM=   60 NAOKFM=F Big=F
 ExpMin= 2.50D-02 ExpMax= 7.89D+04 ExpMxC= 2.69D+03 IAcc=3 IRadAn=         5 AccDes= 0.00D+00
 Harris functional with IExCor=  205 and IRadAn=       5 diagonalized for initial guess.
 HarFok:  IExCor=  205 AccDes= 0.00D+00 IRadAn=         5 IDoV= 1 UseB2=F ITyADJ=14
 ICtDFT=  3500011 ScaDFX=  1.000000  1.000000  1.000000  1.000000
 FoFCou: FMM=F IPFlag=           0 FMFlag=      100000 FMFlg1=           0
         NFxFlg=           0 DoJE=T BraDBF=F KetDBF=T FulRan=T
         wScrn=  0.000000 ICntrl=       500 IOpCl=  0 I1Cent=   200000004 NGrid=           0
         NMat0=    1 NMatS0=      1 NMatT0=    0 NMatD0=    1 NMtDS0=    0 NMtDT0=    0
 Symmetry not used in FoFCou.
 SCF Done:  E(RHF) =  -463.439505729     A.U. after   12 cycles
            NFock= 12  Conv=0.44D-08     -V/T= 2.0006

 **********************************************************************

            Population analysis using the SCF Density.

 **********************************************************************

 Alpha  occ. eigenvalues --  -68.78077 -15.53821 -11.22935 -11.21871 -11.20801
 Alpha  occ. eigenvalues --   -6.12571  -4.23265  -4.23225  -4.23144  -1.13108
 Alpha  occ. eigenvalues --   -1.05122  -0.92390  -0.80391  -0.70064  -0.65337
 Alpha  occ. eigenvalues --   -0.62535  -0.57819  -0.54560  -0.53893  -0.51942
 Alpha  occ. eigenvalues --   -0.47975  -0.46911  -0.45360  -0.44748  -0.37889
 Alpha virt. eigenvalues --    0.03301   0.04456   0.04502   0.04743   0.06462
 Alpha virt. eigenvalues --    0.06618   0.06824   0.07087   0.07829   0.09111
 Alpha virt. eigenvalues --    0.09606   0.10099   0.10258   0.12379   0.13534
 Alpha virt. eigenvalues --    0.14625   0.15314   0.16270   0.17309   0.17739
 Alpha virt. eigenvalues --    0.17939   0.18115   0.18358   0.19348   0.19860
 Alpha virt. eigenvalues --    0.21205   0.21813   0.21968   0.22805   0.23203
 Alpha virt. eigenvalues --    0.24287   0.25384   0.26747   0.28304   0.29865
 Alpha virt. eigenvalues --    0.30234   0.31439   0.31852   0.32917   0.34493
 Alpha virt. eigenvalues --    0.35711   0.36963   0.38128   0.38773   0.39378
 Alpha virt. eigenvalues --    0.42102   0.42663   0.43499   0.44488   0.45003
 Alpha virt. eigenvalues --    0.45931   0.46604   0.47334   0.47993   0.48666
 Alpha virt. eigenvalues --    0.48750   0.49119   0.49977   0.50756   0.51260
 Alpha virt. eigenvalues --    0.52356   0.53227   0.54490   0.54933   0.55740
 Alpha virt. eigenvalues --    0.56457   0.57843   0.58262   0.59188   0.60056
 Alpha virt. eigenvalues --    0.60408   0.61022   0.62226   0.62691   0.63166
 Alpha virt. eigenvalues --    0.63791   0.66239   0.67453   0.67838   0.68010
 Alpha virt. eigenvalues --    0.68683   0.70889   0.71396   0.72685   0.73691
 Alpha virt. eigenvalues --    0.74672   0.76326   0.77361   0.77940   0.79584
 Alpha virt. eigenvalues --    0.80294   0.80884   0.82243   0.83697   0.84968
 Alpha virt. eigenvalues --    0.86056   0.88025   0.88358   0.90060   0.90806
 Alpha virt. eigenvalues --    0.92708   0.95828   0.96502   0.99586   1.00879
 Alpha virt. eigenvalues --    1.01974   1.04310   1.07334   1.09011   1.10822
 Alpha virt. eigenvalues --    1.12405   1.14565   1.15421   1.17382   1.19513
 Alpha virt. eigenvalues --    1.22498   1.25794   1.27327   1.28130   1.28924
 Alpha virt. eigenvalues --    1.33002   1.38815   1.41755   1.44404   1.46026
 Alpha virt. eigenvalues --    1.49500   1.51450   1.55031   1.56277   1.58568
 Alpha virt. eigenvalues --    1.61780   1.65857   1.69591   1.78216   1.83990
 Alpha virt. eigenvalues --    1.84885   1.88666   1.89025   1.90751   1.93518
 Alpha virt. eigenvalues --    1.94570   1.98397   1.99585   2.01164   2.02643
 Alpha virt. eigenvalues --    2.05424   2.06237   2.06842   2.10526   2.12137
 Alpha virt. eigenvalues --    2.14194   2.14762   2.16098   2.18271   2.21354
 Alpha virt. eigenvalues --    2.22755   2.22810   2.24580   2.25636   2.29790
 Alpha virt. eigenvalues --    2.30841   2.32079   2.36163   2.36933   2.38363
 Alpha virt. eigenvalues --    2.39943   2.42312   2.43169   2.46264   2.48799
 Alpha virt. eigenvalues --    2.50649   2.53069   2.57028   2.59539   2.65565
 Alpha virt. eigenvalues --    2.67763   2.70601   2.76086   2.78949   2.81769
 Alpha virt. eigenvalues --    2.83102   2.88448   2.89957   2.92742   2.95878
 Alpha virt. eigenvalues --    2.96940   3.09743   3.12052   3.13122   3.21692
 Alpha virt. eigenvalues --    3.32667   3.34818   3.53691
          Condensed to atoms (all electrons):
 Mulliken charges:
               1
     1  N   -0.548371
     2  Si   1.082895
     3  H   -0.031628
     4  H   -0.019593
     5  C    0.391402
     6  C    0.005673
     7  C    0.118274
     8  H   -0.262670
     9  H   -0.197384
    10  H   -0.163763
    11  H   -0.178848
    12  H   -0.065673
    13  H   -0.068607
    14  H   -0.078609
    15  H    0.028757
    16  H   -0.011857
 Sum of Mulliken charges =  -0.00000
 Mulliken charges with hydrogens summed into heavy atoms:
               1
     1  N   -0.599591
     2  Si   1.099795
     5  C    0.178514
     6  C   -0.454380
     7  C   -0.224337
 Electronic spatial extent (au):  <R**2>=            852.7918
 Charge=              0.0000 electrons
 Dipole moment (field-independent basis, Debye):
    X=             -0.7340    Y=              1.0554    Z=             -0.5237  Tot=              1.3881
 NROrb=    218 NOA=    25 NOB=    25 NVA=   193 NVB=   193

 **** Warning!!: The largest alpha MO coefficient is  0.37962250D+02

    12 initial guesses have been made.
 Iteration     1 Dimension    12 NMult     0 NNew     12
 Iteration     2 Dimension    24 NMult    12 NNew     12
 Iteration     3 Dimension    27 NMult    24 NNew      3
 Iteration     4 Dimension    30 NMult    27 NNew      3
 Iteration     5 Dimension    33 NMult    30 NNew      3
 Iteration     6 Dimension    36 NMult    33 NNew      3
 ***********************************************************************
 Stability analysis using <AA,BB:AA,BB> singles matrix:
 ***********************************************************************
 Ground to excited state transition densities written to RWF  633

 Eigenvectors of the stability matrix:
 
 Excited state symmetry could not be determined.
 Eigenvector   1:      Singlet-?Sym  Eigenvalue= 0.2558365  <S**2>=0.000
      24 -> 26         0.13599
      25 -> 26         0.46559
      25 -> 27        -0.26607
      25 -> 28        -0.11136
      25 -> 30        -0.14586
      25 -> 41        -0.22269
 The wavefunction is stable under the perturbations considered.
 The wavefunction is already stable.

 **********************************************************************

            Population analysis using the SCF Density.

 **********************************************************************

 Alpha  occ. eigenvalues --  -68.78077 -15.53821 -11.22935 -11.21871 -11.20801
 Alpha  occ. eigenvalues --   -6.12571  -4.23265  -4.23225  -4.23144  -1.13108
 Alpha  occ. eigenvalues --   -1.05122  -0.92390  -0.80391  -0.70064  -0.65337
 Alpha  occ. eigenvalues --   -0.62535  -0.57819  -0.54560  -0.53893  -0.51942
 Alpha  occ. eigenvalues --   -0.47975  -0.46911  -0.45360  -0.44748  -0.37889
 Alpha virt. eigenvalues --    0.03301   0.04456   0.04502   0.04743   0.06462
 Alpha virt. eigenvalues --    0.06618   0.06824   0.07087   0.07829   0.09111
 Alpha virt. eigenvalues --    0.09606   0.10099   0.10258   0.12379   0.13534
 Alpha virt. eigenvalues --    0.14625   0.15314   0.16270   0.17309   0.17739
 Alpha virt. eigenvalues --    0.17939   0.18115   0.18358   0.19348   0.19860
 Alpha virt. eigenvalues --    0.21205   0.21813   0.21968   0.22805   0.23203
 Alpha virt. eigenvalues --    0.24287   0.25384   0.26747   0.28304   0.29865
 Alpha virt. eigenvalues --    0.30234   0.31439   0.31852   0.32917   0.34493
 Alpha virt. eigenvalues --    0.35711   0.36963   0.38128   0.38773   0.39378
 Alpha virt. eigenvalues --    0.42102   0.42663   0.43499   0.44488   0.45003
 Alpha virt. eigenvalues --    0.45931   0.46604   0.47334   0.47993   0.48666
 Alpha virt. eigenvalues --    0.48750   0.49119   0.49977   0.50756   0.51260
 Alpha virt. eigenvalues --    0.52356   0.53227   0.54490   0.54933   0.55740
 Alpha virt. eigenvalues --    0.56457   0.57843   0.58262   0.59188   0.60056
 Alpha virt. eigenvalues --    0.60408   0.61022   0.62226   0.62691   0.63166
 Alpha virt. eigenvalues --    0.63791   0.66239   0.67453   0.67838   0.68010
 Alpha virt. eigenvalues --    0.68683   0.70889   0.71396   0.72685   0.73691
 Alpha virt. eigenvalues --    0.74672   0.76326   0.77361   0.77940   0.79584
 Alpha virt. eigenvalues --    0.80294   0.80884   0.82243   0.83697   0.84968
 Alpha virt. eigenvalues --    0.86056   0.88025   0.88358   0.90060   0.90806
 Alpha virt. eigenvalues --    0.92708   0.95828   0.96502   0.99586   1.00879
 Alpha virt. eigenvalues --    1.01974   1.04310   1.07334   1.09011   1.10822
 Alpha virt. eigenvalues --    1.12405   1.14565   1.15421   1.17382   1.19513
 Alpha virt. eigenvalues --    1.22498   1.25794   1.27327   1.28130   1.28924
 Alpha virt. eigenvalues --    1.33002   1.38815   1.41755   1.44404   1.46026
 Alpha virt. eigenvalues --    1.49500   1.51450   1.55031   1.56277   1.58568
 Alpha virt. eigenvalues --    1.61780   1.65857   1.69591   1.78216   1.83990
 Alpha virt. eigenvalues --    1.84885   1.88666   1.89025   1.90751   1.93518
 Alpha virt. eigenvalues --    1.94570   1.98397   1.99585   2.01164   2.02643
 Alpha virt. eigenvalues --    2.05424   2.06237   2.06842   2.10526   2.12137
 Alpha virt. eigenvalues --    2.14194   2.14762   2.16098   2.18271   2.21354
 Alpha virt. eigenvalues --    2.22755   2.22810   2.24580   2.25636   2.29790
 Alpha virt. eigenvalues --    2.30841   2.32079   2.36163   2.36933   2.38363
 Alpha virt. eigenvalues --    2.39943   2.42312   2.43169   2.46264   2.48799
 Alpha virt. eigenvalues --    2.50649   2.53069   2.57028   2.59539   2.65565
 Alpha virt. eigenvalues --    2.67763   2.70601   2.76086   2.78949   2.81769
 Alpha virt. eigenvalues --    2.83102   2.88448   2.89957   2.92742   2.95878
 Alpha virt. eigenvalues --    2.96940   3.09743   3.12052   3.13122   3.21692
 Alpha virt. eigenvalues --    3.32667   3.34818   3.53691
          Condensed to atoms (all electrons):
 Mulliken charges:
               1
     1  N   -0.548371
     2  Si   1.082895
     3  H   -0.031628
     4  H   -0.019593
     5  C    0.391402
     6  C    0.005673
     7  C    0.118274
     8  H   -0.262670
     9  H   -0.197384
    10  H   -0.163763
    11  H   -0.178848
    12  H   -0.065673
    13  H   -0.068607
    14  H   -0.078609
    15  H    0.028757
    16  H   -0.011857
 Sum of Mulliken charges =  -0.00000
 Mulliken charges with hydrogens summed into heavy atoms:
               1
     1  N   -0.599591
     2  Si   1.099795
     5  C    0.178514
     6  C   -0.454380
     7  C   -0.224337
 Electronic spatial extent (au):  <R**2>=            852.7918
 Charge=              0.0000 electrons
 Dipole moment (field-independent basis, Debye):
    X=             -0.7340    Y=              1.0554    Z=             -0.5237  Tot=              1.3881
 Unable to Open any file for archive entry.
 1\1\GINC-SE453\Stability\RHF\Aug-CC-pVDZ\C3H11N1Si1\OHZDE\09-Apr-2025\
 0\\#t hf aug-cc-pvdz symm=none int=(grid=ultrafine) guess=(read,tcheck
 ) stable=(opt,rrhf)\\title\\0,1\N,0,2.130404,0.989671,-0.179336\Si,0,1
 .355088,-0.516241,0.151894\H,0,2.30653,1.299585,-1.123467\H,0,2.03496,
 1.771109,0.451392\C,0,-2.863903,0.224903,-0.098431\C,0,-0.461733,-0.65
 4974,-0.339686\C,0,-1.400354,0.36017,0.335588\H,0,-0.788676,-1.678844,
 -0.1091\H,0,-0.535536,-0.560302,-1.431763\H,0,-1.052722,1.37688,0.1170
 82\H,0,-1.33586,0.247239,1.424524\H,0,-3.25417,-0.76952,0.13935\H,0,-2
 .968612,0.370577,-1.178142\H,0,-3.50011,0.961616,0.401163\H,0,1.466501
 ,-0.71766,1.618276\H,0,2.099571,-1.581597,-0.565315\\Version=ES64L-G16
 RevC.01\HF=-463.4395057\RMSD=4.431e-09\Dipole=-0.2887972,0.4152203,-0.
 2060259\Quadrupole=-3.0483361,1.798781,1.2495551,1.8187385,-1.2785173,
 -0.269492\PG=Unknown\\@
 The archive entry for this job was punched.


 Statistics are no substitute for judgment.
                            -- Henry Clay
 Job cpu time:       0 days  0 hours  5 minutes 25.2 seconds.
 Elapsed time:       0 days  0 hours  0 minutes 23.2 seconds.
 File lengths (MBytes):  RWF=    217 Int=      0 D2E=      0 Chk=      7 Scr=      1
 Normal termination of Gaussian 16 at Wed Apr  9 00:00:43 2025.
 Initial command:
 /arc/software/Gaussian/g16.c01/l1.exe "/tmp/slurm/4850519/Gau-3265106.inp" -scrdir="/tmp/slurm/4850519/"
 Entering Link 1 = /arc/software/Gaussian/g16.c01/l1.exe PID=   3265319.
  
 Copyright (c) 1988-2019, Gaussian, Inc.  All Rights Reserved.
  
 This is part of the Gaussian(R) 16 program.  It is based on
 the Gaussian(R) 09 system (copyright 2009, Gaussian, Inc.),
 the Gaussian(R) 03 system (copyright 2003, Gaussian, Inc.),
 the Gaussian(R) 98 system (copyright 1998, Gaussian, Inc.),
 the Gaussian(R) 94 system (copyright 1995, Gaussian, Inc.),
 the Gaussian 92(TM) system (copyright 1992, Gaussian, Inc.),
 the Gaussian 90(TM) system (copyright 1990, Gaussian, Inc.),
 the Gaussian 88(TM) system (copyright 1988, Gaussian, Inc.),
 the Gaussian 86(TM) system (copyright 1986, Carnegie Mellon
 University), and the Gaussian 82(TM) system (copyright 1983,
 Carnegie Mellon University). Gaussian is a federally registered
 trademark of Gaussian, Inc.
  
 This software contains proprietary and confidential information,
 including trade secrets, belonging to Gaussian, Inc.
  
 This software is provided under written license and may be
 used, copied, transmitted, or stored only in accord with that
 written license.
  
 The following legend is applicable only to US Government
 contracts under FAR:
  
                    RESTRICTED RIGHTS LEGEND
  
 Use, reproduction and disclosure by the US Government is
 subject to restrictions as set forth in subparagraphs (a)
 and (c) of the Commercial Computer Software - Restricted
 Rights clause in FAR 52.227-19.
  
 Gaussian, Inc.
 340 Quinnipiac St., Bldg. 40, Wallingford CT 06492
  
  
 ---------------------------------------------------------------
 Warning -- This program may not be used in any manner that
 competes with the business of Gaussian, Inc. or will provide
 assistance to any competitor of Gaussian, Inc.  The licensee
 of this program is prohibited from giving any competitor of
 Gaussian, Inc. access to this program.  By using this program,
 the user acknowledges that Gaussian, Inc. is engaged in the
 business of creating and licensing software in the field of
 computational chemistry and represents and warrants to the
 licensee that it is not a competitor of Gaussian, Inc. and that
 it will not use this program in any manner prohibited above.
 ---------------------------------------------------------------
  

 Cite this work as:
 Gaussian 16, Revision C.01,
 M. J. Frisch, G. W. Trucks, H. B. Schlegel, G. E. Scuseria, 
 M. A. Robb, J. R. Cheeseman, G. Scalmani, V. Barone, 
 G. A. Petersson, H. Nakatsuji, X. Li, M. Caricato, A. V. Marenich, 
 J. Bloino, B. G. Janesko, R. Gomperts, B. Mennucci, H. P. Hratchian, 
 J. V. Ortiz, A. F. Izmaylov, J. L. Sonnenberg, D. Williams-Young, 
 F. Ding, F. Lipparini, F. Egidi, J. Goings, B. Peng, A. Petrone, 
 T. Henderson, D. Ranasinghe, V. G. Zakrzewski, J. Gao, N. Rega, 
 G. Zheng, W. Liang, M. Hada, M. Ehara, K. Toyota, R. Fukuda, 
 J. Hasegawa, M. Ishida, T. Nakajima, Y. Honda, O. Kitao, H. Nakai, 
 T. Vreven, K. Throssell, J. A. Montgomery, Jr., J. E. Peralta, 
 F. Ogliaro, M. J. Bearpark, J. J. Heyd, E. N. Brothers, K. N. Kudin, 
 V. N. Staroverov, T. A. Keith, R. Kobayashi, J. Normand, 
 K. Raghavachari, A. P. Rendell, J. C. Burant, S. S. Iyengar, 
 J. Tomasi, M. Cossi, J. M. Millam, M. Klene, C. Adamo, R. Cammi, 
 J. W. Ochterski, R. L. Martin, K. Morokuma, O. Farkas, 
 J. B. Foresman, and D. J. Fox, Gaussian, Inc., Wallingford CT, 2019.
 
 ******************************************
 Gaussian 16:  ES64L-G16RevC.01  3-Jul-2019
                 9-Apr-2025 
 ******************************************
 %nprocs=16
 Will use up to   16 processors via shared memory.
 %mem=30GB
 %chk=BDE49_nonexpt_2098_mol1.chk
 ----------------------------------------------------------------------
 #t hf aug-cc-pvdz iop(5/13=1,5/36=2,99/5=2) pseudo=read geom=check gue
 ss=(read,tcheck) scf=(maxcycle=1)
 ----------------------------------------------------------------------
 -----
 title
 -----
 Structure from the checkpoint file:  "BDE49_nonexpt_2098_mol1.chk"
 Charge =  0 Multiplicity = 1
 Z-Matrix found in chk file.
 N,0,2.130404,0.989671,-0.179336
 Si,0,1.355088,-0.516241,0.151894
 H,0,2.30653,1.299585,-1.123467
 H,0,2.03496,1.771109,0.451392
 C,0,-2.863903,0.224903,-0.098431
 C,0,-0.461733,-0.654974,-0.339686
 C,0,-1.400354,0.36017,0.335588
 H,0,-0.788676,-1.678844,-0.1091
 H,0,-0.535536,-0.560302,-1.431763
 H,0,-1.052722,1.37688,0.117082
 H,0,-1.33586,0.247239,1.424524
 H,0,-3.25417,-0.76952,0.13935
 H,0,-2.968612,0.370577,-1.178142
 H,0,-3.50011,0.961616,0.401163
 H,0,1.466501,-0.71766,1.618276
 H,0,2.099571,-1.581597,-0.565315
 Recover connectivity data from disk.
                    Distance matrix (angstroms):
                    1          2          3          4          5
     1  N    0.000000
     2  Si   1.725862   0.000000
     3  H    1.009183   2.414335   0.000000
     4  H    1.008748   2.404973   1.666213   0.000000
     5  C    5.053169   4.290902   5.379500   5.166422   0.000000
     6  C    3.074044   1.887256   3.478203   3.570036   2.569593
     7  C    3.623213   2.897292   4.092961   3.715581   1.532529
     8  H    3.955620   2.452649   4.413647   4.493245   2.816191
     9  H    3.328397   2.466652   3.410508   3.948316   2.795642
    10  H    3.220262   3.063114   3.581831   3.130648   2.157284
    11  H    3.890830   3.073059   4.568008   3.825127   2.157500
    12  H    5.673619   4.616229   6.066077   5.875973   1.094406
    13  H    5.232672   4.609753   5.356600   5.445420   1.094514
    14  H    5.660429   5.081254   6.012968   5.594176   1.094120
    15  H    2.566545   1.484338   3.506006   2.806908   4.752674
    16  H    2.600260   1.484462   2.942036   3.504070   5.302593
                    6          7          8          9         10
     6  C    0.000000
     7  C    1.538675   0.000000
     8  H    1.099259   2.174736   0.000000
     9  H    1.098655   2.172259   1.750615   0.000000
    10  H    2.164795   1.096491   3.075439   2.533590   0.000000
    11  H    2.165762   1.096674   2.522144   3.074251   1.750903
    12  H    2.835542   2.179757   2.639556   3.146925   3.074720
    13  H    2.835349   2.179661   3.177278   2.617388   2.522080
    14  H    3.520505   2.185180   3.818936   3.803229   2.498570
    15  H    2.748751   3.320522   2.998921   3.651801   3.603771
    16  H    2.733097   4.102628   2.925673   2.955937   4.376666
                   11         12         13         14         15
    11  H    0.000000
    12  H    2.522971   0.000000
    13  H    3.074892   1.765545   0.000000
    14  H    2.498315   1.768011   1.768056   0.000000
    15  H    2.970151   4.947186   5.354852   5.382245   0.000000
    16  H    4.371074   5.460638   5.465622   6.225628   2.432125
                   16
    16  H    0.000000
 Framework group  C1[X(C3H11NSi)]
 Deg. of freedom    42
                         Standard orientation:                         
 ---------------------------------------------------------------------
 Center     Atomic      Atomic             Coordinates (Angstroms)
 Number     Number       Type             X           Y           Z
 ---------------------------------------------------------------------
      1          7           0        2.130404    0.989671   -0.179336
      2         14           0        1.355088   -0.516241    0.151894
      3          1           0        2.306530    1.299585   -1.123467
      4          1           0        2.034960    1.771109    0.451392
      5          6           0       -2.863903    0.224903   -0.098431
      6          6           0       -0.461733   -0.654974   -0.339686
      7          6           0       -1.400354    0.360170    0.335588
      8          1           0       -0.788676   -1.678844   -0.109100
      9          1           0       -0.535536   -0.560302   -1.431763
     10          1           0       -1.052722    1.376880    0.117082
     11          1           0       -1.335860    0.247239    1.424524
     12          1           0       -3.254170   -0.769520    0.139350
     13          1           0       -2.968612    0.370577   -1.178142
     14          1           0       -3.500110    0.961616    0.401163
     15          1           0        1.466501   -0.717660    1.618276
     16          1           0        2.099571   -1.581597   -0.565315
 ---------------------------------------------------------------------
 Rotational constants (GHZ):           8.8227848           1.6565349           1.5123555
 ======================================================================================================
                                       Pseudopotential Parameters
 ======================================================================================================
  Center     Atomic      Valence      Angular      Power
  Number     Number     Electrons     Momentum     of R      Exponent        Coefficient   SO-Coeffient
 ======================================================================================================
    1          7            7
                                      G and up 
                                                     0        0.0000010        0.00420138    0.00000000
                                                     2        0.1200000        0.05872431    0.00000000
                                                     2        0.1400000       -0.08436978    0.00000000
                                                     2        0.2000000        0.05409159    0.00000000
                                                     2        0.2600000        0.14199713    0.00000000
                                                     2        0.6000000       -0.79062770    0.00000000
                                                     2        0.7000000       -0.14441060    0.00000000
                                                     2        1.5000000        0.73772979    0.00000000
                                      S - G
                                                     0        0.0000010       -0.03094411    0.00000000
                                                     2        0.1200000        0.65332522    0.00000000
                                                     2        0.1800000       -1.38149133    0.00000000
                                                     2        1.3000000        3.29267299    0.00000000
                                      P - G
                                                     0        0.0000010        0.07303105    0.00000000
                                                     2        0.1200000        0.23145115    0.00000000
                                                     2        0.2000000       -1.20679699    0.00000000
                                                     2        0.4000000        1.75088447    0.00000000
                                                     2        1.2000000       -0.67486559    0.00000000
                                      D - G
                                                     0        0.0000010        0.07560739    0.00000000
                                                     2        0.3000000       -0.68679114    0.00000000
                                                     2        0.9000000        3.60133241    0.00000000
                                      F - G
                                                     0        0.0000010       -0.18221184    0.00000000
                                                     2        0.1200000       -0.39369067    0.00000000
                                                     2        0.1800000        0.72091725    0.00000000
                                                     2        0.6000000        0.15946111    0.00000000
    2         14           14
                                      G and up 
                                                     0        0.0000010        0.00318584    0.00000000
                                                     2        0.1200000        0.01495489    0.00000000
                                                     2        0.1400000        0.00226724    0.00000000
                                                     2        0.2400000        0.19400623    0.00000000
                                                     2        0.4000000       -1.10589618    0.00000000
                                                     2        0.5000000       -0.33441440    0.00000000
                                                     2        1.1000000        1.54014497    0.00000000
                                      S - G
                                                     0        0.0000010       -0.02754341    0.00000000
                                                     2        0.1400000       -0.27210261    0.00000000
                                                     2        0.5000000        1.68277205    0.00000000
                                      P - G
                                                     0        0.0000010        0.23409914    0.00000000
                                                     2        0.1400000       -0.38285789    0.00000000
                                                     2        0.3000000        0.63427704    0.00000000
                                      D - G
                                                     0        0.0000010        0.33783735    0.00000000
                                                     2        0.1200000        0.22636357    0.00000000
                                                     2        0.1600000       -1.50396781    0.00000000
                                                     2        0.2800000        2.43578453    0.00000000
                                      F - G
                                                     0        0.0000010       -0.32072413    0.00000000
                                                     2        0.1200000        0.11095462    0.00000000
                                                     2        0.1600000       -0.09560586    0.00000000
    3          1            1
                                      F and up 
                                                     0        0.0000010        0.00072061    0.00000000
                                                     2        0.1200000        0.03832357    0.00000000
                                                     2        0.1400000       -0.08683256    0.00000000
                                                     2        0.1800000        0.09312970    0.00000000
                                                     2        0.2800000       -0.02532572    0.00000000
                                                     2        0.4000000       -0.09430787    0.00000000
                                                     2        0.7000000        0.42710831    0.00000000
                                                     2        1.2000000       -2.11746981    0.00000000
                                      S - F
                                                     0        0.0000010        0.14449603    0.00000000
                                                     2        0.1200000       -0.56378993    0.00000000
                                                     2        0.1400000        0.63941249    0.00000000
                                                     2        0.2600000       -0.58461015    0.00000000
                                                     2        0.5000000        1.00157293    0.00000000
                                                     2        1.8000000       -0.14135838    0.00000000
                                      P - F
                                                     0        0.0000010       -0.09353646    0.00000000
                                                     2        0.1200000        0.31768975    0.00000000
                                                     2        0.2000000       -0.71747951    0.00000000
                                                     2        0.4000000        0.65752308    0.00000000
                                                     2        1.7000000        2.94052587    0.00000000
                                      D - F
                                                     0        0.0000010       -0.04491202    0.00000000
                                                     2        0.1200000       -0.02862031    0.00000000
                                                     2        0.1800000       -0.21515263    0.00000000
                                                     2        0.3000000        0.80560647    0.00000000
                                                     2        0.4000000        0.47351754    0.00000000
                                                     2        0.7000000       -4.57051794    0.00000000
                                                     2        1.6000000       18.53737826    0.00000000
    4          1            1
                                      F and up 
                                                     0        0.0000010        0.00072061    0.00000000
                                                     2        0.1200000        0.03832357    0.00000000
                                                     2        0.1400000       -0.08683256    0.00000000
                                                     2        0.1800000        0.09312970    0.00000000
                                                     2        0.2800000       -0.02532572    0.00000000
                                                     2        0.4000000       -0.09430787    0.00000000
                                                     2        0.7000000        0.42710831    0.00000000
                                                     2        1.2000000       -2.11746981    0.00000000
                                      S - F
                                                     0        0.0000010        0.14449603    0.00000000
                                                     2        0.1200000       -0.56378993    0.00000000
                                                     2        0.1400000        0.63941249    0.00000000
                                                     2        0.2600000       -0.58461015    0.00000000
                                                     2        0.5000000        1.00157293    0.00000000
                                                     2        1.8000000       -0.14135838    0.00000000
                                      P - F
                                                     0        0.0000010       -0.09353646    0.00000000
                                                     2        0.1200000        0.31768975    0.00000000
                                                     2        0.2000000       -0.71747951    0.00000000
                                                     2        0.4000000        0.65752308    0.00000000
                                                     2        1.7000000        2.94052587    0.00000000
                                      D - F
                                                     0        0.0000010       -0.04491202    0.00000000
                                                     2        0.1200000       -0.02862031    0.00000000
                                                     2        0.1800000       -0.21515263    0.00000000
                                                     2        0.3000000        0.80560647    0.00000000
                                                     2        0.4000000        0.47351754    0.00000000
                                                     2        0.7000000       -4.57051794    0.00000000
                                                     2        1.6000000       18.53737826    0.00000000
    5          6            6
                                      G and up 
                                                     0        0.0000010       -0.00286759    0.00000000
                                                     2        0.1200000        0.03193960    0.00000000
                                                     2        0.1600000       -0.04027782    0.00000000
                                                     2        0.2600000        0.24782456    0.00000000
                                                     2        0.4000000       -0.62266671    0.00000000
                                                     2        0.7000000        0.35695227    0.00000000
                                      S - G
                                                     0        0.0000010       -0.06602313    0.00000000
                                                     2        0.1200000        1.47277455    0.00000000
                                                     2        0.1600000       -4.06924166    0.00000000
                                                     2        0.3000000        5.02952802    0.00000000
                                                     2        0.7000000       -5.65856978    0.00000000
                                                     2        1.7000000        8.57604414    0.00000000
                                      P - G
                                                     0        0.0000010        0.49434425    0.00000000
                                                     2        0.1200000       -1.37391547    0.00000000
                                                     2        0.1600000        3.65411806    0.00000000
                                                     2        0.2800000       -7.36479843    0.00000000
                                                     2        0.6000000       17.22091285    0.00000000
                                                     2        1.1000000      -23.50107827    0.00000000
                                                     2        3.0000000       16.29464063    0.00000000
                                      D - G
                                                     0        0.0000010       -0.28693103    0.00000000
                                                     2        0.1200000        0.12273044    0.00000000
                                                     2        0.3000000       -0.43416384    0.00000000
                                                     2        0.7000000        2.23358493    0.00000000
                                      F - G
                                                     0        0.0000010        0.07263570    0.00000000
                                                     2        0.1400000       -0.76152861    0.00000000
                                                     2        0.2200000        1.98045593    0.00000000
                                                     2        0.4000000       -2.42426427    0.00000000
                                                     2        0.7000000        0.52335237    0.00000000
    6          6            6
                                      G and up 
                                                     0        0.0000010       -0.00286759    0.00000000
                                                     2        0.1200000        0.03193960    0.00000000
                                                     2        0.1600000       -0.04027782    0.00000000
                                                     2        0.2600000        0.24782456    0.00000000
                                                     2        0.4000000       -0.62266671    0.00000000
                                                     2        0.7000000        0.35695227    0.00000000
                                      S - G
                                                     0        0.0000010       -0.06602313    0.00000000
                                                     2        0.1200000        1.47277455    0.00000000
                                                     2        0.1600000       -4.06924166    0.00000000
                                                     2        0.3000000        5.02952802    0.00000000
                                                     2        0.7000000       -5.65856978    0.00000000
                                                     2        1.7000000        8.57604414    0.00000000
                                      P - G
                                                     0        0.0000010        0.49434425    0.00000000
                                                     2        0.1200000       -1.37391547    0.00000000
                                                     2        0.1600000        3.65411806    0.00000000
                                                     2        0.2800000       -7.36479843    0.00000000
                                                     2        0.6000000       17.22091285    0.00000000
                                                     2        1.1000000      -23.50107827    0.00000000
                                                     2        3.0000000       16.29464063    0.00000000
                                      D - G
                                                     0        0.0000010       -0.28693103    0.00000000
                                                     2        0.1200000        0.12273044    0.00000000
                                                     2        0.3000000       -0.43416384    0.00000000
                                                     2        0.7000000        2.23358493    0.00000000
                                      F - G
                                                     0        0.0000010        0.07263570    0.00000000
                                                     2        0.1400000       -0.76152861    0.00000000
                                                     2        0.2200000        1.98045593    0.00000000
                                                     2        0.4000000       -2.42426427    0.00000000
                                                     2        0.7000000        0.52335237    0.00000000
    7          6            6
                                      G and up 
                                                     0        0.0000010       -0.00286759    0.00000000
                                                     2        0.1200000        0.03193960    0.00000000
                                                     2        0.1600000       -0.04027782    0.00000000
                                                     2        0.2600000        0.24782456    0.00000000
                                                     2        0.4000000       -0.62266671    0.00000000
                                                     2        0.7000000        0.35695227    0.00000000
                                      S - G
                                                     0        0.0000010       -0.06602313    0.00000000
                                                     2        0.1200000        1.47277455    0.00000000
                                                     2        0.1600000       -4.06924166    0.00000000
                                                     2        0.3000000        5.02952802    0.00000000
                                                     2        0.7000000       -5.65856978    0.00000000
                                                     2        1.7000000        8.57604414    0.00000000
                                      P - G
                                                     0        0.0000010        0.49434425    0.00000000
                                                     2        0.1200000       -1.37391547    0.00000000
                                                     2        0.1600000        3.65411806    0.00000000
                                                     2        0.2800000       -7.36479843    0.00000000
                                                     2        0.6000000       17.22091285    0.00000000
                                                     2        1.1000000      -23.50107827    0.00000000
                                                     2        3.0000000       16.29464063    0.00000000
                                      D - G
                                                     0        0.0000010       -0.28693103    0.00000000
                                                     2        0.1200000        0.12273044    0.00000000
                                                     2        0.3000000       -0.43416384    0.00000000
                                                     2        0.7000000        2.23358493    0.00000000
                                      F - G
                                                     0        0.0000010        0.07263570    0.00000000
                                                     2        0.1400000       -0.76152861    0.00000000
                                                     2        0.2200000        1.98045593    0.00000000
                                                     2        0.4000000       -2.42426427    0.00000000
                                                     2        0.7000000        0.52335237    0.00000000
    8          1            1
                                      F and up 
                                                     0        0.0000010        0.00072061    0.00000000
                                                     2        0.1200000        0.03832357    0.00000000
                                                     2        0.1400000       -0.08683256    0.00000000
                                                     2        0.1800000        0.09312970    0.00000000
                                                     2        0.2800000       -0.02532572    0.00000000
                                                     2        0.4000000       -0.09430787    0.00000000
                                                     2        0.7000000        0.42710831    0.00000000
                                                     2        1.2000000       -2.11746981    0.00000000
                                      S - F
                                                     0        0.0000010        0.14449603    0.00000000
                                                     2        0.1200000       -0.56378993    0.00000000
                                                     2        0.1400000        0.63941249    0.00000000
                                                     2        0.2600000       -0.58461015    0.00000000
                                                     2        0.5000000        1.00157293    0.00000000
                                                     2        1.8000000       -0.14135838    0.00000000
                                      P - F
                                                     0        0.0000010       -0.09353646    0.00000000
                                                     2        0.1200000        0.31768975    0.00000000
                                                     2        0.2000000       -0.71747951    0.00000000
                                                     2        0.4000000        0.65752308    0.00000000
                                                     2        1.7000000        2.94052587    0.00000000
                                      D - F
                                                     0        0.0000010       -0.04491202    0.00000000
                                                     2        0.1200000       -0.02862031    0.00000000
                                                     2        0.1800000       -0.21515263    0.00000000
                                                     2        0.3000000        0.80560647    0.00000000
                                                     2        0.4000000        0.47351754    0.00000000
                                                     2        0.7000000       -4.57051794    0.00000000
                                                     2        1.6000000       18.53737826    0.00000000
    9          1            1
                                      F and up 
                                                     0        0.0000010        0.00072061    0.00000000
                                                     2        0.1200000        0.03832357    0.00000000
                                                     2        0.1400000       -0.08683256    0.00000000
                                                     2        0.1800000        0.09312970    0.00000000
                                                     2        0.2800000       -0.02532572    0.00000000
                                                     2        0.4000000       -0.09430787    0.00000000
                                                     2        0.7000000        0.42710831    0.00000000
                                                     2        1.2000000       -2.11746981    0.00000000
                                      S - F
                                                     0        0.0000010        0.14449603    0.00000000
                                                     2        0.1200000       -0.56378993    0.00000000
                                                     2        0.1400000        0.63941249    0.00000000
                                                     2        0.2600000       -0.58461015    0.00000000
                                                     2        0.5000000        1.00157293    0.00000000
                                                     2        1.8000000       -0.14135838    0.00000000
                                      P - F
                                                     0        0.0000010       -0.09353646    0.00000000
                                                     2        0.1200000        0.31768975    0.00000000
                                                     2        0.2000000       -0.71747951    0.00000000
                                                     2        0.4000000        0.65752308    0.00000000
                                                     2        1.7000000        2.94052587    0.00000000
                                      D - F
                                                     0        0.0000010       -0.04491202    0.00000000
                                                     2        0.1200000       -0.02862031    0.00000000
                                                     2        0.1800000       -0.21515263    0.00000000
                                                     2        0.3000000        0.80560647    0.00000000
                                                     2        0.4000000        0.47351754    0.00000000
                                                     2        0.7000000       -4.57051794    0.00000000
                                                     2        1.6000000       18.53737826    0.00000000
   10          1            1
                                      F and up 
                                                     0        0.0000010        0.00072061    0.00000000
                                                     2        0.1200000        0.03832357    0.00000000
                                                     2        0.1400000       -0.08683256    0.00000000
                                                     2        0.1800000        0.09312970    0.00000000
                                                     2        0.2800000       -0.02532572    0.00000000
                                                     2        0.4000000       -0.09430787    0.00000000
                                                     2        0.7000000        0.42710831    0.00000000
                                                     2        1.2000000       -2.11746981    0.00000000
                                      S - F
                                                     0        0.0000010        0.14449603    0.00000000
                                                     2        0.1200000       -0.56378993    0.00000000
                                                     2        0.1400000        0.63941249    0.00000000
                                                     2        0.2600000       -0.58461015    0.00000000
                                                     2        0.5000000        1.00157293    0.00000000
                                                     2        1.8000000       -0.14135838    0.00000000
                                      P - F
                                                     0        0.0000010       -0.09353646    0.00000000
                                                     2        0.1200000        0.31768975    0.00000000
                                                     2        0.2000000       -0.71747951    0.00000000
                                                     2        0.4000000        0.65752308    0.00000000
                                                     2        1.7000000        2.94052587    0.00000000
                                      D - F
                                                     0        0.0000010       -0.04491202    0.00000000
                                                     2        0.1200000       -0.02862031    0.00000000
                                                     2        0.1800000       -0.21515263    0.00000000
                                                     2        0.3000000        0.80560647    0.00000000
                                                     2        0.4000000        0.47351754    0.00000000
                                                     2        0.7000000       -4.57051794    0.00000000
                                                     2        1.6000000       18.53737826    0.00000000
   11          1            1
                                      F and up 
                                                     0        0.0000010        0.00072061    0.00000000
                                                     2        0.1200000        0.03832357    0.00000000
                                                     2        0.1400000       -0.08683256    0.00000000
                                                     2        0.1800000        0.09312970    0.00000000
                                                     2        0.2800000       -0.02532572    0.00000000
                                                     2        0.4000000       -0.09430787    0.00000000
                                                     2        0.7000000        0.42710831    0.00000000
                                                     2        1.2000000       -2.11746981    0.00000000
                                      S - F
                                                     0        0.0000010        0.14449603    0.00000000
                                                     2        0.1200000       -0.56378993    0.00000000
                                                     2        0.1400000        0.63941249    0.00000000
                                                     2        0.2600000       -0.58461015    0.00000000
                                                     2        0.5000000        1.00157293    0.00000000
                                                     2        1.8000000       -0.14135838    0.00000000
                                      P - F
                                                     0        0.0000010       -0.09353646    0.00000000
                                                     2        0.1200000        0.31768975    0.00000000
                                                     2        0.2000000       -0.71747951    0.00000000
                                                     2        0.4000000        0.65752308    0.00000000
                                                     2        1.7000000        2.94052587    0.00000000
                                      D - F
                                                     0        0.0000010       -0.04491202    0.00000000
                                                     2        0.1200000       -0.02862031    0.00000000
                                                     2        0.1800000       -0.21515263    0.00000000
                                                     2        0.3000000        0.80560647    0.00000000
                                                     2        0.4000000        0.47351754    0.00000000
                                                     2        0.7000000       -4.57051794    0.00000000
                                                     2        1.6000000       18.53737826    0.00000000
   12          1            1
                                      F and up 
                                                     0        0.0000010        0.00072061    0.00000000
                                                     2        0.1200000        0.03832357    0.00000000
                                                     2        0.1400000       -0.08683256    0.00000000
                                                     2        0.1800000        0.09312970    0.00000000
                                                     2        0.2800000       -0.02532572    0.00000000
                                                     2        0.4000000       -0.09430787    0.00000000
                                                     2        0.7000000        0.42710831    0.00000000
                                                     2        1.2000000       -2.11746981    0.00000000
                                      S - F
                                                     0        0.0000010        0.14449603    0.00000000
                                                     2        0.1200000       -0.56378993    0.00000000
                                                     2        0.1400000        0.63941249    0.00000000
                                                     2        0.2600000       -0.58461015    0.00000000
                                                     2        0.5000000        1.00157293    0.00000000
                                                     2        1.8000000       -0.14135838    0.00000000
                                      P - F
                                                     0        0.0000010       -0.09353646    0.00000000
                                                     2        0.1200000        0.31768975    0.00000000
                                                     2        0.2000000       -0.71747951    0.00000000
                                                     2        0.4000000        0.65752308    0.00000000
                                                     2        1.7000000        2.94052587    0.00000000
                                      D - F
                                                     0        0.0000010       -0.04491202    0.00000000
                                                     2        0.1200000       -0.02862031    0.00000000
                                                     2        0.1800000       -0.21515263    0.00000000
                                                     2        0.3000000        0.80560647    0.00000000
                                                     2        0.4000000        0.47351754    0.00000000
                                                     2        0.7000000       -4.57051794    0.00000000
                                                     2        1.6000000       18.53737826    0.00000000
   13          1            1
                                      F and up 
                                                     0        0.0000010        0.00072061    0.00000000
                                                     2        0.1200000        0.03832357    0.00000000
                                                     2        0.1400000       -0.08683256    0.00000000
                                                     2        0.1800000        0.09312970    0.00000000
                                                     2        0.2800000       -0.02532572    0.00000000
                                                     2        0.4000000       -0.09430787    0.00000000
                                                     2        0.7000000        0.42710831    0.00000000
                                                     2        1.2000000       -2.11746981    0.00000000
                                      S - F
                                                     0        0.0000010        0.14449603    0.00000000
                                                     2        0.1200000       -0.56378993    0.00000000
                                                     2        0.1400000        0.63941249    0.00000000
                                                     2        0.2600000       -0.58461015    0.00000000
                                                     2        0.5000000        1.00157293    0.00000000
                                                     2        1.8000000       -0.14135838    0.00000000
                                      P - F
                                                     0        0.0000010       -0.09353646    0.00000000
                                                     2        0.1200000        0.31768975    0.00000000
                                                     2        0.2000000       -0.71747951    0.00000000
                                                     2        0.4000000        0.65752308    0.00000000
                                                     2        1.7000000        2.94052587    0.00000000
                                      D - F
                                                     0        0.0000010       -0.04491202    0.00000000
                                                     2        0.1200000       -0.02862031    0.00000000
                                                     2        0.1800000       -0.21515263    0.00000000
                                                     2        0.3000000        0.80560647    0.00000000
                                                     2        0.4000000        0.47351754    0.00000000
                                                     2        0.7000000       -4.57051794    0.00000000
                                                     2        1.6000000       18.53737826    0.00000000
   14          1            1
                                      F and up 
                                                     0        0.0000010        0.00072061    0.00000000
                                                     2        0.1200000        0.03832357    0.00000000
                                                     2        0.1400000       -0.08683256    0.00000000
                                                     2        0.1800000        0.09312970    0.00000000
                                                     2        0.2800000       -0.02532572    0.00000000
                                                     2        0.4000000       -0.09430787    0.00000000
                                                     2        0.7000000        0.42710831    0.00000000
                                                     2        1.2000000       -2.11746981    0.00000000
                                      S - F
                                                     0        0.0000010        0.14449603    0.00000000
                                                     2        0.1200000       -0.56378993    0.00000000
                                                     2        0.1400000        0.63941249    0.00000000
                                                     2        0.2600000       -0.58461015    0.00000000
                                                     2        0.5000000        1.00157293    0.00000000
                                                     2        1.8000000       -0.14135838    0.00000000
                                      P - F
                                                     0        0.0000010       -0.09353646    0.00000000
                                                     2        0.1200000        0.31768975    0.00000000
                                                     2        0.2000000       -0.71747951    0.00000000
                                                     2        0.4000000        0.65752308    0.00000000
                                                     2        1.7000000        2.94052587    0.00000000
                                      D - F
                                                     0        0.0000010       -0.04491202    0.00000000
                                                     2        0.1200000       -0.02862031    0.00000000
                                                     2        0.1800000       -0.21515263    0.00000000
                                                     2        0.3000000        0.80560647    0.00000000
                                                     2        0.4000000        0.47351754    0.00000000
                                                     2        0.7000000       -4.57051794    0.00000000
                                                     2        1.6000000       18.53737826    0.00000000
   15          1            1
                                      F and up 
                                                     0        0.0000010        0.00072061    0.00000000
                                                     2        0.1200000        0.03832357    0.00000000
                                                     2        0.1400000       -0.08683256    0.00000000
                                                     2        0.1800000        0.09312970    0.00000000
                                                     2        0.2800000       -0.02532572    0.00000000
                                                     2        0.4000000       -0.09430787    0.00000000
                                                     2        0.7000000        0.42710831    0.00000000
                                                     2        1.2000000       -2.11746981    0.00000000
                                      S - F
                                                     0        0.0000010        0.14449603    0.00000000
                                                     2        0.1200000       -0.56378993    0.00000000
                                                     2        0.1400000        0.63941249    0.00000000
                                                     2        0.2600000       -0.58461015    0.00000000
                                                     2        0.5000000        1.00157293    0.00000000
                                                     2        1.8000000       -0.14135838    0.00000000
                                      P - F
                                                     0        0.0000010       -0.09353646    0.00000000
                                                     2        0.1200000        0.31768975    0.00000000
                                                     2        0.2000000       -0.71747951    0.00000000
                                                     2        0.4000000        0.65752308    0.00000000
                                                     2        1.7000000        2.94052587    0.00000000
                                      D - F
                                                     0        0.0000010       -0.04491202    0.00000000
                                                     2        0.1200000       -0.02862031    0.00000000
                                                     2        0.1800000       -0.21515263    0.00000000
                                                     2        0.3000000        0.80560647    0.00000000
                                                     2        0.4000000        0.47351754    0.00000000
                                                     2        0.7000000       -4.57051794    0.00000000
                                                     2        1.6000000       18.53737826    0.00000000
   16          1            1
                                      F and up 
                                                     0        0.0000010        0.00072061    0.00000000
                                                     2        0.1200000        0.03832357    0.00000000
                                                     2        0.1400000       -0.08683256    0.00000000
                                                     2        0.1800000        0.09312970    0.00000000
                                                     2        0.2800000       -0.02532572    0.00000000
                                                     2        0.4000000       -0.09430787    0.00000000
                                                     2        0.7000000        0.42710831    0.00000000
                                                     2        1.2000000       -2.11746981    0.00000000
                                      S - F
                                                     0        0.0000010        0.14449603    0.00000000
                                                     2        0.1200000       -0.56378993    0.00000000
                                                     2        0.1400000        0.63941249    0.00000000
                                                     2        0.2600000       -0.58461015    0.00000000
                                                     2        0.5000000        1.00157293    0.00000000
                                                     2        1.8000000       -0.14135838    0.00000000
                                      P - F
                                                     0        0.0000010       -0.09353646    0.00000000
                                                     2        0.1200000        0.31768975    0.00000000
                                                     2        0.2000000       -0.71747951    0.00000000
                                                     2        0.4000000        0.65752308    0.00000000
                                                     2        1.7000000        2.94052587    0.00000000
                                      D - F
                                                     0        0.0000010       -0.04491202    0.00000000
                                                     2        0.1200000       -0.02862031    0.00000000
                                                     2        0.1800000       -0.21515263    0.00000000
                                                     2        0.3000000        0.80560647    0.00000000
                                                     2        0.4000000        0.47351754    0.00000000
                                                     2        0.7000000       -4.57051794    0.00000000
                                                     2        1.6000000       18.53737826    0.00000000
 ======================================================================================================
   218 basis functions,   374 primitive gaussians,   228 cartesian basis functions
    25 alpha electrons       25 beta electrons
       nuclear repulsion energy       235.2739892883 Hartrees.
 NAtoms=   16 NActive=   16 NUniq=   16 SFac= 1.00D+00 NAtFMM=   60 NAOKFM=F Big=F
   1 Symmetry operations used in ECPInt.
 ECPInt:  NShTT=    5253 NPrTT=   22913 LenC2=    5241 LenP2D=   18479.
 LDataN:  DoStor=T MaxTD1= 6 Len=  172
 Initial guess from the checkpoint file:  "BDE49_nonexpt_2098_mol1.chk"
 B after Tr=     0.000000   -0.000000    0.000000
         Rot=    1.000000    0.000000   -0.000000    0.000000 Ang=   0.00 deg.
 >>>>>>>>>> Convergence criterion not met.
 SCF Done:  E(RHF) =  -464.496615296     A.U. after    2 cycles
            NFock=  1  Conv=0.26D+00     -V/T= 2.0442

 **********************************************************************

            Population analysis using the SCF Density.

 **********************************************************************

 Orbital symmetries:
       Occupied  (A) (A) (A) (A) (A) (A) (A) (A) (A) (A) (A) (A)
                 (A) (A) (A) (A) (A) (A) (A) (A) (A) (A) (A) (A)
                 (A)
       Virtual   (A) (A) (A) (A) (A) (A) (A) (A) (A) (A) (A) (A)
                 (A) (A) (A) (A) (A) (A) (A) (A) (A) (A) (A) (A)
                 (A) (A) (A) (A) (A) (A) (A) (A) (A) (A) (A) (A)
                 (A) (A) (A) (A) (A) (A) (A) (A) (A) (A) (A) (A)
                 (A) (A) (A) (A) (A) (A) (A) (A) (A) (A) (A) (A)
                 (A) (A) (A) (A) (A) (A) (A) (A) (A) (A) (A) (A)
                 (A) (A) (A) (A) (A) (A) (A) (A) (A) (A) (A) (A)
                 (A) (A) (A) (A) (A) (A) (A) (A) (A) (A) (A) (A)
                 (A) (A) (A) (A) (A) (A) (A) (A) (A) (A) (A) (A)
                 (A) (A) (A) (A) (A) (A) (A) (A) (A) (A) (A) (A)
                 (A) (A) (A) (A) (A) (A) (A) (A) (A) (A) (A) (A)
                 (A) (A) (A) (A) (A) (A) (A) (A) (A) (A) (A) (A)
                 (A) (A) (A) (A) (A) (A) (A) (A) (A) (A) (A) (A)
                 (A) (A) (A) (A) (A) (A) (A) (A) (A) (A) (A) (A)
                 (A) (A) (A) (A) (A) (A) (A) (A) (A) (A) (A) (A)
                 (A) (A) (A) (A) (A) (A) (A) (A) (A) (A) (A) (A)
                 (A)
 The electronic state is 1-A.
 Alpha  occ. eigenvalues --  -76.20491 -15.72217 -11.40783 -11.36779 -11.33568
 Alpha  occ. eigenvalues --   -5.54361  -2.19807  -2.17187  -2.16478  -1.24819
 Alpha  occ. eigenvalues --   -1.19628  -0.99087  -0.84350  -0.72862  -0.64395
 Alpha  occ. eigenvalues --   -0.63129  -0.57251  -0.53663  -0.52764  -0.49181
 Alpha  occ. eigenvalues --   -0.46670  -0.45852  -0.44076  -0.41538  -0.34516
 Alpha virt. eigenvalues --    0.03812   0.05007   0.05405   0.05614   0.06165
 Alpha virt. eigenvalues --    0.06444   0.06619   0.06671   0.07567   0.08935
 Alpha virt. eigenvalues --    0.09497   0.10050   0.10158   0.11807   0.12906
 Alpha virt. eigenvalues --    0.14117   0.15322   0.15491   0.16463   0.17623
 Alpha virt. eigenvalues --    0.17973   0.18310   0.18906   0.19379   0.19755
 Alpha virt. eigenvalues --    0.21346   0.21649   0.22063   0.22567   0.22931
 Alpha virt. eigenvalues --    0.23980   0.24959   0.26123   0.27703   0.29909
 Alpha virt. eigenvalues --    0.30108   0.31033   0.31470   0.32056   0.34369
 Alpha virt. eigenvalues --    0.35197   0.37083   0.37797   0.38611   0.39899
 Alpha virt. eigenvalues --    0.41577   0.42381   0.43778   0.43982   0.45292
 Alpha virt. eigenvalues --    0.45897   0.46820   0.47578   0.48299   0.48810
 Alpha virt. eigenvalues --    0.49252   0.49554   0.50763   0.50921   0.51616
 Alpha virt. eigenvalues --    0.52579   0.52946   0.55056   0.55114   0.55773
 Alpha virt. eigenvalues --    0.56908   0.57537   0.58349   0.59609   0.60355
 Alpha virt. eigenvalues --    0.60788   0.61088   0.63434   0.64079   0.64289
 Alpha virt. eigenvalues --    0.65022   0.67673   0.68940   0.69172   0.69538
 Alpha virt. eigenvalues --    0.69940   0.72631   0.73253   0.74578   0.74822
 Alpha virt. eigenvalues --    0.75578   0.78067   0.79059   0.79734   0.81050
 Alpha virt. eigenvalues --    0.82120   0.82955   0.84780   0.85681   0.86773
 Alpha virt. eigenvalues --    0.87354   0.89447   0.91441   0.93370   0.93956
 Alpha virt. eigenvalues --    0.95088   0.99077   1.01069   1.02648   1.05263
 Alpha virt. eigenvalues --    1.14761   1.16145   1.16892   1.20654   1.23128
 Alpha virt. eigenvalues --    1.25628   1.26578   1.28315   1.31733   1.35400
 Alpha virt. eigenvalues --    1.36064   1.40698   1.41966   1.43816   1.48382
 Alpha virt. eigenvalues --    1.51810   1.53263   1.56980   1.62371   1.65445
 Alpha virt. eigenvalues --    1.67037   1.71262   1.76120   1.77342   1.79668
 Alpha virt. eigenvalues --    1.83427   1.85442   1.89969   1.97762   1.98880
 Alpha virt. eigenvalues --    2.01447   2.03892   2.05051   2.05547   2.07394
 Alpha virt. eigenvalues --    2.08168   2.11339   2.13334   2.14359   2.16004
 Alpha virt. eigenvalues --    2.17683   2.18762   2.21787   2.24351   2.25935
 Alpha virt. eigenvalues --    2.29387   2.30790   2.34766   2.41516   2.43021
 Alpha virt. eigenvalues --    2.44583   2.49001   2.50842   2.53051   2.56979
 Alpha virt. eigenvalues --    2.58292   2.58438   2.62482   2.64101   2.65492
 Alpha virt. eigenvalues --    2.66587   2.67891   2.72147   2.73486   2.74148
 Alpha virt. eigenvalues --    2.76450   2.77743   2.83318   2.89325   2.91122
 Alpha virt. eigenvalues --    2.93229   2.97215   3.01780   3.06348   3.12274
 Alpha virt. eigenvalues --    3.23000   3.27591   3.28650   3.32995   3.39751
 Alpha virt. eigenvalues --    3.42457   3.50532   3.57715   3.75720   3.81028
 Alpha virt. eigenvalues --    3.94094   3.97235   4.31490
          Condensed to atoms (all electrons):
 Mulliken charges:
               1
     1  N   -2.264449
     2  Si   5.606157
     3  H    0.665744
     4  H    0.651811
     5  C   -3.769008
     6  C   -4.048955
     7  C   -2.656608
     8  H    1.431443
     9  H    1.520069
    10  H    1.491835
    11  H    1.498177
    12  H    1.254750
    13  H    1.241742
    14  H    1.138503
    15  H   -1.881703
    16  H   -1.879508
 Sum of Mulliken charges =  -0.00000
 Mulliken charges with hydrogens summed into heavy atoms:
               1
     1  N   -0.946894
     2  Si   1.844946
     5  C   -0.134013
     6  C   -1.097443
     7  C    0.333404
 Electronic spatial extent (au):  <R**2>=            872.4464
 Charge=             -0.0000 electrons
 Dipole moment (field-independent basis, Debye):
    X=             -0.6120    Y=              1.2595    Z=             -0.5674  Tot=              1.5109

 Test job not archived.
 1\1\GINC-SE453\SP\RHF\Aug-CC-pVDZ\C3H11N1Si1\OHZDE\09-Apr-2025\0\\#t h
 f aug-cc-pvdz iop(5/13=1,5/36=2,99/5=2) pseudo=read geom=check guess=(
 read,tcheck) scf=(maxcycle=1)\\title\\0,1\N,0,2.130404,0.989671,-0.179
 336\Si,0,1.355088,-0.516241,0.151894\H,0,2.30653,1.299585,-1.123467\H,
 0,2.03496,1.771109,0.451392\C,0,-2.863903,0.224903,-0.098431\C,0,-0.46
 1733,-0.654974,-0.339686\C,0,-1.400354,0.36017,0.335588\H,0,-0.788676,
 -1.678844,-0.1091\H,0,-0.535536,-0.560302,-1.431763\H,0,-1.052722,1.37
 688,0.117082\H,0,-1.33586,0.247239,1.424524\H,0,-3.25417,-0.76952,0.13
 935\H,0,-2.968612,0.370577,-1.178142\H,0,-3.50011,0.961616,0.401163\H,
 0,1.466501,-0.71766,1.618276\H,0,2.099571,-1.581597,-0.565315\\Version
 =ES64L-G16RevC.01\State=1-A\HF=-464.4966153\RMSD=2.559e-01\Dipole=-0.2
 407825,0.4955189,-0.2232271\Quadrupole=-2.9750338,1.7109262,1.2641076,
 2.2511268,-1.3848873,-0.3694399\PG=C01 [X(C3H11N1Si1)]\\@


 I DO NOT KNOW WHAT I MAY APPEAR TO THE WORLD; BUT TO MYSELF
 I SEEM TO HAVE BEEN ONLY LIKE A BOY PLAYING ON THE SEASHORE,
 AND DIVERTING MYSELF IN NOW AND THEN FINDING A SMOOTHER PEBBLE
 OR A PRETTIER SHELL THAN ORDINARY, WHILST THE GREAT OCEAN OF
 TRUTH LAY ALL UNDISCOVERED BEFORE ME.
                                          -- NEWTON (1642-1726)
 Job cpu time:       0 days  0 hours  0 minutes 56.8 seconds.
 Elapsed time:       0 days  0 hours  0 minutes  4.3 seconds.
 File lengths (MBytes):  RWF=     10 Int=      0 D2E=      0 Chk=      7 Scr=      1
 Normal termination of Gaussian 16 at Wed Apr  9 00:00:47 2025.
