 Entering Gaussian System, Link 0=g16
 Input=BDE49_nonexpt_2524_mol1.gjf
 Output=BDE49_nonexpt_2524_mol1.log
 Initial command:
 /arc/software/Gaussian/g16.c01/l1.exe "/tmp/slurm/4852599/Gau-541848.inp" -scrdir="/tmp/slurm/4852599/"
 Entering Link 1 = /arc/software/Gaussian/g16.c01/l1.exe PID=    541849.
  
 Copyright (c) 1988-2019, Gaussian, Inc.  All Rights Reserved.
  
 This is part of the Gaussian(R) 16 program.  It is based on
 the Gaussian(R) 09 system (copyright 2009, Gaussian, Inc.),
 the Gaussian(R) 03 system (copyright 2003, Gaussian, Inc.),
 the Gaussian(R) 98 system (copyright 1998, Gaussian, Inc.),
 the Gaussian(R) 94 system (copyright 1995, Gaussian, Inc.),
 the Gaussian 92(TM) system (copyright 1992, Gaussian, Inc.),
 the Gaussian 90(TM) system (copyright 1990, Gaussian, Inc.),
 the Gaussian 88(TM) system (copyright 1988, Gaussian, Inc.),
 the Gaussian 86(TM) system (copyright 1986, Carnegie Mellon
 University), and the Gaussian 82(TM) system (copyright 1983,
 Carnegie Mellon University). Gaussian is a federally registered
 trademark of Gaussian, Inc.
  
 This software contains proprietary and confidential information,
 including trade secrets, belonging to Gaussian, Inc.
  
 This software is provided under written license and may be
 used, copied, transmitted, or stored only in accord with that
 written license.
  
 The following legend is applicable only to US Government
 contracts under FAR:
  
                    RESTRICTED RIGHTS LEGEND
  
 Use, reproduction and disclosure by the US Government is
 subject to restrictions as set forth in subparagraphs (a)
 and (c) of the Commercial Computer Software - Restricted
 Rights clause in FAR 52.227-19.
  
 Gaussian, Inc.
 340 Quinnipiac St., Bldg. 40, Wallingford CT 06492
  
  
 ---------------------------------------------------------------
 Warning -- This program may not be used in any manner that
 competes with the business of Gaussian, Inc. or will provide
 assistance to any competitor of Gaussian, Inc.  The licensee
 of this program is prohibited from giving any competitor of
 Gaussian, Inc. access to this program.  By using this program,
 the user acknowledges that Gaussian, Inc. is engaged in the
 business of creating and licensing software in the field of
 computational chemistry and represents and warrants to the
 licensee that it is not a competitor of Gaussian, Inc. and that
 it will not use this program in any manner prohibited above.
 ---------------------------------------------------------------
  

 Cite this work as:
 Gaussian 16, Revision C.01,
 M. J. Frisch, G. W. Trucks, H. B. Schlegel, G. E. Scuseria, 
 M. A. Robb, J. R. Cheeseman, G. Scalmani, V. Barone, 
 G. A. Petersson, H. Nakatsuji, X. Li, M. Caricato, A. V. Marenich, 
 J. Bloino, B. G. Janesko, R. Gomperts, B. Mennucci, H. P. Hratchian, 
 J. V. Ortiz, A. F. Izmaylov, J. L. Sonnenberg, D. Williams-Young, 
 F. Ding, F. Lipparini, F. Egidi, J. Goings, B. Peng, A. Petrone, 
 T. Henderson, D. Ranasinghe, V. G. Zakrzewski, J. Gao, N. Rega, 
 G. Zheng, W. Liang, M. Hada, M. Ehara, K. Toyota, R. Fukuda, 
 J. Hasegawa, M. Ishida, T. Nakajima, Y. Honda, O. Kitao, H. Nakai, 
 T. Vreven, K. Throssell, J. A. Montgomery, Jr., J. E. Peralta, 
 F. Ogliaro, M. J. Bearpark, J. J. Heyd, E. N. Brothers, K. N. Kudin, 
 V. N. Staroverov, T. A. Keith, R. Kobayashi, J. Normand, 
 K. Raghavachari, A. P. Rendell, J. C. Burant, S. S. Iyengar, 
 J. Tomasi, M. Cossi, J. M. Millam, M. Klene, C. Adamo, R. Cammi, 
 J. W. Ochterski, R. L. Martin, K. Morokuma, O. Farkas, 
 J. B. Foresman, and D. J. Fox, Gaussian, Inc., Wallingford CT, 2019.
 
 ******************************************
 Gaussian 16:  ES64L-G16RevC.01  3-Jul-2019
                 9-Apr-2025 
 ******************************************
 %nprocs=16
 Will use up to   16 processors via shared memory.
 %mem=30GB
 %chk=BDE49_nonexpt_2524_mol1.chk
 ----------------------------------------------------------------------
 #t hf aug-cc-pvdz symm=none int=(grid=ultrafine) guess=(read,tcheck) s
 table=(opt,rrhf)
 ----------------------------------------------------------------------
 -----
 title
 -----
 Symbolic Z-matrix:
 Charge =  0 Multiplicity = 1
 Cl                   -1.6839   -0.38949  -0.00363 
 S                     1.64857  -0.39229  -0.08864 
 S                     0.02724   0.84649   0.01572 
 H                     1.81332  -0.64582   1.22831 
 
                    Distance matrix (angstroms):
                    1          2          3          4
     1  Cl   0.000000
     2  S    3.333550   0.000000
     3  S    2.110921   2.043084   0.000000
     4  H    3.716701   1.351206   2.624393   0.000000
 Symmetry turned off by external request.
 Rotational constants (GHZ):          14.3282569           2.6455538           2.2676389
    90 basis functions,   254 primitive gaussians,    96 cartesian basis functions
    25 alpha electrons       25 beta electrons
       nuclear repulsion energy       189.5835745930 Hartrees.
 NAtoms=    4 NActive=    4 NUniq=    4 SFac= 1.00D+00 NAtFMM=   60 NAOKFM=F Big=F
 ExpMin= 2.97D-02 ExpMax= 1.28D+05 ExpMxC= 1.24D+03 IAcc=3 IRadAn=         5 AccDes= 0.00D+00
 Harris functional with IExCor=  205 and IRadAn=       5 diagonalized for initial guess.
 HarFok:  IExCor=  205 AccDes= 0.00D+00 IRadAn=         5 IDoV= 1 UseB2=F ITyADJ=14
 ICtDFT=  3500011 ScaDFX=  1.000000  1.000000  1.000000  1.000000
 FoFCou: FMM=F IPFlag=           0 FMFlag=      100000 FMFlg1=           0
         NFxFlg=           0 DoJE=T BraDBF=F KetDBF=T FulRan=T
         wScrn=  0.000000 ICntrl=       500 IOpCl=  0 I1Cent=   200000004 NGrid=           0
         NMat0=    1 NMatS0=      1 NMatT0=    0 NMatD0=    1 NMtDS0=    0 NMtDT0=    0
 Symmetry not used in FoFCou.
 SCF Done:  E(RHF) =  -1255.14259776     A.U. after   14 cycles
            NFock= 14  Conv=0.66D-08     -V/T= 2.0001

 **********************************************************************

            Population analysis using the SCF Density.

 **********************************************************************

 Alpha  occ. eigenvalues -- -104.85560 -92.05365 -92.01984 -10.58025  -9.04954
 Alpha  occ. eigenvalues --   -9.02046  -8.04790  -8.04414  -8.04387  -6.73078
 Alpha  occ. eigenvalues --   -6.72890  -6.72581  -6.70225  -6.70046  -6.69840
 Alpha  occ. eigenvalues --   -1.14429  -1.04764  -0.86973  -0.61227  -0.55459
 Alpha  occ. eigenvalues --   -0.53387  -0.50006  -0.45070  -0.40870  -0.38462
 Alpha virt. eigenvalues --    0.03214   0.03613   0.06178   0.10196   0.10720
 Alpha virt. eigenvalues --    0.11660   0.12883   0.13851   0.14533   0.14661
 Alpha virt. eigenvalues --    0.16068   0.17810   0.18512   0.21551   0.24649
 Alpha virt. eigenvalues --    0.28187   0.29158   0.32118   0.34436   0.39416
 Alpha virt. eigenvalues --    0.40488   0.43095   0.46663   0.47778   0.48884
 Alpha virt. eigenvalues --    0.52863   0.53400   0.56333   0.57580   0.58617
 Alpha virt. eigenvalues --    0.60687   0.65873   0.66350   0.69133   0.82782
 Alpha virt. eigenvalues --    0.84712   0.86681   0.91616   0.93895   0.96603
 Alpha virt. eigenvalues --    0.98279   0.99905   1.01772   1.08706   1.10586
 Alpha virt. eigenvalues --    1.10989   1.12180   1.14952   1.18648   1.20615
 Alpha virt. eigenvalues --    1.23878   1.27015   1.28611   1.32260   1.41337
 Alpha virt. eigenvalues --    1.42850   1.44956   1.46660   1.51910   1.54253
 Alpha virt. eigenvalues --    1.65971   1.79055   1.85862   1.97278   2.34726
          Condensed to atoms (all electrons):
 Mulliken charges:
               1
     1  Cl  -0.262585
     2  S   -0.107737
     3  S    0.146084
     4  H    0.224239
 Sum of Mulliken charges =  -0.00000
 Mulliken charges with hydrogens summed into heavy atoms:
               1
     1  Cl  -0.262585
     2  S    0.116502
     3  S    0.146084
 Electronic spatial extent (au):  <R**2>=            492.2120
 Charge=             -0.0000 electrons
 Dipole moment (field-independent basis, Debye):
    X=              1.5713    Y=             -0.0500    Z=              0.9220  Tot=              1.8225
 NROrb=     90 NOA=    25 NOB=    25 NVA=    65 NVB=    65

 **** Warning!!: The largest alpha MO coefficient is  0.10541111D+02

    12 initial guesses have been made.
 Iteration     1 Dimension    12 NMult     0 NNew     12
 Iteration     2 Dimension    24 NMult    12 NNew     12
 Iteration     3 Dimension    27 NMult    24 NNew      3
 Iteration     4 Dimension    30 NMult    27 NNew      3
 Iteration     5 Dimension    33 NMult    30 NNew      3
 ***********************************************************************
 Stability analysis using <AA,BB:AA,BB> singles matrix:
 ***********************************************************************
 Ground to excited state transition densities written to RWF  633

 Eigenvectors of the stability matrix:
 
 Excited state symmetry could not be determined.
 Eigenvector   1:      Singlet-?Sym  Eigenvalue= 0.1472798  <S**2>=0.000
      25 -> 26         0.58285
      25 -> 27        -0.18026
      25 -> 28         0.17453
      25 -> 29        -0.17439
      25 -> 34        -0.13755
 The wavefunction is stable under the perturbations considered.
 The wavefunction is already stable.

 **********************************************************************

            Population analysis using the SCF Density.

 **********************************************************************

 Alpha  occ. eigenvalues -- -104.85560 -92.05365 -92.01984 -10.58025  -9.04954
 Alpha  occ. eigenvalues --   -9.02046  -8.04790  -8.04414  -8.04387  -6.73078
 Alpha  occ. eigenvalues --   -6.72890  -6.72581  -6.70225  -6.70046  -6.69840
 Alpha  occ. eigenvalues --   -1.14429  -1.04764  -0.86973  -0.61227  -0.55459
 Alpha  occ. eigenvalues --   -0.53387  -0.50006  -0.45070  -0.40870  -0.38462
 Alpha virt. eigenvalues --    0.03214   0.03613   0.06178   0.10196   0.10720
 Alpha virt. eigenvalues --    0.11660   0.12883   0.13851   0.14533   0.14661
 Alpha virt. eigenvalues --    0.16068   0.17810   0.18512   0.21551   0.24649
 Alpha virt. eigenvalues --    0.28187   0.29158   0.32118   0.34436   0.39416
 Alpha virt. eigenvalues --    0.40488   0.43095   0.46663   0.47778   0.48884
 Alpha virt. eigenvalues --    0.52863   0.53400   0.56333   0.57580   0.58617
 Alpha virt. eigenvalues --    0.60687   0.65873   0.66350   0.69133   0.82782
 Alpha virt. eigenvalues --    0.84712   0.86681   0.91616   0.93895   0.96603
 Alpha virt. eigenvalues --    0.98279   0.99905   1.01772   1.08706   1.10586
 Alpha virt. eigenvalues --    1.10989   1.12180   1.14952   1.18648   1.20615
 Alpha virt. eigenvalues --    1.23878   1.27015   1.28611   1.32260   1.41337
 Alpha virt. eigenvalues --    1.42850   1.44956   1.46660   1.51910   1.54253
 Alpha virt. eigenvalues --    1.65971   1.79055   1.85862   1.97278   2.34726
          Condensed to atoms (all electrons):
 Mulliken charges:
               1
     1  Cl  -0.262585
     2  S   -0.107737
     3  S    0.146084
     4  H    0.224239
 Sum of Mulliken charges =  -0.00000
 Mulliken charges with hydrogens summed into heavy atoms:
               1
     1  Cl  -0.262585
     2  S    0.116502
     3  S    0.146084
 Electronic spatial extent (au):  <R**2>=            492.2120
 Charge=             -0.0000 electrons
 Dipole moment (field-independent basis, Debye):
    X=              1.5713    Y=             -0.0500    Z=              0.9220  Tot=              1.8225
 Unable to Open any file for archive entry.
 1\1\GINC-SE106\Stability\RHF\Aug-CC-pVDZ\Cl1H1S2\OHZDE\09-Apr-2025\0\\
 #t hf aug-cc-pvdz symm=none int=(grid=ultrafine) guess=(read,tcheck) s
 table=(opt,rrhf)\\title\\0,1\Cl,0,-1.683895,-0.389492,-0.003626\S,0,1.
 64857,-0.39229,-0.088636\S,0,0.027235,0.846489,0.01572\H,0,1.813319,-0
 .645815,1.228308\\Version=ES64L-G16RevC.01\HF=-1255.1425978\RMSD=6.618
 e-09\Dipole=0.6181789,-0.0196862,0.3627258\Quadrupole=0.4211705,-0.201
 8339,-0.2193366,-0.9698523,1.4811883,-0.7052429\PG=Unknown\\@
 The archive entry for this job was punched.


 WE STILL HAVE JUDGEMENT HERE,
 THAT WE TEACH BUT BLOODY INSTRUCTIONS,
 WHICH, BEING TAUGHT,
 RETURN TO PLAGUE THE INVENTOR.
           MACBETH ACT I, SCENE VII
 Job cpu time:       0 days  0 hours  0 minutes 22.0 seconds.
 Elapsed time:       0 days  0 hours  0 minutes  2.8 seconds.
 File lengths (MBytes):  RWF=     95 Int=      0 D2E=      0 Chk=      2 Scr=      1
 Normal termination of Gaussian 16 at Wed Apr  9 00:16:03 2025.
 Initial command:
 /arc/software/Gaussian/g16.c01/l1.exe "/tmp/slurm/4852599/Gau-541848.inp" -scrdir="/tmp/slurm/4852599/"
 Entering Link 1 = /arc/software/Gaussian/g16.c01/l1.exe PID=    542060.
  
 Copyright (c) 1988-2019, Gaussian, Inc.  All Rights Reserved.
  
 This is part of the Gaussian(R) 16 program.  It is based on
 the Gaussian(R) 09 system (copyright 2009, Gaussian, Inc.),
 the Gaussian(R) 03 system (copyright 2003, Gaussian, Inc.),
 the Gaussian(R) 98 system (copyright 1998, Gaussian, Inc.),
 the Gaussian(R) 94 system (copyright 1995, Gaussian, Inc.),
 the Gaussian 92(TM) system (copyright 1992, Gaussian, Inc.),
 the Gaussian 90(TM) system (copyright 1990, Gaussian, Inc.),
 the Gaussian 88(TM) system (copyright 1988, Gaussian, Inc.),
 the Gaussian 86(TM) system (copyright 1986, Carnegie Mellon
 University), and the Gaussian 82(TM) system (copyright 1983,
 Carnegie Mellon University). Gaussian is a federally registered
 trademark of Gaussian, Inc.
  
 This software contains proprietary and confidential information,
 including trade secrets, belonging to Gaussian, Inc.
  
 This software is provided under written license and may be
 used, copied, transmitted, or stored only in accord with that
 written license.
  
 The following legend is applicable only to US Government
 contracts under FAR:
  
                    RESTRICTED RIGHTS LEGEND
  
 Use, reproduction and disclosure by the US Government is
 subject to restrictions as set forth in subparagraphs (a)
 and (c) of the Commercial Computer Software - Restricted
 Rights clause in FAR 52.227-19.
  
 Gaussian, Inc.
 340 Quinnipiac St., Bldg. 40, Wallingford CT 06492
  
  
 ---------------------------------------------------------------
 Warning -- This program may not be used in any manner that
 competes with the business of Gaussian, Inc. or will provide
 assistance to any competitor of Gaussian, Inc.  The licensee
 of this program is prohibited from giving any competitor of
 Gaussian, Inc. access to this program.  By using this program,
 the user acknowledges that Gaussian, Inc. is engaged in the
 business of creating and licensing software in the field of
 computational chemistry and represents and warrants to the
 licensee that it is not a competitor of Gaussian, Inc. and that
 it will not use this program in any manner prohibited above.
 ---------------------------------------------------------------
  

 Cite this work as:
 Gaussian 16, Revision C.01,
 M. J. Frisch, G. W. Trucks, H. B. Schlegel, G. E. Scuseria, 
 M. A. Robb, J. R. Cheeseman, G. Scalmani, V. Barone, 
 G. A. Petersson, H. Nakatsuji, X. Li, M. Caricato, A. V. Marenich, 
 J. Bloino, B. G. Janesko, R. Gomperts, B. Mennucci, H. P. Hratchian, 
 J. V. Ortiz, A. F. Izmaylov, J. L. Sonnenberg, D. Williams-Young, 
 F. Ding, F. Lipparini, F. Egidi, J. Goings, B. Peng, A. Petrone, 
 T. Henderson, D. Ranasinghe, V. G. Zakrzewski, J. Gao, N. Rega, 
 G. Zheng, W. Liang, M. Hada, M. Ehara, K. Toyota, R. Fukuda, 
 J. Hasegawa, M. Ishida, T. Nakajima, Y. Honda, O. Kitao, H. Nakai, 
 T. Vreven, K. Throssell, J. A. Montgomery, Jr., J. E. Peralta, 
 F. Ogliaro, M. J. Bearpark, J. J. Heyd, E. N. Brothers, K. N. Kudin, 
 V. N. Staroverov, T. A. Keith, R. Kobayashi, J. Normand, 
 K. Raghavachari, A. P. Rendell, J. C. Burant, S. S. Iyengar, 
 J. Tomasi, M. Cossi, J. M. Millam, M. Klene, C. Adamo, R. Cammi, 
 J. W. Ochterski, R. L. Martin, K. Morokuma, O. Farkas, 
 J. B. Foresman, and D. J. Fox, Gaussian, Inc., Wallingford CT, 2019.
 
 ******************************************
 Gaussian 16:  ES64L-G16RevC.01  3-Jul-2019
                 9-Apr-2025 
 ******************************************
 %nprocs=16
 Will use up to   16 processors via shared memory.
 %mem=30GB
 %chk=BDE49_nonexpt_2524_mol1.chk
 ----------------------------------------------------------------------
 #t hf aug-cc-pvdz iop(5/13=1,5/36=2,99/5=2) pseudo=read geom=check gue
 ss=(read,tcheck) scf=(maxcycle=1)
 ----------------------------------------------------------------------
 -----
 title
 -----
 Structure from the checkpoint file:  "BDE49_nonexpt_2524_mol1.chk"
 Charge =  0 Multiplicity = 1
 Z-Matrix found in chk file.
 Cl,0,-1.683895,-0.389492,-0.003626
 S,0,1.64857,-0.39229,-0.088636
 S,0,0.027235,0.846489,0.01572
 H,0,1.813319,-0.645815,1.228308
 Recover connectivity data from disk.
                    Distance matrix (angstroms):
                    1          2          3          4
     1  Cl   0.000000
     2  S    3.333550   0.000000
     3  S    2.110921   2.043084   0.000000
     4  H    3.716701   1.351206   2.624393   0.000000
 Framework group  C1[X(ClHS2)]
 Deg. of freedom     6
                         Standard orientation:                         
 ---------------------------------------------------------------------
 Center     Atomic      Atomic             Coordinates (Angstroms)
 Number     Number       Type             X           Y           Z
 ---------------------------------------------------------------------
      1         17           0       -1.683895   -0.389492   -0.003626
      2         16           0        1.648570   -0.392290   -0.088636
      3         16           0        0.027235    0.846489    0.015720
      4          1           0        1.813319   -0.645815    1.228308
 ---------------------------------------------------------------------
 Rotational constants (GHZ):          14.3282569           2.6455538           2.2676389
 ======================================================================================================
                                       Pseudopotential Parameters
 ======================================================================================================
  Center     Atomic      Valence      Angular      Power
  Number     Number     Electrons     Momentum     of R      Exponent        Coefficient   SO-Coeffient
 ======================================================================================================
    1         17           17
                                      G and up 
                                                     0        0.0000010        0.00409650    0.00000000
                                                     2        0.1200000        0.06945192    0.00000000
                                                     2        0.1400000       -0.06660574    0.00000000
                                                     2        0.2200000        0.15305308    0.00000000
                                      S - G
                                                     0        0.0000010        0.00555482    0.00000000
                                                     2        0.2000000       -0.53060378    0.00000000
                                      P - G
                                                     0        0.0000010       -0.16962542    0.00000000
                                                     2        0.1200000        0.15585357    0.00000000
                                                     2        0.1800000       -0.79460714    0.00000000
                                                     2        0.5000000        1.36495881    0.00000000
                                      D - G
                                                     0        0.0000010        0.91266089    0.00000000
                                                     2        0.2400000       -1.50552862    0.00000000
                                      F - G
                                                     0        0.0000010       -0.76620800    0.00000000
                                                     2        0.1200000       -0.23737626    0.00000000
                                                     2        0.1800000        0.28531204    0.00000000
    2         16           16
                                      G and up 
                                                     0        0.0000010       -0.00444167    0.00000000
                                                     2        0.1200000        0.11677988    0.00000000
                                                     2        0.1400000       -0.22050378    0.00000000
                                                     2        0.1800000        0.26452031    0.00000000
                                                     2        0.2800000       -0.04353316    0.00000000
                                                     2        0.5000000       -1.18567514    0.00000000
                                      S - G
                                                     0        0.0000010        0.03992419    0.00000000
                                                     2        0.1200000       -0.56926432    0.00000000
                                                     2        0.3000000        0.88393965    0.00000000
                                      P - G
                                                     0        0.0000010       -0.92181603    0.00000000
                                                     2        0.1200000        1.30681810    0.00000000
                                                     2        0.2000000       -1.50828653    0.00000000
                                                     2        0.2400000       -2.25148793    0.00000000
                                                     2        0.6000000       10.10218731    0.00000000
                                      D - G
                                                     0        0.0000010        0.72039481    0.00000000
                                                     2        0.1200000       -0.56105075    0.00000000
                                                     2        0.2000000        0.42910414    0.00000000
                                                     2        0.8000000        0.44203418    0.00000000
                                      F - G
                                                     2        0.1200000       -0.62623060    0.00000000
                                                     2        0.1800000        0.89777932    0.00000000
                                                     2        0.5000000       -1.32991832    0.00000000
    3         16           16
                                      G and up 
                                                     0        0.0000010       -0.00444167    0.00000000
                                                     2        0.1200000        0.11677988    0.00000000
                                                     2        0.1400000       -0.22050378    0.00000000
                                                     2        0.1800000        0.26452031    0.00000000
                                                     2        0.2800000       -0.04353316    0.00000000
                                                     2        0.5000000       -1.18567514    0.00000000
                                      S - G
                                                     0        0.0000010        0.03992419    0.00000000
                                                     2        0.1200000       -0.56926432    0.00000000
                                                     2        0.3000000        0.88393965    0.00000000
                                      P - G
                                                     0        0.0000010       -0.92181603    0.00000000
                                                     2        0.1200000        1.30681810    0.00000000
                                                     2        0.2000000       -1.50828653    0.00000000
                                                     2        0.2400000       -2.25148793    0.00000000
                                                     2        0.6000000       10.10218731    0.00000000
                                      D - G
                                                     0        0.0000010        0.72039481    0.00000000
                                                     2        0.1200000       -0.56105075    0.00000000
                                                     2        0.2000000        0.42910414    0.00000000
                                                     2        0.8000000        0.44203418    0.00000000
                                      F - G
                                                     2        0.1200000       -0.62623060    0.00000000
                                                     2        0.1800000        0.89777932    0.00000000
                                                     2        0.5000000       -1.32991832    0.00000000
    4          1            1
                                      F and up 
                                                     0        0.0000010        0.00072061    0.00000000
                                                     2        0.1200000        0.03832357    0.00000000
                                                     2        0.1400000       -0.08683256    0.00000000
                                                     2        0.1800000        0.09312970    0.00000000
                                                     2        0.2800000       -0.02532572    0.00000000
                                                     2        0.4000000       -0.09430787    0.00000000
                                                     2        0.7000000        0.42710831    0.00000000
                                                     2        1.2000000       -2.11746981    0.00000000
                                      S - F
                                                     0        0.0000010        0.14449603    0.00000000
                                                     2        0.1200000       -0.56378993    0.00000000
                                                     2        0.1400000        0.63941249    0.00000000
                                                     2        0.2600000       -0.58461015    0.00000000
                                                     2        0.5000000        1.00157293    0.00000000
                                                     2        1.8000000       -0.14135838    0.00000000
                                      P - F
                                                     0        0.0000010       -0.09353646    0.00000000
                                                     2        0.1200000        0.31768975    0.00000000
                                                     2        0.2000000       -0.71747951    0.00000000
                                                     2        0.4000000        0.65752308    0.00000000
                                                     2        1.7000000        2.94052587    0.00000000
                                      D - F
                                                     0        0.0000010       -0.04491202    0.00000000
                                                     2        0.1200000       -0.02862031    0.00000000
                                                     2        0.1800000       -0.21515263    0.00000000
                                                     2        0.3000000        0.80560647    0.00000000
                                                     2        0.4000000        0.47351754    0.00000000
                                                     2        0.7000000       -4.57051794    0.00000000
                                                     2        1.6000000       18.53737826    0.00000000
 ======================================================================================================
    90 basis functions,   254 primitive gaussians,    96 cartesian basis functions
    25 alpha electrons       25 beta electrons
       nuclear repulsion energy       189.5835745930 Hartrees.
 NAtoms=    4 NActive=    4 NUniq=    4 SFac= 1.00D+00 NAtFMM=   60 NAOKFM=F Big=F
   1 Symmetry operations used in ECPInt.
 ECPInt:  NShTT=     741 NPrTT=    9685 LenC2=     739 LenP2D=    6559.
 LDataN:  DoStor=T MaxTD1= 6 Len=  172
 Initial guess from the checkpoint file:  "BDE49_nonexpt_2524_mol1.chk"
 B after Tr=     0.000001   -0.000000   -0.000000
         Rot=    1.000000    0.000000    0.000000   -0.000000 Ang=   0.00 deg.
 >>>>>>>>>> Convergence criterion not met.
 SCF Done:  E(RHF) =  -1255.83244017     A.U. after    2 cycles
            NFock=  1  Conv=0.74D-01     -V/T= 1.9894

 **********************************************************************

            Population analysis using the SCF Density.

 **********************************************************************

 Orbital symmetries:
       Occupied  (A) (A) (A) (A) (A) (A) (A) (A) (A) (A) (A) (A)
                 (A) (A) (A) (A) (A) (A) (A) (A) (A) (A) (A) (A)
                 (A)
       Virtual   (A) (A) (A) (A) (A) (A) (A) (A) (A) (A) (A) (A)
                 (A) (A) (A) (A) (A) (A) (A) (A) (A) (A) (A) (A)
                 (A) (A) (A) (A) (A) (A) (A) (A) (A) (A) (A) (A)
                 (A) (A) (A) (A) (A) (A) (A) (A) (A) (A) (A) (A)
                 (A) (A) (A) (A) (A) (A) (A) (A) (A) (A) (A) (A)
                 (A) (A) (A) (A) (A)
 The electronic state is 1-A.
 Alpha  occ. eigenvalues --  -99.91188 -75.77482 -75.74619 -13.16698 -13.13882
 Alpha  occ. eigenvalues --  -13.10971 -13.09879 -13.08489 -13.06013 -10.48249
 Alpha  occ. eigenvalues --   -9.67943  -9.67324  -9.67280  -8.11065  -8.08485
 Alpha  occ. eigenvalues --   -1.34622  -1.20719  -0.99127  -0.59262  -0.56241
 Alpha  occ. eigenvalues --   -0.55527  -0.51937  -0.38065  -0.31033  -0.27782
 Alpha virt. eigenvalues --    0.01989   0.02816   0.05900   0.09432   0.10043
 Alpha virt. eigenvalues --    0.12453   0.13446   0.14672   0.15173   0.16068
 Alpha virt. eigenvalues --    0.17134   0.17697   0.20720   0.21722   0.23457
 Alpha virt. eigenvalues --    0.24082   0.25151   0.27371   0.30457   0.32280
 Alpha virt. eigenvalues --    0.34795   0.36094   0.38687   0.39818   0.45633
 Alpha virt. eigenvalues --    0.47741   0.48539   0.49856   0.53414   0.55433
 Alpha virt. eigenvalues --    0.56245   0.60124   0.63180   0.65276   0.86187
 Alpha virt. eigenvalues --    0.86533   0.94356   0.96835   1.01193   1.06498
 Alpha virt. eigenvalues --    1.09185   1.09924   1.10424   1.13541   1.13722
 Alpha virt. eigenvalues --    1.15145   1.16522   1.17516   1.21396   1.22472
 Alpha virt. eigenvalues --    1.25239   1.25663   1.31020   1.31415   1.32888
 Alpha virt. eigenvalues --    1.35349   1.36698   1.46665   1.47885   1.56266
 Alpha virt. eigenvalues --    1.67596   1.76771   1.92760   2.03394   2.47080
          Condensed to atoms (all electrons):
 Mulliken charges:
               1
     1  Cl  -0.307537
     2  S   -0.963651
     3  S    0.045547
     4  H    1.225640
 Sum of Mulliken charges =  -0.00000
 Mulliken charges with hydrogens summed into heavy atoms:
               1
     1  Cl  -0.307537
     2  S    0.261989
     3  S    0.045547
 Electronic spatial extent (au):  <R**2>=            507.3366
 Charge=             -0.0000 electrons
 Dipole moment (field-independent basis, Debye):
    X=              3.7291    Y=              1.6162    Z=             -0.7792  Tot=              4.1383

 Test job not archived.
 1\1\GINC-SE106\SP\RHF\Aug-CC-pVDZ\Cl1H1S2\OHZDE\09-Apr-2025\0\\#t hf a
 ug-cc-pvdz iop(5/13=1,5/36=2,99/5=2) pseudo=read geom=check guess=(rea
 d,tcheck) scf=(maxcycle=1)\\title\\0,1\Cl,0,-1.683895,-0.389492,-0.003
 626\S,0,1.64857,-0.39229,-0.088636\S,0,0.027235,0.846489,0.01572\H,0,1
 .813319,-0.645815,1.228308\\Version=ES64L-G16RevC.01\State=1-A\HF=-125
 5.8324402\RMSD=7.362e-02\Dipole=1.4671377,0.6358656,-0.3065748\Quadrup
 ole=0.4568512,1.2433297,-1.7001809,-1.8715198,-0.7912141,-0.1036004\PG
 =C01 [X(Cl1H1S2)]\\@


 THE REASON MAN'S BEST FRIEND IS A DOG IS BECAUSE
 HE WAGS HIS TAIL INSTEAD OF HIS TONGUE.
 Job cpu time:       0 days  0 hours  0 minutes 10.2 seconds.
 Elapsed time:       0 days  0 hours  0 minutes  1.4 seconds.
 File lengths (MBytes):  RWF=      6 Int=      0 D2E=      0 Chk=      2 Scr=      1
 Normal termination of Gaussian 16 at Wed Apr  9 00:16:05 2025.
