 Entering Gaussian System, Link 0=g16
 Input=BDE49_nonexpt_975_mol1.gjf
 Output=BDE49_nonexpt_975_mol1.log
 Initial command:
 /arc/software/Gaussian/g16.c01/l1.exe "/tmp/slurm/4855668/Gau-2160595.inp" -scrdir="/tmp/slurm/4855668/"
 Entering Link 1 = /arc/software/Gaussian/g16.c01/l1.exe PID=   2160598.
  
 Copyright (c) 1988-2019, Gaussian, Inc.  All Rights Reserved.
  
 This is part of the Gaussian(R) 16 program.  It is based on
 the Gaussian(R) 09 system (copyright 2009, Gaussian, Inc.),
 the Gaussian(R) 03 system (copyright 2003, Gaussian, Inc.),
 the Gaussian(R) 98 system (copyright 1998, Gaussian, Inc.),
 the Gaussian(R) 94 system (copyright 1995, Gaussian, Inc.),
 the Gaussian 92(TM) system (copyright 1992, Gaussian, Inc.),
 the Gaussian 90(TM) system (copyright 1990, Gaussian, Inc.),
 the Gaussian 88(TM) system (copyright 1988, Gaussian, Inc.),
 the Gaussian 86(TM) system (copyright 1986, Carnegie Mellon
 University), and the Gaussian 82(TM) system (copyright 1983,
 Carnegie Mellon University). Gaussian is a federally registered
 trademark of Gaussian, Inc.
  
 This software contains proprietary and confidential information,
 including trade secrets, belonging to Gaussian, Inc.
  
 This software is provided under written license and may be
 used, copied, transmitted, or stored only in accord with that
 written license.
  
 The following legend is applicable only to US Government
 contracts under FAR:
  
                    RESTRICTED RIGHTS LEGEND
  
 Use, reproduction and disclosure by the US Government is
 subject to restrictions as set forth in subparagraphs (a)
 and (c) of the Commercial Computer Software - Restricted
 Rights clause in FAR 52.227-19.
  
 Gaussian, Inc.
 340 Quinnipiac St., Bldg. 40, Wallingford CT 06492
  
  
 ---------------------------------------------------------------
 Warning -- This program may not be used in any manner that
 competes with the business of Gaussian, Inc. or will provide
 assistance to any competitor of Gaussian, Inc.  The licensee
 of this program is prohibited from giving any competitor of
 Gaussian, Inc. access to this program.  By using this program,
 the user acknowledges that Gaussian, Inc. is engaged in the
 business of creating and licensing software in the field of
 computational chemistry and represents and warrants to the
 licensee that it is not a competitor of Gaussian, Inc. and that
 it will not use this program in any manner prohibited above.
 ---------------------------------------------------------------
  

 Cite this work as:
 Gaussian 16, Revision C.01,
 M. J. Frisch, G. W. Trucks, H. B. Schlegel, G. E. Scuseria, 
 M. A. Robb, J. R. Cheeseman, G. Scalmani, V. Barone, 
 G. A. Petersson, H. Nakatsuji, X. Li, M. Caricato, A. V. Marenich, 
 J. Bloino, B. G. Janesko, R. Gomperts, B. Mennucci, H. P. Hratchian, 
 J. V. Ortiz, A. F. Izmaylov, J. L. Sonnenberg, D. Williams-Young, 
 F. Ding, F. Lipparini, F. Egidi, J. Goings, B. Peng, A. Petrone, 
 T. Henderson, D. Ranasinghe, V. G. Zakrzewski, J. Gao, N. Rega, 
 G. Zheng, W. Liang, M. Hada, M. Ehara, K. Toyota, R. Fukuda, 
 J. Hasegawa, M. Ishida, T. Nakajima, Y. Honda, O. Kitao, H. Nakai, 
 T. Vreven, K. Throssell, J. A. Montgomery, Jr., J. E. Peralta, 
 F. Ogliaro, M. J. Bearpark, J. J. Heyd, E. N. Brothers, K. N. Kudin, 
 V. N. Staroverov, T. A. Keith, R. Kobayashi, J. Normand, 
 K. Raghavachari, A. P. Rendell, J. C. Burant, S. S. Iyengar, 
 J. Tomasi, M. Cossi, J. M. Millam, M. Klene, C. Adamo, R. Cammi, 
 J. W. Ochterski, R. L. Martin, K. Morokuma, O. Farkas, 
 J. B. Foresman, and D. J. Fox, Gaussian, Inc., Wallingford CT, 2019.
 
 ******************************************
 Gaussian 16:  ES64L-G16RevC.01  3-Jul-2019
                 9-Apr-2025 
 ******************************************
 %nprocs=16
 Will use up to   16 processors via shared memory.
 %mem=30GB
 %chk=BDE49_nonexpt_975_mol1.chk
 ----------------------------------------------------------------------
 #t hf aug-cc-pvdz symm=none int=(grid=ultrafine) guess=(read,tcheck) s
 table=(opt,rrhf)
 ----------------------------------------------------------------------
 -----
 title
 -----
 Symbolic Z-matrix:
 Charge =  0 Multiplicity = 1
 F                    -1.10814   2.134    -0.32202 
 F                     2.32027  -0.93759   0.12467 
 O                     1.62857   1.82608   0.15916 
 O                    -0.08771  -2.4453   -0.16982 
 N                    -0.56876   0.97789   0.25104 
 N                     1.07979  -0.43438  -0.10011 
 C                     0.83712   0.94051   0.10159 
 C                    -0.04     -1.25079  -0.18002 
 C                    -1.19326  -0.23857  -0.29664 
 H                    -1.38251  -0.08362  -1.36638 
 C                    -2.45723  -0.65849   0.4325 
 H                    -2.26339  -0.7847    1.49872 
 H                    -2.81591  -1.60519   0.02587 
 H                    -3.23131   0.09918   0.30217 
 
                    Distance matrix (angstroms):
                    1          2          3          4          5
     1  F    0.000000
     2  F    4.624737   0.000000
     3  O    2.795700   2.849123   0.000000
     4  O    4.694080   2.856263   4.615025   0.000000
     5  N    1.398534   3.468657   2.357146   3.482352   0.000000
     6  N    3.381251   1.357400   2.340525   2.326301   2.198991
     7  C    2.321183   2.393228   1.189094   3.520317   1.414296
     8  C    3.552167   2.400372   3.516570   1.195502   2.330759
     9  C    2.374234   3.607083   3.526086   2.471430   1.473005
    10  H    2.466534   4.082043   3.878251   2.947165   2.098815
    11  C    3.191766   4.795540   4.789739   3.028223   2.505395
    12  H    3.628844   4.787621   4.874209   3.205496   2.745033
    13  H    4.125415   5.180324   5.616472   2.861320   3.431134
    14  H    3.006322   5.650349   5.159562   4.071776   2.804267
                    6          7          8          9         10
     6  N    0.000000
     7  C    1.410638   0.000000
     8  C    1.388102   2.377061   0.000000
     9  C    2.289921   2.381442   1.538898   0.000000
    10  H    2.790950   2.851409   2.138244   1.097342   0.000000
    11  C    3.583914   3.676825   2.563013   1.518423   2.172898
    12  H    3.722340   3.813323   2.824688   2.160265   3.078351
    13  H    4.069781   4.453190   2.806006   2.145841   2.511607
    14  H    4.362579   4.159347   3.498484   2.150880   2.497102
                   11         12         13         14
    11  C    0.000000
    12  H    1.091018   0.000000
    13  H    1.090980   1.774192   0.000000
    14  H    1.090982   1.774781   1.775885   0.000000
 Symmetry turned off by external request.
 Rotational constants (GHZ):           1.6288817           1.5196149           0.8171101
   266 basis functions,   474 primitive gaussians,   286 cartesian basis functions
    38 alpha electrons       38 beta electrons
       nuclear repulsion energy       564.3155370677 Hartrees.
 NAtoms=   14 NActive=   14 NUniq=   14 SFac= 1.00D+00 NAtFMM=   60 NAOKFM=F Big=F
 ExpMin= 2.97D-02 ExpMax= 1.47D+04 ExpMxC= 5.03D+02 IAcc=3 IRadAn=         5 AccDes= 0.00D+00
 Harris functional with IExCor=  205 and IRadAn=       5 diagonalized for initial guess.
 HarFok:  IExCor=  205 AccDes= 0.00D+00 IRadAn=         5 IDoV= 1 UseB2=F ITyADJ=14
 ICtDFT=  3500011 ScaDFX=  1.000000  1.000000  1.000000  1.000000
 FoFCou: FMM=F IPFlag=           0 FMFlag=      100000 FMFlg1=           0
         NFxFlg=           0 DoJE=T BraDBF=F KetDBF=T FulRan=T
         wScrn=  0.000000 ICntrl=       500 IOpCl=  0 I1Cent=   200000004 NGrid=           0
         NMat0=    1 NMatS0=      1 NMatT0=    0 NMatD0=    1 NMtDS0=    0 NMtDT0=    0
 Symmetry not used in FoFCou.
 SCF Done:  E(RHF) =  -611.236564002     A.U. after   15 cycles
            NFock= 15  Conv=0.60D-08     -V/T= 2.0015

 **********************************************************************

            Population analysis using the SCF Density.

 **********************************************************************

 Alpha  occ. eigenvalues --  -26.40411 -26.37764 -20.60825 -20.60572 -15.74810
 Alpha  occ. eigenvalues --  -15.72983 -11.46140 -11.43454 -11.35049 -11.27047
 Alpha  occ. eigenvalues --   -1.70782  -1.67336  -1.47426  -1.45903  -1.34237
 Alpha  occ. eigenvalues --   -1.20767  -1.08796  -0.96842  -0.90272  -0.87805
 Alpha  occ. eigenvalues --   -0.79648  -0.78262  -0.76595  -0.75106  -0.72752
 Alpha  occ. eigenvalues --   -0.71728  -0.68734  -0.68116  -0.66771  -0.64384
 Alpha  occ. eigenvalues --   -0.60302  -0.59068  -0.58362  -0.57142  -0.51858
 Alpha  occ. eigenvalues --   -0.48939  -0.47197  -0.46439
 Alpha virt. eigenvalues --    0.02746   0.03957   0.05186   0.05523   0.07831
 Alpha virt. eigenvalues --    0.08687   0.09028   0.10220   0.10361   0.11160
 Alpha virt. eigenvalues --    0.12450   0.12958   0.13760   0.13963   0.14506
 Alpha virt. eigenvalues --    0.14644   0.15261   0.16481   0.16698   0.17575
 Alpha virt. eigenvalues --    0.19451   0.20358   0.21516   0.22188   0.22690
 Alpha virt. eigenvalues --    0.24461   0.25902   0.26472   0.27354   0.27993
 Alpha virt. eigenvalues --    0.28484   0.29720   0.30421   0.30792   0.31852
 Alpha virt. eigenvalues --    0.32275   0.32702   0.33921   0.34038   0.34112
 Alpha virt. eigenvalues --    0.34764   0.35759   0.36255   0.36996   0.37797
 Alpha virt. eigenvalues --    0.38448   0.38797   0.39873   0.41531   0.42331
 Alpha virt. eigenvalues --    0.42943   0.44218   0.44790   0.45409   0.45823
 Alpha virt. eigenvalues --    0.47512   0.48205   0.48735   0.50280   0.51374
 Alpha virt. eigenvalues --    0.54163   0.55006   0.55699   0.56790   0.57495
 Alpha virt. eigenvalues --    0.58547   0.60306   0.61807   0.62557   0.63370
 Alpha virt. eigenvalues --    0.63970   0.65502   0.66335   0.67539   0.68870
 Alpha virt. eigenvalues --    0.70266   0.71285   0.72431   0.73306   0.74418
 Alpha virt. eigenvalues --    0.75235   0.78635   0.78960   0.81074   0.81859
 Alpha virt. eigenvalues --    0.82538   0.83585   0.83719   0.84624   0.86984
 Alpha virt. eigenvalues --    0.88414   0.90837   0.92182   0.93745   0.94996
 Alpha virt. eigenvalues --    0.95675   0.97837   1.00161   1.03032   1.03999
 Alpha virt. eigenvalues --    1.04946   1.06847   1.09342   1.11273   1.13879
 Alpha virt. eigenvalues --    1.16696   1.16727   1.18375   1.20182   1.21102
 Alpha virt. eigenvalues --    1.24077   1.25346   1.25834   1.28893   1.29514
 Alpha virt. eigenvalues --    1.31992   1.33321   1.33645   1.36777   1.38536
 Alpha virt. eigenvalues --    1.40791   1.42725   1.45215   1.46009   1.47411
 Alpha virt. eigenvalues --    1.48197   1.51208   1.52318   1.53535   1.55692
 Alpha virt. eigenvalues --    1.58038   1.58605   1.60033   1.61582   1.64045
 Alpha virt. eigenvalues --    1.65903   1.68979   1.69583   1.70907   1.73379
 Alpha virt. eigenvalues --    1.75971   1.77877   1.81136   1.81994   1.82658
 Alpha virt. eigenvalues --    1.85521   1.85858   1.87040   1.89022   1.90352
 Alpha virt. eigenvalues --    1.92240   1.94659   1.97124   2.00478   2.02362
 Alpha virt. eigenvalues --    2.04372   2.05019   2.07908   2.10471   2.12059
 Alpha virt. eigenvalues --    2.15168   2.17934   2.19622   2.22914   2.24018
 Alpha virt. eigenvalues --    2.24314   2.27892   2.32590   2.33104   2.34247
 Alpha virt. eigenvalues --    2.34814   2.37480   2.40445   2.43394   2.45481
 Alpha virt. eigenvalues --    2.47992   2.51235   2.53922   2.54510   2.57545
 Alpha virt. eigenvalues --    2.61572   2.63966   2.65195   2.68090   2.69329
 Alpha virt. eigenvalues --    2.71608   2.75069   2.78091   2.81668   2.84524
 Alpha virt. eigenvalues --    2.85781   2.89598   2.95127   2.98628   3.01588
 Alpha virt. eigenvalues --    3.04583   3.06135   3.10025   3.10878   3.17185
 Alpha virt. eigenvalues --    3.21617   3.28231   3.38552   3.40130   3.53289
 Alpha virt. eigenvalues --    3.71054   3.73493   3.74011   3.77196   3.79011
 Alpha virt. eigenvalues --    3.79464   3.83399   3.97134   4.00637   4.07039
 Alpha virt. eigenvalues --    4.14377   4.24163   4.44701   4.90351   4.95392
 Alpha virt. eigenvalues --    4.96804   5.00318   5.07141   5.08971   5.10039
 Alpha virt. eigenvalues --    5.13439   5.15254   5.17597
          Condensed to atoms (all electrons):
 Mulliken charges:
               1
     1  F   -0.604853
     2  F   -0.636187
     3  O   -0.608784
     4  O   -0.665387
     5  N   -0.221764
     6  N    0.000959
     7  C    1.224416
     8  C    0.828740
     9  C   -0.026753
    10  H   -0.040870
    11  C    0.684976
    12  H    0.038950
    13  H    0.016271
    14  H    0.010287
 Sum of Mulliken charges =  -0.00000
 Mulliken charges with hydrogens summed into heavy atoms:
               1
     1  F   -0.604853
     2  F   -0.636187
     3  O   -0.608784
     4  O   -0.665387
     5  N   -0.221764
     6  N    0.000959
     7  C    1.224416
     8  C    0.828740
     9  C   -0.067624
    11  C    0.750484
 Electronic spatial extent (au):  <R**2>=           1297.9810
 Charge=             -0.0000 electrons
 Dipole moment (field-independent basis, Debye):
    X=             -3.4210    Y=             -0.7272    Z=             -0.5867  Tot=              3.5463
 NROrb=    266 NOA=    38 NOB=    38 NVA=   228 NVB=   228

 **** Warning!!: The largest alpha MO coefficient is  0.47918267D+02

    12 initial guesses have been made.
 Iteration     1 Dimension    12 NMult     0 NNew     12
 New state      1 was old state      3
 Iteration     2 Dimension    24 NMult    12 NNew     12
 Iteration     3 Dimension    27 NMult    24 NNew      3
 Iteration     4 Dimension    30 NMult    27 NNew      3
 Iteration     5 Dimension    33 NMult    30 NNew      3
 Iteration     6 Dimension    36 NMult    33 NNew      3
 ***********************************************************************
 Stability analysis using <AA,BB:AA,BB> singles matrix:
 ***********************************************************************
 Ground to excited state transition densities written to RWF  633

 Eigenvectors of the stability matrix:
 
 Excited state symmetry could not be determined.
 Eigenvector   1:      Singlet-?Sym  Eigenvalue= 0.2349442  <S**2>=0.000
      36 -> 44         0.10172
      36 -> 46         0.21485
      36 -> 47        -0.31166
      36 -> 48        -0.10038
      36 -> 54         0.11745
      38 -> 46         0.19806
      38 -> 47        -0.25751
 The wavefunction is stable under the perturbations considered.
 The wavefunction is already stable.

 **********************************************************************

            Population analysis using the SCF Density.

 **********************************************************************

 Alpha  occ. eigenvalues --  -26.40411 -26.37764 -20.60825 -20.60572 -15.74810
 Alpha  occ. eigenvalues --  -15.72983 -11.46140 -11.43454 -11.35049 -11.27047
 Alpha  occ. eigenvalues --   -1.70782  -1.67336  -1.47426  -1.45903  -1.34237
 Alpha  occ. eigenvalues --   -1.20767  -1.08796  -0.96842  -0.90272  -0.87805
 Alpha  occ. eigenvalues --   -0.79648  -0.78262  -0.76595  -0.75106  -0.72752
 Alpha  occ. eigenvalues --   -0.71728  -0.68734  -0.68116  -0.66771  -0.64384
 Alpha  occ. eigenvalues --   -0.60302  -0.59068  -0.58362  -0.57142  -0.51858
 Alpha  occ. eigenvalues --   -0.48939  -0.47197  -0.46439
 Alpha virt. eigenvalues --    0.02746   0.03957   0.05186   0.05523   0.07831
 Alpha virt. eigenvalues --    0.08687   0.09028   0.10220   0.10361   0.11160
 Alpha virt. eigenvalues --    0.12450   0.12958   0.13760   0.13963   0.14506
 Alpha virt. eigenvalues --    0.14644   0.15261   0.16481   0.16698   0.17575
 Alpha virt. eigenvalues --    0.19451   0.20358   0.21516   0.22188   0.22690
 Alpha virt. eigenvalues --    0.24461   0.25902   0.26472   0.27354   0.27993
 Alpha virt. eigenvalues --    0.28484   0.29720   0.30421   0.30792   0.31852
 Alpha virt. eigenvalues --    0.32275   0.32702   0.33921   0.34038   0.34112
 Alpha virt. eigenvalues --    0.34764   0.35759   0.36255   0.36996   0.37797
 Alpha virt. eigenvalues --    0.38448   0.38797   0.39873   0.41531   0.42331
 Alpha virt. eigenvalues --    0.42943   0.44218   0.44790   0.45409   0.45823
 Alpha virt. eigenvalues --    0.47512   0.48205   0.48735   0.50280   0.51374
 Alpha virt. eigenvalues --    0.54163   0.55006   0.55699   0.56790   0.57495
 Alpha virt. eigenvalues --    0.58547   0.60306   0.61807   0.62557   0.63370
 Alpha virt. eigenvalues --    0.63970   0.65502   0.66335   0.67539   0.68870
 Alpha virt. eigenvalues --    0.70266   0.71285   0.72431   0.73306   0.74418
 Alpha virt. eigenvalues --    0.75235   0.78635   0.78960   0.81074   0.81859
 Alpha virt. eigenvalues --    0.82538   0.83585   0.83719   0.84624   0.86984
 Alpha virt. eigenvalues --    0.88414   0.90837   0.92182   0.93745   0.94996
 Alpha virt. eigenvalues --    0.95675   0.97837   1.00161   1.03032   1.03999
 Alpha virt. eigenvalues --    1.04946   1.06847   1.09342   1.11273   1.13879
 Alpha virt. eigenvalues --    1.16696   1.16727   1.18375   1.20182   1.21102
 Alpha virt. eigenvalues --    1.24077   1.25346   1.25834   1.28893   1.29514
 Alpha virt. eigenvalues --    1.31992   1.33321   1.33645   1.36777   1.38536
 Alpha virt. eigenvalues --    1.40791   1.42725   1.45215   1.46009   1.47411
 Alpha virt. eigenvalues --    1.48197   1.51208   1.52318   1.53535   1.55692
 Alpha virt. eigenvalues --    1.58038   1.58605   1.60033   1.61582   1.64045
 Alpha virt. eigenvalues --    1.65903   1.68979   1.69583   1.70907   1.73379
 Alpha virt. eigenvalues --    1.75971   1.77877   1.81136   1.81994   1.82658
 Alpha virt. eigenvalues --    1.85521   1.85858   1.87040   1.89022   1.90352
 Alpha virt. eigenvalues --    1.92240   1.94659   1.97124   2.00478   2.02362
 Alpha virt. eigenvalues --    2.04372   2.05019   2.07908   2.10471   2.12059
 Alpha virt. eigenvalues --    2.15168   2.17934   2.19622   2.22914   2.24018
 Alpha virt. eigenvalues --    2.24314   2.27892   2.32590   2.33104   2.34247
 Alpha virt. eigenvalues --    2.34814   2.37480   2.40445   2.43394   2.45481
 Alpha virt. eigenvalues --    2.47992   2.51235   2.53922   2.54510   2.57545
 Alpha virt. eigenvalues --    2.61572   2.63966   2.65195   2.68090   2.69329
 Alpha virt. eigenvalues --    2.71608   2.75069   2.78091   2.81668   2.84524
 Alpha virt. eigenvalues --    2.85781   2.89598   2.95127   2.98628   3.01588
 Alpha virt. eigenvalues --    3.04583   3.06135   3.10025   3.10878   3.17185
 Alpha virt. eigenvalues --    3.21617   3.28231   3.38552   3.40130   3.53289
 Alpha virt. eigenvalues --    3.71054   3.73493   3.74011   3.77196   3.79011
 Alpha virt. eigenvalues --    3.79464   3.83399   3.97134   4.00637   4.07039
 Alpha virt. eigenvalues --    4.14377   4.24163   4.44701   4.90351   4.95392
 Alpha virt. eigenvalues --    4.96804   5.00318   5.07141   5.08971   5.10039
 Alpha virt. eigenvalues --    5.13439   5.15254   5.17597
          Condensed to atoms (all electrons):
 Mulliken charges:
               1
     1  F   -0.604853
     2  F   -0.636187
     3  O   -0.608784
     4  O   -0.665387
     5  N   -0.221764
     6  N    0.000959
     7  C    1.224416
     8  C    0.828740
     9  C   -0.026753
    10  H   -0.040870
    11  C    0.684976
    12  H    0.038950
    13  H    0.016271
    14  H    0.010287
 Sum of Mulliken charges =  -0.00000
 Mulliken charges with hydrogens summed into heavy atoms:
               1
     1  F   -0.604853
     2  F   -0.636187
     3  O   -0.608784
     4  O   -0.665387
     5  N   -0.221764
     6  N    0.000959
     7  C    1.224416
     8  C    0.828740
     9  C   -0.067624
    11  C    0.750484
 Electronic spatial extent (au):  <R**2>=           1297.9810
 Charge=             -0.0000 electrons
 Dipole moment (field-independent basis, Debye):
    X=             -3.4210    Y=             -0.7272    Z=             -0.5867  Tot=              3.5463
 Unable to Open any file for archive entry.
 1\1\GINC-SE123\Stability\RHF\Aug-CC-pVDZ\C4H4F2N2O2\OHZDE\09-Apr-2025\
 0\\#t hf aug-cc-pvdz symm=none int=(grid=ultrafine) guess=(read,tcheck
 ) stable=(opt,rrhf)\\title\\0,1\F,0,-1.108137,2.133998,-0.322024\F,0,2
 .320271,-0.937594,0.124668\O,0,1.628573,1.826075,0.159161\O,0,-0.08770
 5,-2.445297,-0.169822\N,0,-0.568763,0.977894,0.251035\N,0,1.079791,-0.
 434384,-0.100109\C,0,0.837118,0.940507,0.101594\C,0,-0.039996,-1.25079
 1,-0.180016\C,0,-1.193262,-0.238574,-0.296643\H,0,-1.38251,-0.083621,-
 1.366379\C,0,-2.457233,-0.658491,0.432504\H,0,-2.263387,-0.7847,1.4987
 19\H,0,-2.815906,-1.605192,0.025874\H,0,-3.231309,0.099176,0.302167\\V
 ersion=ES64L-G16RevC.01\HF=-611.236564\RMSD=6.020e-09\Dipole=-1.345938
 9,-0.2861059,-0.2308278\Quadrupole=3.2302234,-8.5415873,5.3113639,-0.8
 080831,0.086348,-0.7211614\PG=Unknown\\@
 The archive entry for this job was punched.


 THE RED LIGHT IS ALWAYS LONGER THAN THE GREEN LIGHT.

                     -- PETER'S THEORY OF RELATIVITY
 Job cpu time:       0 days  0 hours 12 minutes 38.1 seconds.
 Elapsed time:       0 days  0 hours  0 minutes 53.4 seconds.
 File lengths (MBytes):  RWF=    363 Int=      0 D2E=      0 Chk=     10 Scr=      1
 Normal termination of Gaussian 16 at Wed Apr  9 00:54:28 2025.
 Initial command:
 /arc/software/Gaussian/g16.c01/l1.exe "/tmp/slurm/4855668/Gau-2160595.inp" -scrdir="/tmp/slurm/4855668/"
 Entering Link 1 = /arc/software/Gaussian/g16.c01/l1.exe PID=   2161351.
  
 Copyright (c) 1988-2019, Gaussian, Inc.  All Rights Reserved.
  
 This is part of the Gaussian(R) 16 program.  It is based on
 the Gaussian(R) 09 system (copyright 2009, Gaussian, Inc.),
 the Gaussian(R) 03 system (copyright 2003, Gaussian, Inc.),
 the Gaussian(R) 98 system (copyright 1998, Gaussian, Inc.),
 the Gaussian(R) 94 system (copyright 1995, Gaussian, Inc.),
 the Gaussian 92(TM) system (copyright 1992, Gaussian, Inc.),
 the Gaussian 90(TM) system (copyright 1990, Gaussian, Inc.),
 the Gaussian 88(TM) system (copyright 1988, Gaussian, Inc.),
 the Gaussian 86(TM) system (copyright 1986, Carnegie Mellon
 University), and the Gaussian 82(TM) system (copyright 1983,
 Carnegie Mellon University). Gaussian is a federally registered
 trademark of Gaussian, Inc.
  
 This software contains proprietary and confidential information,
 including trade secrets, belonging to Gaussian, Inc.
  
 This software is provided under written license and may be
 used, copied, transmitted, or stored only in accord with that
 written license.
  
 The following legend is applicable only to US Government
 contracts under FAR:
  
                    RESTRICTED RIGHTS LEGEND
  
 Use, reproduction and disclosure by the US Government is
 subject to restrictions as set forth in subparagraphs (a)
 and (c) of the Commercial Computer Software - Restricted
 Rights clause in FAR 52.227-19.
  
 Gaussian, Inc.
 340 Quinnipiac St., Bldg. 40, Wallingford CT 06492
  
  
 ---------------------------------------------------------------
 Warning -- This program may not be used in any manner that
 competes with the business of Gaussian, Inc. or will provide
 assistance to any competitor of Gaussian, Inc.  The licensee
 of this program is prohibited from giving any competitor of
 Gaussian, Inc. access to this program.  By using this program,
 the user acknowledges that Gaussian, Inc. is engaged in the
 business of creating and licensing software in the field of
 computational chemistry and represents and warrants to the
 licensee that it is not a competitor of Gaussian, Inc. and that
 it will not use this program in any manner prohibited above.
 ---------------------------------------------------------------
  

 Cite this work as:
 Gaussian 16, Revision C.01,
 M. J. Frisch, G. W. Trucks, H. B. Schlegel, G. E. Scuseria, 
 M. A. Robb, J. R. Cheeseman, G. Scalmani, V. Barone, 
 G. A. Petersson, H. Nakatsuji, X. Li, M. Caricato, A. V. Marenich, 
 J. Bloino, B. G. Janesko, R. Gomperts, B. Mennucci, H. P. Hratchian, 
 J. V. Ortiz, A. F. Izmaylov, J. L. Sonnenberg, D. Williams-Young, 
 F. Ding, F. Lipparini, F. Egidi, J. Goings, B. Peng, A. Petrone, 
 T. Henderson, D. Ranasinghe, V. G. Zakrzewski, J. Gao, N. Rega, 
 G. Zheng, W. Liang, M. Hada, M. Ehara, K. Toyota, R. Fukuda, 
 J. Hasegawa, M. Ishida, T. Nakajima, Y. Honda, O. Kitao, H. Nakai, 
 T. Vreven, K. Throssell, J. A. Montgomery, Jr., J. E. Peralta, 
 F. Ogliaro, M. J. Bearpark, J. J. Heyd, E. N. Brothers, K. N. Kudin, 
 V. N. Staroverov, T. A. Keith, R. Kobayashi, J. Normand, 
 K. Raghavachari, A. P. Rendell, J. C. Burant, S. S. Iyengar, 
 J. Tomasi, M. Cossi, J. M. Millam, M. Klene, C. Adamo, R. Cammi, 
 J. W. Ochterski, R. L. Martin, K. Morokuma, O. Farkas, 
 J. B. Foresman, and D. J. Fox, Gaussian, Inc., Wallingford CT, 2019.
 
 ******************************************
 Gaussian 16:  ES64L-G16RevC.01  3-Jul-2019
                 9-Apr-2025 
 ******************************************
 %nprocs=16
 Will use up to   16 processors via shared memory.
 %mem=30GB
 %chk=BDE49_nonexpt_975_mol1.chk
 ----------------------------------------------------------------------
 #t hf aug-cc-pvdz iop(5/13=1,5/36=2,99/5=2) pseudo=read geom=check gue
 ss=(read,tcheck) scf=(maxcycle=1)
 ----------------------------------------------------------------------
 -----
 title
 -----
 Structure from the checkpoint file:  "BDE49_nonexpt_975_mol1.chk"
 Charge =  0 Multiplicity = 1
 Z-Matrix found in chk file.
 F,0,-1.108137,2.133998,-0.322024
 F,0,2.320271,-0.937594,0.124668
 O,0,1.628573,1.826075,0.159161
 O,0,-0.087705,-2.445297,-0.169822
 N,0,-0.568763,0.977894,0.251035
 N,0,1.079791,-0.434384,-0.100109
 C,0,0.837118,0.940507,0.101594
 C,0,-0.039996,-1.250791,-0.180016
 C,0,-1.193262,-0.238574,-0.296643
 H,0,-1.38251,-0.083621,-1.366379
 C,0,-2.457233,-0.658491,0.432504
 H,0,-2.263387,-0.7847,1.498719
 H,0,-2.815906,-1.605192,0.025874
 H,0,-3.231309,0.099176,0.302167
 Recover connectivity data from disk.
                    Distance matrix (angstroms):
                    1          2          3          4          5
     1  F    0.000000
     2  F    4.624737   0.000000
     3  O    2.795700   2.849123   0.000000
     4  O    4.694080   2.856263   4.615025   0.000000
     5  N    1.398534   3.468657   2.357146   3.482352   0.000000
     6  N    3.381251   1.357400   2.340525   2.326301   2.198991
     7  C    2.321183   2.393228   1.189094   3.520317   1.414296
     8  C    3.552167   2.400372   3.516570   1.195502   2.330759
     9  C    2.374234   3.607083   3.526086   2.471430   1.473005
    10  H    2.466534   4.082043   3.878251   2.947165   2.098815
    11  C    3.191766   4.795540   4.789739   3.028223   2.505395
    12  H    3.628844   4.787621   4.874209   3.205496   2.745033
    13  H    4.125415   5.180324   5.616472   2.861320   3.431134
    14  H    3.006322   5.650349   5.159562   4.071776   2.804267
                    6          7          8          9         10
     6  N    0.000000
     7  C    1.410638   0.000000
     8  C    1.388102   2.377061   0.000000
     9  C    2.289921   2.381442   1.538898   0.000000
    10  H    2.790950   2.851409   2.138244   1.097342   0.000000
    11  C    3.583914   3.676825   2.563013   1.518423   2.172898
    12  H    3.722340   3.813323   2.824688   2.160265   3.078351
    13  H    4.069781   4.453190   2.806006   2.145841   2.511607
    14  H    4.362579   4.159347   3.498484   2.150880   2.497102
                   11         12         13         14
    11  C    0.000000
    12  H    1.091018   0.000000
    13  H    1.090980   1.774192   0.000000
    14  H    1.090982   1.774781   1.775885   0.000000
 Framework group  C1[X(C4H4F2N2O2)]
 Deg. of freedom    36
                         Standard orientation:                         
 ---------------------------------------------------------------------
 Center     Atomic      Atomic             Coordinates (Angstroms)
 Number     Number       Type             X           Y           Z
 ---------------------------------------------------------------------
      1          9           0       -1.108142    2.133995   -0.322024
      2          9           0        2.320273   -0.937588    0.124668
      3          8           0        1.628568    1.826079    0.159161
      4          8           0       -0.087699   -2.445297   -0.169822
      5          7           0       -0.568765    0.977893    0.251035
      6          7           0        1.079792   -0.434381   -0.100109
      7          6           0        0.837116    0.940509    0.101594
      8          6           0       -0.039993   -1.250791   -0.180016
      9          6           0       -1.193261   -0.238577   -0.296643
     10          1           0       -1.382510   -0.083624   -1.366379
     11          6           0       -2.457231   -0.658497    0.432504
     12          1           0       -2.263385   -0.784706    1.498719
     13          1           0       -2.815902   -1.605199    0.025874
     14          1           0       -3.231309    0.099168    0.302167
 ---------------------------------------------------------------------
 Rotational constants (GHZ):           1.6288817           1.5196149           0.8171101
 ======================================================================================================
                                       Pseudopotential Parameters
 ======================================================================================================
  Center     Atomic      Valence      Angular      Power
  Number     Number     Electrons     Momentum     of R      Exponent        Coefficient   SO-Coeffient
 ======================================================================================================
    1          9            9
                                      G and up 
                                                     0        0.0000010       -0.00152163    0.00000000
                                                     2        0.1200000       -0.09043016    0.00000000
                                                     2        0.1400000        0.25628512    0.00000000
                                                     2        0.2000000       -0.31987377    0.00000000
                                                     2        0.3000000        0.48912429    0.00000000
                                                     2        0.4000000        0.12183688    0.00000000
                                                     2        0.6000000       -0.79963093    0.00000000
                                                     2        1.3000000        1.98943307    0.00000000
                                      S - G
                                                     0        0.0000010       -0.05404402    0.00000000
                                                     2        0.1200000        1.31674577    0.00000000
                                                     2        0.2400000       -4.28550771    0.00000000
                                                     2        0.8000000        7.13027769    0.00000000
                                      P - G
                                                     0        0.0000010       -0.03280113    0.00000000
                                                     2        0.1200000       -0.11684768    0.00000000
                                                     2        0.2200000       -0.54710751    0.00000000
                                                     2        0.6000000        1.00412264    0.00000000
                                      D - G
                                                     0        0.0000010       -0.09872413    0.00000000
                                                     2        0.1600000        0.32020158    0.00000000
                                                     2        0.5000000       -3.54424892    0.00000000
                                      F - G
                                                     0        0.0000010        0.17152509    0.00000000
                                                     2        0.1200000       -0.51731546    0.00000000
                                                     2        0.4000000        2.52461867    0.00000000
    2          9            9
                                      G and up 
                                                     0        0.0000010       -0.00152163    0.00000000
                                                     2        0.1200000       -0.09043016    0.00000000
                                                     2        0.1400000        0.25628512    0.00000000
                                                     2        0.2000000       -0.31987377    0.00000000
                                                     2        0.3000000        0.48912429    0.00000000
                                                     2        0.4000000        0.12183688    0.00000000
                                                     2        0.6000000       -0.79963093    0.00000000
                                                     2        1.3000000        1.98943307    0.00000000
                                      S - G
                                                     0        0.0000010       -0.05404402    0.00000000
                                                     2        0.1200000        1.31674577    0.00000000
                                                     2        0.2400000       -4.28550771    0.00000000
                                                     2        0.8000000        7.13027769    0.00000000
                                      P - G
                                                     0        0.0000010       -0.03280113    0.00000000
                                                     2        0.1200000       -0.11684768    0.00000000
                                                     2        0.2200000       -0.54710751    0.00000000
                                                     2        0.6000000        1.00412264    0.00000000
                                      D - G
                                                     0        0.0000010       -0.09872413    0.00000000
                                                     2        0.1600000        0.32020158    0.00000000
                                                     2        0.5000000       -3.54424892    0.00000000
                                      F - G
                                                     0        0.0000010        0.17152509    0.00000000
                                                     2        0.1200000       -0.51731546    0.00000000
                                                     2        0.4000000        2.52461867    0.00000000
    3          8            8
                                      G and up 
                                                     0        0.0000010       -0.00165251    0.00000000
                                                     2        0.1200000       -0.10937202    0.00000000
                                                     2        0.1400000        0.35668905    0.00000000
                                                     2        0.1800000       -0.51696033    0.00000000
                                                     2        0.2400000        0.52446472    0.00000000
                                                     2        0.4000000       -0.07754493    0.00000000
                                                     2        0.8000000       -1.90560988    0.00000000
                                                     2        1.7000000        0.19857963    0.00000000
                                      S - G
                                                     0        0.0000010       -0.03845181    0.00000000
                                                     2        0.1400000        0.42024558    0.00000000
                                                     2        0.4000000       -4.10467779    0.00000000
                                                     2        1.3000000        9.99571838    0.00000000
                                      P - G
                                                     0        0.0000010        0.33206183    0.00000000
                                                     2        0.1200000       -0.18708141    0.00000000
                                                     2        0.2800000       -0.18179081    0.00000000
                                                     2        0.7000000        1.18820394    0.00000000
                                      D - G
                                                     0        0.0000010       -0.57891674    0.00000000
                                                     2        0.1200000        0.60487490    0.00000000
                                                     2        0.2400000       -0.24931464    0.00000000
                                                     2        0.3000000       -2.75054612    0.00000000
                                                     2        1.0000000       15.96776040    0.00000000
                                      F - G
                                                     0        0.0000010        0.37449041    0.00000000
                                                     2        0.1200000       -0.63373642    0.00000000
                                                     2        0.1400000       -0.08412804    0.00000000
                                                     2        0.2800000        2.62321406    0.00000000
                                                     2        0.6000000       -2.68223623    0.00000000
    4          8            8
                                      G and up 
                                                     0        0.0000010       -0.00165251    0.00000000
                                                     2        0.1200000       -0.10937202    0.00000000
                                                     2        0.1400000        0.35668905    0.00000000
                                                     2        0.1800000       -0.51696033    0.00000000
                                                     2        0.2400000        0.52446472    0.00000000
                                                     2        0.4000000       -0.07754493    0.00000000
                                                     2        0.8000000       -1.90560988    0.00000000
                                                     2        1.7000000        0.19857963    0.00000000
                                      S - G
                                                     0        0.0000010       -0.03845181    0.00000000
                                                     2        0.1400000        0.42024558    0.00000000
                                                     2        0.4000000       -4.10467779    0.00000000
                                                     2        1.3000000        9.99571838    0.00000000
                                      P - G
                                                     0        0.0000010        0.33206183    0.00000000
                                                     2        0.1200000       -0.18708141    0.00000000
                                                     2        0.2800000       -0.18179081    0.00000000
                                                     2        0.7000000        1.18820394    0.00000000
                                      D - G
                                                     0        0.0000010       -0.57891674    0.00000000
                                                     2        0.1200000        0.60487490    0.00000000
                                                     2        0.2400000       -0.24931464    0.00000000
                                                     2        0.3000000       -2.75054612    0.00000000
                                                     2        1.0000000       15.96776040    0.00000000
                                      F - G
                                                     0        0.0000010        0.37449041    0.00000000
                                                     2        0.1200000       -0.63373642    0.00000000
                                                     2        0.1400000       -0.08412804    0.00000000
                                                     2        0.2800000        2.62321406    0.00000000
                                                     2        0.6000000       -2.68223623    0.00000000
    5          7            7
                                      G and up 
                                                     0        0.0000010        0.00420138    0.00000000
                                                     2        0.1200000        0.05872431    0.00000000
                                                     2        0.1400000       -0.08436978    0.00000000
                                                     2        0.2000000        0.05409159    0.00000000
                                                     2        0.2600000        0.14199713    0.00000000
                                                     2        0.6000000       -0.79062770    0.00000000
                                                     2        0.7000000       -0.14441060    0.00000000
                                                     2        1.5000000        0.73772979    0.00000000
                                      S - G
                                                     0        0.0000010       -0.03094411    0.00000000
                                                     2        0.1200000        0.65332522    0.00000000
                                                     2        0.1800000       -1.38149133    0.00000000
                                                     2        1.3000000        3.29267299    0.00000000
                                      P - G
                                                     0        0.0000010        0.07303105    0.00000000
                                                     2        0.1200000        0.23145115    0.00000000
                                                     2        0.2000000       -1.20679699    0.00000000
                                                     2        0.4000000        1.75088447    0.00000000
                                                     2        1.2000000       -0.67486559    0.00000000
                                      D - G
                                                     0        0.0000010        0.07560739    0.00000000
                                                     2        0.3000000       -0.68679114    0.00000000
                                                     2        0.9000000        3.60133241    0.00000000
                                      F - G
                                                     0        0.0000010       -0.18221184    0.00000000
                                                     2        0.1200000       -0.39369067    0.00000000
                                                     2        0.1800000        0.72091725    0.00000000
                                                     2        0.6000000        0.15946111    0.00000000
    6          7            7
                                      G and up 
                                                     0        0.0000010        0.00420138    0.00000000
                                                     2        0.1200000        0.05872431    0.00000000
                                                     2        0.1400000       -0.08436978    0.00000000
                                                     2        0.2000000        0.05409159    0.00000000
                                                     2        0.2600000        0.14199713    0.00000000
                                                     2        0.6000000       -0.79062770    0.00000000
                                                     2        0.7000000       -0.14441060    0.00000000
                                                     2        1.5000000        0.73772979    0.00000000
                                      S - G
                                                     0        0.0000010       -0.03094411    0.00000000
                                                     2        0.1200000        0.65332522    0.00000000
                                                     2        0.1800000       -1.38149133    0.00000000
                                                     2        1.3000000        3.29267299    0.00000000
                                      P - G
                                                     0        0.0000010        0.07303105    0.00000000
                                                     2        0.1200000        0.23145115    0.00000000
                                                     2        0.2000000       -1.20679699    0.00000000
                                                     2        0.4000000        1.75088447    0.00000000
                                                     2        1.2000000       -0.67486559    0.00000000
                                      D - G
                                                     0        0.0000010        0.07560739    0.00000000
                                                     2        0.3000000       -0.68679114    0.00000000
                                                     2        0.9000000        3.60133241    0.00000000
                                      F - G
                                                     0        0.0000010       -0.18221184    0.00000000
                                                     2        0.1200000       -0.39369067    0.00000000
                                                     2        0.1800000        0.72091725    0.00000000
                                                     2        0.6000000        0.15946111    0.00000000
    7          6            6
                                      G and up 
                                                     0        0.0000010       -0.00286759    0.00000000
                                                     2        0.1200000        0.03193960    0.00000000
                                                     2        0.1600000       -0.04027782    0.00000000
                                                     2        0.2600000        0.24782456    0.00000000
                                                     2        0.4000000       -0.62266671    0.00000000
                                                     2        0.7000000        0.35695227    0.00000000
                                      S - G
                                                     0        0.0000010       -0.06602313    0.00000000
                                                     2        0.1200000        1.47277455    0.00000000
                                                     2        0.1600000       -4.06924166    0.00000000
                                                     2        0.3000000        5.02952802    0.00000000
                                                     2        0.7000000       -5.65856978    0.00000000
                                                     2        1.7000000        8.57604414    0.00000000
                                      P - G
                                                     0        0.0000010        0.49434425    0.00000000
                                                     2        0.1200000       -1.37391547    0.00000000
                                                     2        0.1600000        3.65411806    0.00000000
                                                     2        0.2800000       -7.36479843    0.00000000
                                                     2        0.6000000       17.22091285    0.00000000
                                                     2        1.1000000      -23.50107827    0.00000000
                                                     2        3.0000000       16.29464063    0.00000000
                                      D - G
                                                     0        0.0000010       -0.28693103    0.00000000
                                                     2        0.1200000        0.12273044    0.00000000
                                                     2        0.3000000       -0.43416384    0.00000000
                                                     2        0.7000000        2.23358493    0.00000000
                                      F - G
                                                     0        0.0000010        0.07263570    0.00000000
                                                     2        0.1400000       -0.76152861    0.00000000
                                                     2        0.2200000        1.98045593    0.00000000
                                                     2        0.4000000       -2.42426427    0.00000000
                                                     2        0.7000000        0.52335237    0.00000000
    8          6            6
                                      G and up 
                                                     0        0.0000010       -0.00286759    0.00000000
                                                     2        0.1200000        0.03193960    0.00000000
                                                     2        0.1600000       -0.04027782    0.00000000
                                                     2        0.2600000        0.24782456    0.00000000
                                                     2        0.4000000       -0.62266671    0.00000000
                                                     2        0.7000000        0.35695227    0.00000000
                                      S - G
                                                     0        0.0000010       -0.06602313    0.00000000
                                                     2        0.1200000        1.47277455    0.00000000
                                                     2        0.1600000       -4.06924166    0.00000000
                                                     2        0.3000000        5.02952802    0.00000000
                                                     2        0.7000000       -5.65856978    0.00000000
                                                     2        1.7000000        8.57604414    0.00000000
                                      P - G
                                                     0        0.0000010        0.49434425    0.00000000
                                                     2        0.1200000       -1.37391547    0.00000000
                                                     2        0.1600000        3.65411806    0.00000000
                                                     2        0.2800000       -7.36479843    0.00000000
                                                     2        0.6000000       17.22091285    0.00000000
                                                     2        1.1000000      -23.50107827    0.00000000
                                                     2        3.0000000       16.29464063    0.00000000
                                      D - G
                                                     0        0.0000010       -0.28693103    0.00000000
                                                     2        0.1200000        0.12273044    0.00000000
                                                     2        0.3000000       -0.43416384    0.00000000
                                                     2        0.7000000        2.23358493    0.00000000
                                      F - G
                                                     0        0.0000010        0.07263570    0.00000000
                                                     2        0.1400000       -0.76152861    0.00000000
                                                     2        0.2200000        1.98045593    0.00000000
                                                     2        0.4000000       -2.42426427    0.00000000
                                                     2        0.7000000        0.52335237    0.00000000
    9          6            6
                                      G and up 
                                                     0        0.0000010       -0.00286759    0.00000000
                                                     2        0.1200000        0.03193960    0.00000000
                                                     2        0.1600000       -0.04027782    0.00000000
                                                     2        0.2600000        0.24782456    0.00000000
                                                     2        0.4000000       -0.62266671    0.00000000
                                                     2        0.7000000        0.35695227    0.00000000
                                      S - G
                                                     0        0.0000010       -0.06602313    0.00000000
                                                     2        0.1200000        1.47277455    0.00000000
                                                     2        0.1600000       -4.06924166    0.00000000
                                                     2        0.3000000        5.02952802    0.00000000
                                                     2        0.7000000       -5.65856978    0.00000000
                                                     2        1.7000000        8.57604414    0.00000000
                                      P - G
                                                     0        0.0000010        0.49434425    0.00000000
                                                     2        0.1200000       -1.37391547    0.00000000
                                                     2        0.1600000        3.65411806    0.00000000
                                                     2        0.2800000       -7.36479843    0.00000000
                                                     2        0.6000000       17.22091285    0.00000000
                                                     2        1.1000000      -23.50107827    0.00000000
                                                     2        3.0000000       16.29464063    0.00000000
                                      D - G
                                                     0        0.0000010       -0.28693103    0.00000000
                                                     2        0.1200000        0.12273044    0.00000000
                                                     2        0.3000000       -0.43416384    0.00000000
                                                     2        0.7000000        2.23358493    0.00000000
                                      F - G
                                                     0        0.0000010        0.07263570    0.00000000
                                                     2        0.1400000       -0.76152861    0.00000000
                                                     2        0.2200000        1.98045593    0.00000000
                                                     2        0.4000000       -2.42426427    0.00000000
                                                     2        0.7000000        0.52335237    0.00000000
   10          1            1
                                      F and up 
                                                     0        0.0000010        0.00072061    0.00000000
                                                     2        0.1200000        0.03832357    0.00000000
                                                     2        0.1400000       -0.08683256    0.00000000
                                                     2        0.1800000        0.09312970    0.00000000
                                                     2        0.2800000       -0.02532572    0.00000000
                                                     2        0.4000000       -0.09430787    0.00000000
                                                     2        0.7000000        0.42710831    0.00000000
                                                     2        1.2000000       -2.11746981    0.00000000
                                      S - F
                                                     0        0.0000010        0.14449603    0.00000000
                                                     2        0.1200000       -0.56378993    0.00000000
                                                     2        0.1400000        0.63941249    0.00000000
                                                     2        0.2600000       -0.58461015    0.00000000
                                                     2        0.5000000        1.00157293    0.00000000
                                                     2        1.8000000       -0.14135838    0.00000000
                                      P - F
                                                     0        0.0000010       -0.09353646    0.00000000
                                                     2        0.1200000        0.31768975    0.00000000
                                                     2        0.2000000       -0.71747951    0.00000000
                                                     2        0.4000000        0.65752308    0.00000000
                                                     2        1.7000000        2.94052587    0.00000000
                                      D - F
                                                     0        0.0000010       -0.04491202    0.00000000
                                                     2        0.1200000       -0.02862031    0.00000000
                                                     2        0.1800000       -0.21515263    0.00000000
                                                     2        0.3000000        0.80560647    0.00000000
                                                     2        0.4000000        0.47351754    0.00000000
                                                     2        0.7000000       -4.57051794    0.00000000
                                                     2        1.6000000       18.53737826    0.00000000
   11          6            6
                                      G and up 
                                                     0        0.0000010       -0.00286759    0.00000000
                                                     2        0.1200000        0.03193960    0.00000000
                                                     2        0.1600000       -0.04027782    0.00000000
                                                     2        0.2600000        0.24782456    0.00000000
                                                     2        0.4000000       -0.62266671    0.00000000
                                                     2        0.7000000        0.35695227    0.00000000
                                      S - G
                                                     0        0.0000010       -0.06602313    0.00000000
                                                     2        0.1200000        1.47277455    0.00000000
                                                     2        0.1600000       -4.06924166    0.00000000
                                                     2        0.3000000        5.02952802    0.00000000
                                                     2        0.7000000       -5.65856978    0.00000000
                                                     2        1.7000000        8.57604414    0.00000000
                                      P - G
                                                     0        0.0000010        0.49434425    0.00000000
                                                     2        0.1200000       -1.37391547    0.00000000
                                                     2        0.1600000        3.65411806    0.00000000
                                                     2        0.2800000       -7.36479843    0.00000000
                                                     2        0.6000000       17.22091285    0.00000000
                                                     2        1.1000000      -23.50107827    0.00000000
                                                     2        3.0000000       16.29464063    0.00000000
                                      D - G
                                                     0        0.0000010       -0.28693103    0.00000000
                                                     2        0.1200000        0.12273044    0.00000000
                                                     2        0.3000000       -0.43416384    0.00000000
                                                     2        0.7000000        2.23358493    0.00000000
                                      F - G
                                                     0        0.0000010        0.07263570    0.00000000
                                                     2        0.1400000       -0.76152861    0.00000000
                                                     2        0.2200000        1.98045593    0.00000000
                                                     2        0.4000000       -2.42426427    0.00000000
                                                     2        0.7000000        0.52335237    0.00000000
   12          1            1
                                      F and up 
                                                     0        0.0000010        0.00072061    0.00000000
                                                     2        0.1200000        0.03832357    0.00000000
                                                     2        0.1400000       -0.08683256    0.00000000
                                                     2        0.1800000        0.09312970    0.00000000
                                                     2        0.2800000       -0.02532572    0.00000000
                                                     2        0.4000000       -0.09430787    0.00000000
                                                     2        0.7000000        0.42710831    0.00000000
                                                     2        1.2000000       -2.11746981    0.00000000
                                      S - F
                                                     0        0.0000010        0.14449603    0.00000000
                                                     2        0.1200000       -0.56378993    0.00000000
                                                     2        0.1400000        0.63941249    0.00000000
                                                     2        0.2600000       -0.58461015    0.00000000
                                                     2        0.5000000        1.00157293    0.00000000
                                                     2        1.8000000       -0.14135838    0.00000000
                                      P - F
                                                     0        0.0000010       -0.09353646    0.00000000
                                                     2        0.1200000        0.31768975    0.00000000
                                                     2        0.2000000       -0.71747951    0.00000000
                                                     2        0.4000000        0.65752308    0.00000000
                                                     2        1.7000000        2.94052587    0.00000000
                                      D - F
                                                     0        0.0000010       -0.04491202    0.00000000
                                                     2        0.1200000       -0.02862031    0.00000000
                                                     2        0.1800000       -0.21515263    0.00000000
                                                     2        0.3000000        0.80560647    0.00000000
                                                     2        0.4000000        0.47351754    0.00000000
                                                     2        0.7000000       -4.57051794    0.00000000
                                                     2        1.6000000       18.53737826    0.00000000
   13          1            1
                                      F and up 
                                                     0        0.0000010        0.00072061    0.00000000
                                                     2        0.1200000        0.03832357    0.00000000
                                                     2        0.1400000       -0.08683256    0.00000000
                                                     2        0.1800000        0.09312970    0.00000000
                                                     2        0.2800000       -0.02532572    0.00000000
                                                     2        0.4000000       -0.09430787    0.00000000
                                                     2        0.7000000        0.42710831    0.00000000
                                                     2        1.2000000       -2.11746981    0.00000000
                                      S - F
                                                     0        0.0000010        0.14449603    0.00000000
                                                     2        0.1200000       -0.56378993    0.00000000
                                                     2        0.1400000        0.63941249    0.00000000
                                                     2        0.2600000       -0.58461015    0.00000000
                                                     2        0.5000000        1.00157293    0.00000000
                                                     2        1.8000000       -0.14135838    0.00000000
                                      P - F
                                                     0        0.0000010       -0.09353646    0.00000000
                                                     2        0.1200000        0.31768975    0.00000000
                                                     2        0.2000000       -0.71747951    0.00000000
                                                     2        0.4000000        0.65752308    0.00000000
                                                     2        1.7000000        2.94052587    0.00000000
                                      D - F
                                                     0        0.0000010       -0.04491202    0.00000000
                                                     2        0.1200000       -0.02862031    0.00000000
                                                     2        0.1800000       -0.21515263    0.00000000
                                                     2        0.3000000        0.80560647    0.00000000
                                                     2        0.4000000        0.47351754    0.00000000
                                                     2        0.7000000       -4.57051794    0.00000000
                                                     2        1.6000000       18.53737826    0.00000000
   14          1            1
                                      F and up 
                                                     0        0.0000010        0.00072061    0.00000000
                                                     2        0.1200000        0.03832357    0.00000000
                                                     2        0.1400000       -0.08683256    0.00000000
                                                     2        0.1800000        0.09312970    0.00000000
                                                     2        0.2800000       -0.02532572    0.00000000
                                                     2        0.4000000       -0.09430787    0.00000000
                                                     2        0.7000000        0.42710831    0.00000000
                                                     2        1.2000000       -2.11746981    0.00000000
                                      S - F
                                                     0        0.0000010        0.14449603    0.00000000
                                                     2        0.1200000       -0.56378993    0.00000000
                                                     2        0.1400000        0.63941249    0.00000000
                                                     2        0.2600000       -0.58461015    0.00000000
                                                     2        0.5000000        1.00157293    0.00000000
                                                     2        1.8000000       -0.14135838    0.00000000
                                      P - F
                                                     0        0.0000010       -0.09353646    0.00000000
                                                     2        0.1200000        0.31768975    0.00000000
                                                     2        0.2000000       -0.71747951    0.00000000
                                                     2        0.4000000        0.65752308    0.00000000
                                                     2        1.7000000        2.94052587    0.00000000
                                      D - F
                                                     0        0.0000010       -0.04491202    0.00000000
                                                     2        0.1200000       -0.02862031    0.00000000
                                                     2        0.1800000       -0.21515263    0.00000000
                                                     2        0.3000000        0.80560647    0.00000000
                                                     2        0.4000000        0.47351754    0.00000000
                                                     2        0.7000000       -4.57051794    0.00000000
                                                     2        1.6000000       18.53737826    0.00000000
 ======================================================================================================
   266 basis functions,   474 primitive gaussians,   286 cartesian basis functions
    38 alpha electrons       38 beta electrons
       nuclear repulsion energy       564.3155370677 Hartrees.
 NAtoms=   14 NActive=   14 NUniq=   14 SFac= 1.00D+00 NAtFMM=   60 NAOKFM=F Big=F
   1 Symmetry operations used in ECPInt.
 ECPInt:  NShTT=    6105 NPrTT=   33873 LenC2=    6057 LenP2D=   23784.
 LDataN:  DoStor=T MaxTD1= 6 Len=  172
 Initial guess from the checkpoint file:  "BDE49_nonexpt_975_mol1.chk"
 B after Tr=     0.000000    0.000000   -0.000000
         Rot=    1.000000   -0.000000   -0.000000   -0.000001 Ang=  -0.00 deg.
 >>>>>>>>>> Convergence criterion not met.
 SCF Done:  E(RHF) =  -613.700547529     A.U. after    2 cycles
            NFock=  1  Conv=0.32D+00     -V/T= 2.0541

 **********************************************************************

            Population analysis using the SCF Density.

 **********************************************************************

 Orbital symmetries:
       Occupied  (A) (A) (A) (A) (A) (A) (A) (A) (A) (A) (A) (A)
                 (A) (A) (A) (A) (A) (A) (A) (A) (A) (A) (A) (A)
                 (A) (A) (A) (A) (A) (A) (A) (A) (A) (A) (A) (A)
                 (A) (A)
       Virtual   (A) (A) (A) (A) (A) (A) (A) (A) (A) (A) (A) (A)
                 (A) (A) (A) (A) (A) (A) (A) (A) (A) (A) (A) (A)
                 (A) (A) (A) (A) (A) (A) (A) (A) (A) (A) (A) (A)
                 (A) (A) (A) (A) (A) (A) (A) (A) (A) (A) (A) (A)
                 (A) (A) (A) (A) (A) (A) (A) (A) (A) (A) (A) (A)
                 (A) (A) (A) (A) (A) (A) (A) (A) (A) (A) (A) (A)
                 (A) (A) (A) (A) (A) (A) (A) (A) (A) (A) (A) (A)
                 (A) (A) (A) (A) (A) (A) (A) (A) (A) (A) (A) (A)
                 (A) (A) (A) (A) (A) (A) (A) (A) (A) (A) (A) (A)
                 (A) (A) (A) (A) (A) (A) (A) (A) (A) (A) (A) (A)
                 (A) (A) (A) (A) (A) (A) (A) (A) (A) (A) (A) (A)
                 (A) (A) (A) (A) (A) (A) (A) (A) (A) (A) (A) (A)
                 (A) (A) (A) (A) (A) (A) (A) (A) (A) (A) (A) (A)
                 (A) (A) (A) (A) (A) (A) (A) (A) (A) (A) (A) (A)
                 (A) (A) (A) (A) (A) (A) (A) (A) (A) (A) (A) (A)
                 (A) (A) (A) (A) (A) (A) (A) (A) (A) (A) (A) (A)
                 (A) (A) (A) (A) (A) (A) (A) (A) (A) (A) (A) (A)
                 (A) (A) (A) (A) (A) (A) (A) (A) (A) (A) (A) (A)
                 (A) (A) (A) (A) (A) (A) (A) (A) (A) (A) (A) (A)
 The electronic state is 1-A.
 Alpha  occ. eigenvalues --  -29.35223 -29.32356 -21.10144 -21.09908 -15.87729
 Alpha  occ. eigenvalues --  -15.85785 -11.58855 -11.58013 -11.50422 -11.42215
 Alpha  occ. eigenvalues --   -1.80086  -1.77119  -1.59880  -1.45590  -1.19838
 Alpha  occ. eigenvalues --   -1.04115  -0.98920  -0.90391  -0.78657  -0.75653
 Alpha  occ. eigenvalues --   -0.72088  -0.67700  -0.61717  -0.59960  -0.58769
 Alpha  occ. eigenvalues --   -0.56423  -0.55702  -0.54072  -0.45852  -0.45401
 Alpha  occ. eigenvalues --   -0.43962  -0.41508  -0.37772  -0.35878  -0.31801
 Alpha  occ. eigenvalues --   -0.29282  -0.26922  -0.24582
 Alpha virt. eigenvalues --    0.03352   0.04912   0.05695   0.06005   0.09038
 Alpha virt. eigenvalues --    0.09682   0.10052   0.10563   0.11368   0.12391
 Alpha virt. eigenvalues --    0.12956   0.13236   0.13702   0.14106   0.14946
 Alpha virt. eigenvalues --    0.15055   0.17231   0.17661   0.18266   0.18974
 Alpha virt. eigenvalues --    0.20225   0.20581   0.21820   0.22604   0.23484
 Alpha virt. eigenvalues --    0.24949   0.26714   0.27679   0.28152   0.29245
 Alpha virt. eigenvalues --    0.29424   0.29806   0.30437   0.31226   0.31628
 Alpha virt. eigenvalues --    0.32370   0.32992   0.33237   0.34450   0.34801
 Alpha virt. eigenvalues --    0.36043   0.36590   0.37033   0.37429   0.37744
 Alpha virt. eigenvalues --    0.39733   0.40235   0.41108   0.42240   0.42932
 Alpha virt. eigenvalues --    0.44499   0.44998   0.45588   0.46480   0.46982
 Alpha virt. eigenvalues --    0.47481   0.48506   0.50028   0.51720   0.52140
 Alpha virt. eigenvalues --    0.53500   0.54716   0.54876   0.56198   0.58024
 Alpha virt. eigenvalues --    0.58967   0.60778   0.61062   0.63327   0.63776
 Alpha virt. eigenvalues --    0.64942   0.66432   0.67727   0.68090   0.68235
 Alpha virt. eigenvalues --    0.70142   0.70965   0.71445   0.72052   0.72671
 Alpha virt. eigenvalues --    0.74571   0.75439   0.76839   0.77878   0.78877
 Alpha virt. eigenvalues --    0.79724   0.80616   0.82365   0.83164   0.84320
 Alpha virt. eigenvalues --    0.86333   0.88336   0.88972   0.89624   0.92289
 Alpha virt. eigenvalues --    0.93014   0.94705   0.96134   0.97286   0.99183
 Alpha virt. eigenvalues --    1.00618   1.01352   1.03886   1.04874   1.06878
 Alpha virt. eigenvalues --    1.08474   1.09479   1.13157   1.15861   1.19446
 Alpha virt. eigenvalues --    1.21300   1.22713   1.25655   1.25702   1.26975
 Alpha virt. eigenvalues --    1.28670   1.31085   1.33673   1.34153   1.36614
 Alpha virt. eigenvalues --    1.38636   1.40198   1.41163   1.44239   1.46920
 Alpha virt. eigenvalues --    1.48190   1.54286   1.55990   1.61422   1.64677
 Alpha virt. eigenvalues --    1.65698   1.68649   1.70542   1.73490   1.77316
 Alpha virt. eigenvalues --    1.78401   1.83176   1.84224   1.86269   1.92985
 Alpha virt. eigenvalues --    1.95158   1.96547   1.97451   2.00565   2.04765
 Alpha virt. eigenvalues --    2.06523   2.08210   2.11752   2.14820   2.16052
 Alpha virt. eigenvalues --    2.18876   2.20826   2.23087   2.27505   2.28961
 Alpha virt. eigenvalues --    2.33491   2.35057   2.36911   2.38863   2.41226
 Alpha virt. eigenvalues --    2.44044   2.46320   2.50311   2.54180   2.56066
 Alpha virt. eigenvalues --    2.57224   2.60862   2.61594   2.62495   2.65584
 Alpha virt. eigenvalues --    2.66773   2.68560   2.70067   2.73789   2.75778
 Alpha virt. eigenvalues --    2.78717   2.83682   2.85324   2.89176   2.91112
 Alpha virt. eigenvalues --    2.96807   2.97054   2.98646   3.03672   3.07344
 Alpha virt. eigenvalues --    3.10806   3.13579   3.17343   3.18988   3.20034
 Alpha virt. eigenvalues --    3.28970   3.32604   3.33944   3.43530   3.44711
 Alpha virt. eigenvalues --    3.48121   3.51174   3.57757   3.61409   3.62541
 Alpha virt. eigenvalues --    3.65478   3.68615   3.68880   3.71201   3.73913
 Alpha virt. eigenvalues --    3.77663   3.78548   3.82176   3.82978   3.87918
 Alpha virt. eigenvalues --    3.92023   3.93465   3.99433   4.02081   4.10325
 Alpha virt. eigenvalues --    4.21833   5.16083   5.45322   5.99115   6.01317
 Alpha virt. eigenvalues --    6.04068   6.04838   6.05757   6.07607   6.19424
 Alpha virt. eigenvalues --    6.22384   6.45065   6.47348
          Condensed to atoms (all electrons):
 Mulliken charges:
               1
     1  F   -0.271469
     2  F   -0.158699
     3  O   -3.160332
     4  O   -3.267101
     5  N   -1.174979
     6  N   -0.774693
     7  C    4.605570
     8  C    4.341356
     9  C   -2.035062
    10  H    1.700992
    11  C   -3.426726
    12  H    1.229244
    13  H    1.170339
    14  H    1.221556
 Sum of Mulliken charges =  -0.00000
 Mulliken charges with hydrogens summed into heavy atoms:
               1
     1  F   -0.271469
     2  F   -0.158699
     3  O   -3.160332
     4  O   -3.267101
     5  N   -1.174979
     6  N   -0.774693
     7  C    4.605570
     8  C    4.341356
     9  C   -0.334070
    11  C    0.194414
 Electronic spatial extent (au):  <R**2>=           1328.0876
 Charge=             -0.0000 electrons
 Dipole moment (field-independent basis, Debye):
    X=             -0.7818    Y=              0.4165    Z=             -0.5101  Tot=              1.0222

 Test job not archived.
 1\1\GINC-SE123\SP\RHF\Aug-CC-pVDZ\C4H4F2N2O2\OHZDE\09-Apr-2025\0\\#t h
 f aug-cc-pvdz iop(5/13=1,5/36=2,99/5=2) pseudo=read geom=check guess=(
 read,tcheck) scf=(maxcycle=1)\\title\\0,1\F,0,-1.108137,2.133998,-0.32
 2024\F,0,2.320271,-0.937594,0.124668\O,0,1.628573,1.826075,0.159161\O,
 0,-0.087705,-2.445297,-0.169822\N,0,-0.568763,0.977894,0.251035\N,0,1.
 079791,-0.434384,-0.100109\C,0,0.837118,0.940507,0.101594\C,0,-0.03999
 6,-1.250791,-0.180016\C,0,-1.193262,-0.238574,-0.296643\H,0,-1.38251,-
 0.083621,-1.366379\C,0,-2.457233,-0.658491,0.432504\H,0,-2.263387,-0.7
 847,1.498719\H,0,-2.815906,-1.605192,0.025874\H,0,-3.231309,0.099176,0
 .302167\\Version=ES64L-G16RevC.01\State=1-A\HF=-613.7005475\RMSD=3.202
 e-01\Dipole=-0.3075746,0.1638582,-0.2006888\Quadrupole=3.6734325,-3.56
 92001,-0.1042324,-3.2256967,0.7168081,-1.2237912\PG=C01 [X(C4H4F2N2O2)
 ]\\@


 MOM AND DAD WENT TO ALPHA CENTAURI AND ALL
 I GOT WAS THIS DUMB T-SHIRT.
 Job cpu time:       0 days  0 hours  1 minutes 15.4 seconds.
 Elapsed time:       0 days  0 hours  0 minutes  5.7 seconds.
 File lengths (MBytes):  RWF=     14 Int=      0 D2E=      0 Chk=     10 Scr=      1
 Normal termination of Gaussian 16 at Wed Apr  9 00:54:34 2025.
