 Entering Gaussian System, Link 0=g16
 Input=BDE49_expt_1660_mol1.gjf
 Output=BDE49_expt_1660_mol1.log
 Initial command:
 /arc/software/Gaussian/g16.c01/l1.exe "/tmp/slurm/4842174/Gau-3466636.inp" -scrdir="/tmp/slurm/4842174/"
 Entering Link 1 = /arc/software/Gaussian/g16.c01/l1.exe PID=   3466637.
  
 Copyright (c) 1988-2019, Gaussian, Inc.  All Rights Reserved.
  
 This is part of the Gaussian(R) 16 program.  It is based on
 the Gaussian(R) 09 system (copyright 2009, Gaussian, Inc.),
 the Gaussian(R) 03 system (copyright 2003, Gaussian, Inc.),
 the Gaussian(R) 98 system (copyright 1998, Gaussian, Inc.),
 the Gaussian(R) 94 system (copyright 1995, Gaussian, Inc.),
 the Gaussian 92(TM) system (copyright 1992, Gaussian, Inc.),
 the Gaussian 90(TM) system (copyright 1990, Gaussian, Inc.),
 the Gaussian 88(TM) system (copyright 1988, Gaussian, Inc.),
 the Gaussian 86(TM) system (copyright 1986, Carnegie Mellon
 University), and the Gaussian 82(TM) system (copyright 1983,
 Carnegie Mellon University). Gaussian is a federally registered
 trademark of Gaussian, Inc.
  
 This software contains proprietary and confidential information,
 including trade secrets, belonging to Gaussian, Inc.
  
 This software is provided under written license and may be
 used, copied, transmitted, or stored only in accord with that
 written license.
  
 The following legend is applicable only to US Government
 contracts under FAR:
  
                    RESTRICTED RIGHTS LEGEND
  
 Use, reproduction and disclosure by the US Government is
 subject to restrictions as set forth in subparagraphs (a)
 and (c) of the Commercial Computer Software - Restricted
 Rights clause in FAR 52.227-19.
  
 Gaussian, Inc.
 340 Quinnipiac St., Bldg. 40, Wallingford CT 06492
  
  
 ---------------------------------------------------------------
 Warning -- This program may not be used in any manner that
 competes with the business of Gaussian, Inc. or will provide
 assistance to any competitor of Gaussian, Inc.  The licensee
 of this program is prohibited from giving any competitor of
 Gaussian, Inc. access to this program.  By using this program,
 the user acknowledges that Gaussian, Inc. is engaged in the
 business of creating and licensing software in the field of
 computational chemistry and represents and warrants to the
 licensee that it is not a competitor of Gaussian, Inc. and that
 it will not use this program in any manner prohibited above.
 ---------------------------------------------------------------
  

 Cite this work as:
 Gaussian 16, Revision C.01,
 M. J. Frisch, G. W. Trucks, H. B. Schlegel, G. E. Scuseria, 
 M. A. Robb, J. R. Cheeseman, G. Scalmani, V. Barone, 
 G. A. Petersson, H. Nakatsuji, X. Li, M. Caricato, A. V. Marenich, 
 J. Bloino, B. G. Janesko, R. Gomperts, B. Mennucci, H. P. Hratchian, 
 J. V. Ortiz, A. F. Izmaylov, J. L. Sonnenberg, D. Williams-Young, 
 F. Ding, F. Lipparini, F. Egidi, J. Goings, B. Peng, A. Petrone, 
 T. Henderson, D. Ranasinghe, V. G. Zakrzewski, J. Gao, N. Rega, 
 G. Zheng, W. Liang, M. Hada, M. Ehara, K. Toyota, R. Fukuda, 
 J. Hasegawa, M. Ishida, T. Nakajima, Y. Honda, O. Kitao, H. Nakai, 
 T. Vreven, K. Throssell, J. A. Montgomery, Jr., J. E. Peralta, 
 F. Ogliaro, M. J. Bearpark, J. J. Heyd, E. N. Brothers, K. N. Kudin, 
 V. N. Staroverov, T. A. Keith, R. Kobayashi, J. Normand, 
 K. Raghavachari, A. P. Rendell, J. C. Burant, S. S. Iyengar, 
 J. Tomasi, M. Cossi, J. M. Millam, M. Klene, C. Adamo, R. Cammi, 
 J. W. Ochterski, R. L. Martin, K. Morokuma, O. Farkas, 
 J. B. Foresman, and D. J. Fox, Gaussian, Inc., Wallingford CT, 2019.
 
 ******************************************
 Gaussian 16:  ES64L-G16RevC.01  3-Jul-2019
                 8-Apr-2025 
 ******************************************
 %nprocs=16
 Will use up to   16 processors via shared memory.
 %mem=30GB
 %chk=BDE49_expt_1660_mol1.chk
 ----------------------------------------------------------------------
 #t hf aug-cc-pvdz symm=none int=(grid=ultrafine) guess=(read,tcheck) s
 table=(opt,rrhf)
 ----------------------------------------------------------------------
 -----
 title
 -----
 Symbolic Z-matrix:
 Charge =  0 Multiplicity = 1
 C                     2.00397   0.92872   0. 
 C                     0.78414  -0.01745   0. 
 C                    -0.45446   0.89319   0. 
 C                     0.81825  -0.89592  -1.2618 
 H                    -0.4777    1.52326  -0.88879 
 H                    -0.4777    1.52326   0.88879 
 Cl                   -2.04787   0.00608   0. 
 H                     2.01298   1.57086  -0.88597 
 H                     2.93024   0.34779   0. 
 H                     0.80297  -0.28477  -2.16968 
 H                    -0.03711  -1.57352  -1.29661 
 H                     1.73019  -1.49928  -1.27892 
 C                     0.81825  -0.89592   1.2618 
 H                     0.80297  -0.28476   2.16968 
 H                     1.73019  -1.49928   1.27892 
 H                    -0.03711  -1.57352   1.29661 
 H                     2.01298   1.57086   0.88597 
 
                    Distance matrix (angstroms):
                    1          2          3          4          5
     1  C    0.000000
     2  C    1.543768   0.000000
     3  C    2.458682   1.537336   0.000000
     4  C    2.515431   1.537856   2.532356   0.000000
     5  H    2.702239   2.180823   1.089715   2.769664   0.000000
     6  H    2.702240   2.180824   1.089714   3.486681   1.777584
     7  Cl   4.155559   2.832111   1.823717   3.258887   2.357381
     8  H    1.094238   2.194926   2.707843   2.766518   2.491135
     9  H    1.093366   2.176950   3.428352   2.756711   3.712908
    10  H    2.760875   2.186161   2.770596   1.094526   2.559245
    11  H    3.479714   2.185635   2.817808   1.091781   3.154437
    12  H    2.757853   2.174039   3.483136   1.093610   3.763338
    13  C    2.515430   1.537857   2.532356   2.523595   3.486681
    14  H    2.760875   2.186161   2.770595   3.485505   3.776678
    15  H    2.757854   2.174039   3.483136   2.766030   4.325446
    16  H    3.479715   2.185635   2.817807   2.781408   3.815776
    17  H    1.094238   2.194927   2.707843   3.482137   3.058680
                    6          7          8          9         10
     6  H    0.000000
     7  Cl   2.357380   0.000000
     8  H    3.058680   4.441170   0.000000
     9  H    3.712908   4.989819   1.766968   0.000000
    10  H    3.776678   3.594355   2.560341   3.103685   0.000000
    11  H    3.815776   2.866961   3.776054   3.765339   1.768860
    12  H    4.325446   4.263272   3.108067   2.547035   1.768679
    13  C    2.769665   3.258888   3.482136   2.756711   3.485506
    14  H    2.559245   3.594354   3.774176   3.103685   4.339350
    15  H    3.763339   4.263271   3.767281   2.547036   3.771945
    16  H    3.154437   2.866961   4.342075   3.765339   3.792330
    17  H    2.491136   4.441170   1.771937   1.766969   3.774176
                   11         12         13         14         15
    11  H    0.000000
    12  H    1.768953   0.000000
    13  C    2.781408   2.766030   0.000000
    14  H    3.792330   3.771945   1.094525   0.000000
    15  H    3.124457   2.557836   1.093609   1.768679   0.000000
    16  H    2.593223   3.124458   1.091782   1.768860   1.768953
    17  H    4.342075   3.767281   2.766518   2.560342   3.108068
                   16         17
    16  H    0.000000
    17  H    3.776055   0.000000
 Symmetry turned off by external request.
 Rotational constants (GHZ):           4.3488652           1.6768907           1.6708494
   241 basis functions,   417 primitive gaussians,   253 cartesian basis functions
    29 alpha electrons       29 beta electrons
       nuclear repulsion energy       312.2490952548 Hartrees.
 NAtoms=   17 NActive=   17 NUniq=   17 SFac= 1.00D+00 NAtFMM=   60 NAOKFM=F Big=F
 ExpMin= 2.97D-02 ExpMax= 1.28D+05 ExpMxC= 1.24D+03 IAcc=3 IRadAn=         5 AccDes= 0.00D+00
 Harris functional with IExCor=  205 and IRadAn=       5 diagonalized for initial guess.
 HarFok:  IExCor=  205 AccDes= 0.00D+00 IRadAn=         5 IDoV= 1 UseB2=F ITyADJ=14
 ICtDFT=  3500011 ScaDFX=  1.000000  1.000000  1.000000  1.000000
 FoFCou: FMM=F IPFlag=           0 FMFlag=      100000 FMFlg1=           0
         NFxFlg=           0 DoJE=T BraDBF=F KetDBF=T FulRan=T
         wScrn=  0.000000 ICntrl=       500 IOpCl=  0 I1Cent=   200000004 NGrid=           0
         NMat0=    1 NMatS0=      1 NMatT0=    0 NMatD0=    1 NMtDS0=    0 NMtDT0=    0
 Symmetry not used in FoFCou.
 SCF Done:  E(RHF) =  -655.280595470     A.U. after   13 cycles
            NFock= 13  Conv=0.20D-08     -V/T= 2.0004

 **********************************************************************

            Population analysis using the SCF Density.

 **********************************************************************

 Alpha  occ. eigenvalues -- -104.81486 -11.29697 -11.25740 -11.23221 -11.22330
 Alpha  occ. eigenvalues --  -11.22329 -10.54071  -8.00828  -8.00534  -8.00526
 Alpha  occ. eigenvalues --   -1.14620  -1.07681  -0.94347  -0.93872  -0.90801
 Alpha  occ. eigenvalues --   -0.74556  -0.64407  -0.63320  -0.60842  -0.58173
 Alpha  occ. eigenvalues --   -0.55976  -0.53161  -0.52021  -0.51956  -0.49329
 Alpha  occ. eigenvalues --   -0.47132  -0.46307  -0.42655  -0.42421
 Alpha virt. eigenvalues --    0.03396   0.04485   0.04606   0.05157   0.06497
 Alpha virt. eigenvalues --    0.06746   0.06994   0.07353   0.07682   0.09153
 Alpha virt. eigenvalues --    0.09389   0.10997   0.12429   0.13752   0.14282
 Alpha virt. eigenvalues --    0.14592   0.15943   0.16648   0.16829   0.17467
 Alpha virt. eigenvalues --    0.18533   0.18572   0.18995   0.19577   0.20036
 Alpha virt. eigenvalues --    0.20686   0.20970   0.21212   0.21649   0.22394
 Alpha virt. eigenvalues --    0.22426   0.23382   0.23392   0.25889   0.27023
 Alpha virt. eigenvalues --    0.30080   0.32145   0.32709   0.33603   0.34103
 Alpha virt. eigenvalues --    0.34759   0.35719   0.38816   0.38837   0.39236
 Alpha virt. eigenvalues --    0.39973   0.41056   0.41717   0.42076   0.43975
 Alpha virt. eigenvalues --    0.45908   0.45993   0.46805   0.47412   0.47804
 Alpha virt. eigenvalues --    0.48624   0.48948   0.48994   0.49845   0.50017
 Alpha virt. eigenvalues --    0.50564   0.50802   0.51106   0.52374   0.55995
 Alpha virt. eigenvalues --    0.55998   0.56930   0.57519   0.58940   0.59146
 Alpha virt. eigenvalues --    0.59731   0.61627   0.62202   0.63295   0.65205
 Alpha virt. eigenvalues --    0.65401   0.65582   0.66075   0.66801   0.67338
 Alpha virt. eigenvalues --    0.67577   0.69458   0.70480   0.71695   0.72307
 Alpha virt. eigenvalues --    0.72856   0.73552   0.75227   0.75704   0.76218
 Alpha virt. eigenvalues --    0.78772   0.80123   0.80639   0.82976   0.83310
 Alpha virt. eigenvalues --    0.83697   0.84881   0.85724   0.86891   0.87170
 Alpha virt. eigenvalues --    0.88734   0.90142   0.90726   0.90844   0.91606
 Alpha virt. eigenvalues --    0.91984   0.93265   0.96143   0.96718   1.00160
 Alpha virt. eigenvalues --    1.02974   1.03001   1.07001   1.09420   1.09807
 Alpha virt. eigenvalues --    1.10240   1.11396   1.11452   1.15764   1.18067
 Alpha virt. eigenvalues --    1.23873   1.25883   1.26294   1.27864   1.29112
 Alpha virt. eigenvalues --    1.33993   1.36061   1.37641   1.38796   1.41074
 Alpha virt. eigenvalues --    1.41605   1.43406   1.46367   1.48177   1.53168
 Alpha virt. eigenvalues --    1.55301   1.57750   1.57998   1.59934   1.61570
 Alpha virt. eigenvalues --    1.62299   1.62576   1.63291   1.70319   1.72680
 Alpha virt. eigenvalues --    1.72819   1.79131   1.79350   1.81100   1.81336
 Alpha virt. eigenvalues --    1.84222   1.87457   1.87659   1.91033   1.94333
 Alpha virt. eigenvalues --    1.98144   2.00764   2.03143   2.04775   2.05231
 Alpha virt. eigenvalues --    2.06520   2.07657   2.07932   2.10536   2.11355
 Alpha virt. eigenvalues --    2.15624   2.16433   2.19021   2.22810   2.24200
 Alpha virt. eigenvalues --    2.29005   2.29167   2.30083   2.31043   2.31230
 Alpha virt. eigenvalues --    2.32289   2.35287   2.36757   2.37768   2.38825
 Alpha virt. eigenvalues --    2.48561   2.50173   2.52264   2.53467   2.54516
 Alpha virt. eigenvalues --    2.55516   2.57214   2.61583   2.63256   2.63331
 Alpha virt. eigenvalues --    2.63917   2.64967   2.73421   2.74332   2.82650
 Alpha virt. eigenvalues --    2.83565   2.85425   2.88870   2.90022   2.92090
 Alpha virt. eigenvalues --    2.94046   2.98319   2.98533   3.04493   3.08110
 Alpha virt. eigenvalues --    3.09936   3.24699   3.27337   3.32050   3.38529
 Alpha virt. eigenvalues --    3.50141   3.62813
          Condensed to atoms (all electrons):
 Mulliken charges:
               1
     1  C    1.193251
     2  C   -3.517403
     3  C    0.512473
     4  C    1.148285
     5  H   -0.004144
     6  H   -0.004148
     7  Cl  -0.152551
     8  H   -0.061281
     9  H   -0.045405
    10  H   -0.042158
    11  H   -0.011275
    12  H   -0.024607
    13  C    1.148285
    14  H   -0.042158
    15  H   -0.024610
    16  H   -0.011272
    17  H   -0.061282
 Sum of Mulliken charges =  -0.00000
 Mulliken charges with hydrogens summed into heavy atoms:
               1
     1  C    1.025283
     2  C   -3.517403
     3  C    0.504181
     4  C    1.070245
     7  Cl  -0.152551
    13  C    1.070245
 Electronic spatial extent (au):  <R**2>=            857.0642
 Charge=             -0.0000 electrons
 Dipole moment (field-independent basis, Debye):
    X=              2.2898    Y=              0.8114    Z=              0.0000  Tot=              2.4294
 NROrb=    241 NOA=    29 NOB=    29 NVA=   212 NVB=   212

 **** Warning!!: The largest alpha MO coefficient is  0.75714831D+02

    12 initial guesses have been made.
 Iteration     1 Dimension    12 NMult     0 NNew     12
 New state      1 was old state      4
 Iteration     2 Dimension    24 NMult    12 NNew     12
 Iteration     3 Dimension    27 NMult    24 NNew      3
 Iteration     4 Dimension    30 NMult    27 NNew      3
 Iteration     5 Dimension    33 NMult    30 NNew      3
 Iteration     6 Dimension    36 NMult    33 NNew      3
 Iteration     7 Dimension    39 NMult    36 NNew      3
 ***********************************************************************
 Stability analysis using <AA,BB:AA,BB> singles matrix:
 ***********************************************************************
 Ground to excited state transition densities written to RWF  633

 Eigenvectors of the stability matrix:
 
 Excited state symmetry could not be determined.
 Eigenvector   1:      Singlet-?Sym  Eigenvalue= 0.3045837  <S**2>=0.000
      28 -> 30        -0.10565
      28 -> 31        -0.11266
      28 -> 33         0.11189
      28 -> 36        -0.13932
      28 -> 38         0.14473
      28 -> 41         0.36231
      28 -> 46        -0.11683
      28 -> 49         0.10431
      28 -> 53         0.31859
      28 -> 60         0.19512
      28 -> 62         0.18351
      28 -> 63        -0.14021
 The wavefunction is stable under the perturbations considered.
 The wavefunction is already stable.

 **********************************************************************

            Population analysis using the SCF Density.

 **********************************************************************

 Alpha  occ. eigenvalues -- -104.81486 -11.29697 -11.25740 -11.23221 -11.22330
 Alpha  occ. eigenvalues --  -11.22329 -10.54071  -8.00828  -8.00534  -8.00526
 Alpha  occ. eigenvalues --   -1.14620  -1.07681  -0.94347  -0.93872  -0.90801
 Alpha  occ. eigenvalues --   -0.74556  -0.64407  -0.63320  -0.60842  -0.58173
 Alpha  occ. eigenvalues --   -0.55976  -0.53161  -0.52021  -0.51956  -0.49329
 Alpha  occ. eigenvalues --   -0.47132  -0.46307  -0.42655  -0.42421
 Alpha virt. eigenvalues --    0.03396   0.04485   0.04606   0.05157   0.06497
 Alpha virt. eigenvalues --    0.06746   0.06994   0.07353   0.07682   0.09153
 Alpha virt. eigenvalues --    0.09389   0.10997   0.12429   0.13752   0.14282
 Alpha virt. eigenvalues --    0.14592   0.15943   0.16648   0.16829   0.17467
 Alpha virt. eigenvalues --    0.18533   0.18572   0.18995   0.19577   0.20036
 Alpha virt. eigenvalues --    0.20686   0.20970   0.21212   0.21649   0.22394
 Alpha virt. eigenvalues --    0.22426   0.23382   0.23392   0.25889   0.27023
 Alpha virt. eigenvalues --    0.30080   0.32145   0.32709   0.33603   0.34103
 Alpha virt. eigenvalues --    0.34759   0.35719   0.38816   0.38837   0.39236
 Alpha virt. eigenvalues --    0.39973   0.41056   0.41717   0.42076   0.43975
 Alpha virt. eigenvalues --    0.45908   0.45993   0.46805   0.47412   0.47804
 Alpha virt. eigenvalues --    0.48624   0.48948   0.48994   0.49845   0.50017
 Alpha virt. eigenvalues --    0.50564   0.50802   0.51106   0.52374   0.55995
 Alpha virt. eigenvalues --    0.55998   0.56930   0.57519   0.58940   0.59146
 Alpha virt. eigenvalues --    0.59731   0.61627   0.62202   0.63295   0.65205
 Alpha virt. eigenvalues --    0.65401   0.65582   0.66075   0.66801   0.67338
 Alpha virt. eigenvalues --    0.67577   0.69458   0.70480   0.71695   0.72307
 Alpha virt. eigenvalues --    0.72856   0.73552   0.75227   0.75704   0.76218
 Alpha virt. eigenvalues --    0.78772   0.80123   0.80639   0.82976   0.83310
 Alpha virt. eigenvalues --    0.83697   0.84881   0.85724   0.86891   0.87170
 Alpha virt. eigenvalues --    0.88734   0.90142   0.90726   0.90844   0.91606
 Alpha virt. eigenvalues --    0.91984   0.93265   0.96143   0.96718   1.00160
 Alpha virt. eigenvalues --    1.02974   1.03001   1.07001   1.09420   1.09807
 Alpha virt. eigenvalues --    1.10240   1.11396   1.11452   1.15764   1.18067
 Alpha virt. eigenvalues --    1.23873   1.25883   1.26294   1.27864   1.29112
 Alpha virt. eigenvalues --    1.33993   1.36061   1.37641   1.38796   1.41074
 Alpha virt. eigenvalues --    1.41605   1.43406   1.46367   1.48177   1.53168
 Alpha virt. eigenvalues --    1.55301   1.57750   1.57998   1.59934   1.61570
 Alpha virt. eigenvalues --    1.62299   1.62576   1.63291   1.70319   1.72680
 Alpha virt. eigenvalues --    1.72819   1.79131   1.79350   1.81100   1.81336
 Alpha virt. eigenvalues --    1.84222   1.87457   1.87659   1.91033   1.94333
 Alpha virt. eigenvalues --    1.98144   2.00764   2.03143   2.04775   2.05231
 Alpha virt. eigenvalues --    2.06520   2.07657   2.07932   2.10536   2.11355
 Alpha virt. eigenvalues --    2.15624   2.16433   2.19021   2.22810   2.24200
 Alpha virt. eigenvalues --    2.29005   2.29167   2.30083   2.31043   2.31230
 Alpha virt. eigenvalues --    2.32289   2.35287   2.36757   2.37768   2.38825
 Alpha virt. eigenvalues --    2.48561   2.50173   2.52264   2.53467   2.54516
 Alpha virt. eigenvalues --    2.55516   2.57214   2.61583   2.63256   2.63331
 Alpha virt. eigenvalues --    2.63917   2.64967   2.73421   2.74332   2.82650
 Alpha virt. eigenvalues --    2.83565   2.85425   2.88870   2.90022   2.92090
 Alpha virt. eigenvalues --    2.94046   2.98319   2.98533   3.04493   3.08110
 Alpha virt. eigenvalues --    3.09936   3.24699   3.27337   3.32050   3.38529
 Alpha virt. eigenvalues --    3.50141   3.62813
          Condensed to atoms (all electrons):
 Mulliken charges:
               1
     1  C    1.193251
     2  C   -3.517403
     3  C    0.512473
     4  C    1.148285
     5  H   -0.004144
     6  H   -0.004148
     7  Cl  -0.152551
     8  H   -0.061281
     9  H   -0.045405
    10  H   -0.042158
    11  H   -0.011275
    12  H   -0.024607
    13  C    1.148285
    14  H   -0.042158
    15  H   -0.024610
    16  H   -0.011272
    17  H   -0.061282
 Sum of Mulliken charges =  -0.00000
 Mulliken charges with hydrogens summed into heavy atoms:
               1
     1  C    1.025283
     2  C   -3.517403
     3  C    0.504181
     4  C    1.070245
     7  Cl  -0.152551
    13  C    1.070245
 Electronic spatial extent (au):  <R**2>=            857.0642
 Charge=             -0.0000 electrons
 Dipole moment (field-independent basis, Debye):
    X=              2.2898    Y=              0.8114    Z=              0.0000  Tot=              2.4294
 Unable to Open any file for archive entry.
 1\1\GINC-SE120\Stability\RHF\Aug-CC-pVDZ\C5H11Cl1\OHZDE\08-Apr-2025\0\
 \#t hf aug-cc-pvdz symm=none int=(grid=ultrafine) guess=(read,tcheck) 
 stable=(opt,rrhf)\\title\\0,1\C,0,2.003969,0.928722,0.\C,0,0.784143,-0
 .017451,0.\C,0,-0.454456,0.893194,0.\C,0,0.818245,-0.89592,-1.261797\H
 ,0,-0.477697,1.523262,-0.888793\H,0,-0.477698,1.523263,0.888791\Cl,0,-
 2.04787,0.006078,0.\H,0,2.012982,1.570855,-0.885969\H,0,2.930235,0.347
 792,0.\H,0,0.802973,-0.284765,-2.169675\H,0,-0.037112,-1.573517,-1.296
 611\H,0,1.730194,-1.499276,-1.278917\C,0,0.818245,-0.895919,1.261798\H
 ,0,0.802972,-0.284763,2.169675\H,0,1.730193,-1.499275,1.278919\H,0,-0.
 037113,-1.573516,1.296612\H,0,2.012982,1.570856,0.885968\\Version=ES64
 L-G16RevC.01\HF=-655.2805955\RMSD=2.026e-09\Dipole=0.9008871,0.3192454
 ,0.\Quadrupole=-2.5356958,1.7399844,0.7957115,-0.1227168,0.0000002,0.0
 000029\PG=Unknown\\@
 The archive entry for this job was punched.


 ON A TOMBSTONE, "HERE LIES LESTER MOORE,
 FOUR SLUGS FROM A 44, NO LES, NO MORE".
 Job cpu time:       0 days  0 hours  9 minutes 17.0 seconds.
 Elapsed time:       0 days  0 hours  0 minutes 40.1 seconds.
 File lengths (MBytes):  RWF=    271 Int=      0 D2E=      0 Chk=      8 Scr=      1
 Normal termination of Gaussian 16 at Tue Apr  8 22:49:16 2025.
 Initial command:
 /arc/software/Gaussian/g16.c01/l1.exe "/tmp/slurm/4842174/Gau-3466636.inp" -scrdir="/tmp/slurm/4842174/"
 Entering Link 1 = /arc/software/Gaussian/g16.c01/l1.exe PID=   3466910.
  
 Copyright (c) 1988-2019, Gaussian, Inc.  All Rights Reserved.
  
 This is part of the Gaussian(R) 16 program.  It is based on
 the Gaussian(R) 09 system (copyright 2009, Gaussian, Inc.),
 the Gaussian(R) 03 system (copyright 2003, Gaussian, Inc.),
 the Gaussian(R) 98 system (copyright 1998, Gaussian, Inc.),
 the Gaussian(R) 94 system (copyright 1995, Gaussian, Inc.),
 the Gaussian 92(TM) system (copyright 1992, Gaussian, Inc.),
 the Gaussian 90(TM) system (copyright 1990, Gaussian, Inc.),
 the Gaussian 88(TM) system (copyright 1988, Gaussian, Inc.),
 the Gaussian 86(TM) system (copyright 1986, Carnegie Mellon
 University), and the Gaussian 82(TM) system (copyright 1983,
 Carnegie Mellon University). Gaussian is a federally registered
 trademark of Gaussian, Inc.
  
 This software contains proprietary and confidential information,
 including trade secrets, belonging to Gaussian, Inc.
  
 This software is provided under written license and may be
 used, copied, transmitted, or stored only in accord with that
 written license.
  
 The following legend is applicable only to US Government
 contracts under FAR:
  
                    RESTRICTED RIGHTS LEGEND
  
 Use, reproduction and disclosure by the US Government is
 subject to restrictions as set forth in subparagraphs (a)
 and (c) of the Commercial Computer Software - Restricted
 Rights clause in FAR 52.227-19.
  
 Gaussian, Inc.
 340 Quinnipiac St., Bldg. 40, Wallingford CT 06492
  
  
 ---------------------------------------------------------------
 Warning -- This program may not be used in any manner that
 competes with the business of Gaussian, Inc. or will provide
 assistance to any competitor of Gaussian, Inc.  The licensee
 of this program is prohibited from giving any competitor of
 Gaussian, Inc. access to this program.  By using this program,
 the user acknowledges that Gaussian, Inc. is engaged in the
 business of creating and licensing software in the field of
 computational chemistry and represents and warrants to the
 licensee that it is not a competitor of Gaussian, Inc. and that
 it will not use this program in any manner prohibited above.
 ---------------------------------------------------------------
  

 Cite this work as:
 Gaussian 16, Revision C.01,
 M. J. Frisch, G. W. Trucks, H. B. Schlegel, G. E. Scuseria, 
 M. A. Robb, J. R. Cheeseman, G. Scalmani, V. Barone, 
 G. A. Petersson, H. Nakatsuji, X. Li, M. Caricato, A. V. Marenich, 
 J. Bloino, B. G. Janesko, R. Gomperts, B. Mennucci, H. P. Hratchian, 
 J. V. Ortiz, A. F. Izmaylov, J. L. Sonnenberg, D. Williams-Young, 
 F. Ding, F. Lipparini, F. Egidi, J. Goings, B. Peng, A. Petrone, 
 T. Henderson, D. Ranasinghe, V. G. Zakrzewski, J. Gao, N. Rega, 
 G. Zheng, W. Liang, M. Hada, M. Ehara, K. Toyota, R. Fukuda, 
 J. Hasegawa, M. Ishida, T. Nakajima, Y. Honda, O. Kitao, H. Nakai, 
 T. Vreven, K. Throssell, J. A. Montgomery, Jr., J. E. Peralta, 
 F. Ogliaro, M. J. Bearpark, J. J. Heyd, E. N. Brothers, K. N. Kudin, 
 V. N. Staroverov, T. A. Keith, R. Kobayashi, J. Normand, 
 K. Raghavachari, A. P. Rendell, J. C. Burant, S. S. Iyengar, 
 J. Tomasi, M. Cossi, J. M. Millam, M. Klene, C. Adamo, R. Cammi, 
 J. W. Ochterski, R. L. Martin, K. Morokuma, O. Farkas, 
 J. B. Foresman, and D. J. Fox, Gaussian, Inc., Wallingford CT, 2019.
 
 ******************************************
 Gaussian 16:  ES64L-G16RevC.01  3-Jul-2019
                 8-Apr-2025 
 ******************************************
 %nprocs=16
 Will use up to   16 processors via shared memory.
 %mem=30GB
 %chk=BDE49_expt_1660_mol1.chk
 ----------------------------------------------------------------------
 #t hf aug-cc-pvdz iop(5/13=1,5/36=2,99/5=2) pseudo=read geom=check gue
 ss=(read,tcheck) scf=(maxcycle=1)
 ----------------------------------------------------------------------
 -----
 title
 -----
 Structure from the checkpoint file:  "BDE49_expt_1660_mol1.chk"
 Charge =  0 Multiplicity = 1
 Z-Matrix found in chk file.
 C,0,2.003969,0.928722,0.
 C,0,0.784143,-0.017451,0.
 C,0,-0.454456,0.893194,0.
 C,0,0.818245,-0.89592,-1.261797
 H,0,-0.477697,1.523262,-0.888793
 H,0,-0.477698,1.523263,0.888791
 Cl,0,-2.04787,0.006078,0.
 H,0,2.012982,1.570855,-0.885969
 H,0,2.930235,0.347792,0.
 H,0,0.802973,-0.284765,-2.169675
 H,0,-0.037112,-1.573517,-1.296611
 H,0,1.730194,-1.499276,-1.278917
 C,0,0.818245,-0.895919,1.261798
 H,0,0.802972,-0.284763,2.169675
 H,0,1.730193,-1.499275,1.278919
 H,0,-0.037113,-1.573516,1.296612
 H,0,2.012982,1.570856,0.885968
 Recover connectivity data from disk.
                    Distance matrix (angstroms):
                    1          2          3          4          5
     1  C    0.000000
     2  C    1.543768   0.000000
     3  C    2.458682   1.537336   0.000000
     4  C    2.515431   1.537856   2.532356   0.000000
     5  H    2.702239   2.180823   1.089715   2.769664   0.000000
     6  H    2.702240   2.180824   1.089714   3.486681   1.777584
     7  Cl   4.155559   2.832111   1.823717   3.258887   2.357381
     8  H    1.094238   2.194926   2.707843   2.766518   2.491135
     9  H    1.093366   2.176950   3.428352   2.756711   3.712908
    10  H    2.760875   2.186161   2.770596   1.094526   2.559245
    11  H    3.479714   2.185635   2.817808   1.091781   3.154437
    12  H    2.757853   2.174039   3.483136   1.093610   3.763338
    13  C    2.515430   1.537857   2.532356   2.523595   3.486681
    14  H    2.760875   2.186161   2.770595   3.485505   3.776678
    15  H    2.757854   2.174039   3.483136   2.766030   4.325446
    16  H    3.479715   2.185635   2.817807   2.781408   3.815776
    17  H    1.094238   2.194927   2.707843   3.482137   3.058680
                    6          7          8          9         10
     6  H    0.000000
     7  Cl   2.357380   0.000000
     8  H    3.058680   4.441170   0.000000
     9  H    3.712908   4.989819   1.766968   0.000000
    10  H    3.776678   3.594355   2.560341   3.103685   0.000000
    11  H    3.815776   2.866961   3.776054   3.765339   1.768860
    12  H    4.325446   4.263272   3.108067   2.547035   1.768679
    13  C    2.769665   3.258888   3.482136   2.756711   3.485506
    14  H    2.559245   3.594354   3.774176   3.103685   4.339350
    15  H    3.763339   4.263271   3.767281   2.547036   3.771945
    16  H    3.154437   2.866961   4.342075   3.765339   3.792330
    17  H    2.491136   4.441170   1.771937   1.766969   3.774176
                   11         12         13         14         15
    11  H    0.000000
    12  H    1.768953   0.000000
    13  C    2.781408   2.766030   0.000000
    14  H    3.792330   3.771945   1.094525   0.000000
    15  H    3.124457   2.557836   1.093609   1.768679   0.000000
    16  H    2.593223   3.124458   1.091782   1.768860   1.768953
    17  H    4.342075   3.767281   2.766518   2.560342   3.108068
                   16         17
    16  H    0.000000
    17  H    3.776055   0.000000
 Framework group  C1[X(C5H11Cl)]
 Deg. of freedom    45
                         Standard orientation:                         
 ---------------------------------------------------------------------
 Center     Atomic      Atomic             Coordinates (Angstroms)
 Number     Number       Type             X           Y           Z
 ---------------------------------------------------------------------
      1          6           0        2.003969    0.928722   -0.000000
      2          6           0        0.784143   -0.017451   -0.000000
      3          6           0       -0.454456    0.893194   -0.000000
      4          6           0        0.818245   -0.895920   -1.261797
      5          1           0       -0.477697    1.523262   -0.888793
      6          1           0       -0.477698    1.523263    0.888791
      7         17           0       -2.047870    0.006078   -0.000000
      8          1           0        2.012982    1.570855   -0.885969
      9          1           0        2.930235    0.347792   -0.000000
     10          1           0        0.802973   -0.284765   -2.169675
     11          1           0       -0.037112   -1.573517   -1.296611
     12          1           0        1.730194   -1.499276   -1.278917
     13          6           0        0.818245   -0.895919    1.261798
     14          1           0        0.802972   -0.284763    2.169675
     15          1           0        1.730193   -1.499275    1.278919
     16          1           0       -0.037113   -1.573516    1.296612
     17          1           0        2.012982    1.570856    0.885968
 ---------------------------------------------------------------------
 Rotational constants (GHZ):           4.3488652           1.6768907           1.6708494
 ======================================================================================================
                                       Pseudopotential Parameters
 ======================================================================================================
  Center     Atomic      Valence      Angular      Power
  Number     Number     Electrons     Momentum     of R      Exponent        Coefficient   SO-Coeffient
 ======================================================================================================
    1          6            6
                                      G and up 
                                                     0        0.0000010       -0.00286759    0.00000000
                                                     2        0.1200000        0.03193960    0.00000000
                                                     2        0.1600000       -0.04027782    0.00000000
                                                     2        0.2600000        0.24782456    0.00000000
                                                     2        0.4000000       -0.62266671    0.00000000
                                                     2        0.7000000        0.35695227    0.00000000
                                      S - G
                                                     0        0.0000010       -0.06602313    0.00000000
                                                     2        0.1200000        1.47277455    0.00000000
                                                     2        0.1600000       -4.06924166    0.00000000
                                                     2        0.3000000        5.02952802    0.00000000
                                                     2        0.7000000       -5.65856978    0.00000000
                                                     2        1.7000000        8.57604414    0.00000000
                                      P - G
                                                     0        0.0000010        0.49434425    0.00000000
                                                     2        0.1200000       -1.37391547    0.00000000
                                                     2        0.1600000        3.65411806    0.00000000
                                                     2        0.2800000       -7.36479843    0.00000000
                                                     2        0.6000000       17.22091285    0.00000000
                                                     2        1.1000000      -23.50107827    0.00000000
                                                     2        3.0000000       16.29464063    0.00000000
                                      D - G
                                                     0        0.0000010       -0.28693103    0.00000000
                                                     2        0.1200000        0.12273044    0.00000000
                                                     2        0.3000000       -0.43416384    0.00000000
                                                     2        0.7000000        2.23358493    0.00000000
                                      F - G
                                                     0        0.0000010        0.07263570    0.00000000
                                                     2        0.1400000       -0.76152861    0.00000000
                                                     2        0.2200000        1.98045593    0.00000000
                                                     2        0.4000000       -2.42426427    0.00000000
                                                     2        0.7000000        0.52335237    0.00000000
    2          6            6
                                      G and up 
                                                     0        0.0000010       -0.00286759    0.00000000
                                                     2        0.1200000        0.03193960    0.00000000
                                                     2        0.1600000       -0.04027782    0.00000000
                                                     2        0.2600000        0.24782456    0.00000000
                                                     2        0.4000000       -0.62266671    0.00000000
                                                     2        0.7000000        0.35695227    0.00000000
                                      S - G
                                                     0        0.0000010       -0.06602313    0.00000000
                                                     2        0.1200000        1.47277455    0.00000000
                                                     2        0.1600000       -4.06924166    0.00000000
                                                     2        0.3000000        5.02952802    0.00000000
                                                     2        0.7000000       -5.65856978    0.00000000
                                                     2        1.7000000        8.57604414    0.00000000
                                      P - G
                                                     0        0.0000010        0.49434425    0.00000000
                                                     2        0.1200000       -1.37391547    0.00000000
                                                     2        0.1600000        3.65411806    0.00000000
                                                     2        0.2800000       -7.36479843    0.00000000
                                                     2        0.6000000       17.22091285    0.00000000
                                                     2        1.1000000      -23.50107827    0.00000000
                                                     2        3.0000000       16.29464063    0.00000000
                                      D - G
                                                     0        0.0000010       -0.28693103    0.00000000
                                                     2        0.1200000        0.12273044    0.00000000
                                                     2        0.3000000       -0.43416384    0.00000000
                                                     2        0.7000000        2.23358493    0.00000000
                                      F - G
                                                     0        0.0000010        0.07263570    0.00000000
                                                     2        0.1400000       -0.76152861    0.00000000
                                                     2        0.2200000        1.98045593    0.00000000
                                                     2        0.4000000       -2.42426427    0.00000000
                                                     2        0.7000000        0.52335237    0.00000000
    3          6            6
                                      G and up 
                                                     0        0.0000010       -0.00286759    0.00000000
                                                     2        0.1200000        0.03193960    0.00000000
                                                     2        0.1600000       -0.04027782    0.00000000
                                                     2        0.2600000        0.24782456    0.00000000
                                                     2        0.4000000       -0.62266671    0.00000000
                                                     2        0.7000000        0.35695227    0.00000000
                                      S - G
                                                     0        0.0000010       -0.06602313    0.00000000
                                                     2        0.1200000        1.47277455    0.00000000
                                                     2        0.1600000       -4.06924166    0.00000000
                                                     2        0.3000000        5.02952802    0.00000000
                                                     2        0.7000000       -5.65856978    0.00000000
                                                     2        1.7000000        8.57604414    0.00000000
                                      P - G
                                                     0        0.0000010        0.49434425    0.00000000
                                                     2        0.1200000       -1.37391547    0.00000000
                                                     2        0.1600000        3.65411806    0.00000000
                                                     2        0.2800000       -7.36479843    0.00000000
                                                     2        0.6000000       17.22091285    0.00000000
                                                     2        1.1000000      -23.50107827    0.00000000
                                                     2        3.0000000       16.29464063    0.00000000
                                      D - G
                                                     0        0.0000010       -0.28693103    0.00000000
                                                     2        0.1200000        0.12273044    0.00000000
                                                     2        0.3000000       -0.43416384    0.00000000
                                                     2        0.7000000        2.23358493    0.00000000
                                      F - G
                                                     0        0.0000010        0.07263570    0.00000000
                                                     2        0.1400000       -0.76152861    0.00000000
                                                     2        0.2200000        1.98045593    0.00000000
                                                     2        0.4000000       -2.42426427    0.00000000
                                                     2        0.7000000        0.52335237    0.00000000
    4          6            6
                                      G and up 
                                                     0        0.0000010       -0.00286759    0.00000000
                                                     2        0.1200000        0.03193960    0.00000000
                                                     2        0.1600000       -0.04027782    0.00000000
                                                     2        0.2600000        0.24782456    0.00000000
                                                     2        0.4000000       -0.62266671    0.00000000
                                                     2        0.7000000        0.35695227    0.00000000
                                      S - G
                                                     0        0.0000010       -0.06602313    0.00000000
                                                     2        0.1200000        1.47277455    0.00000000
                                                     2        0.1600000       -4.06924166    0.00000000
                                                     2        0.3000000        5.02952802    0.00000000
                                                     2        0.7000000       -5.65856978    0.00000000
                                                     2        1.7000000        8.57604414    0.00000000
                                      P - G
                                                     0        0.0000010        0.49434425    0.00000000
                                                     2        0.1200000       -1.37391547    0.00000000
                                                     2        0.1600000        3.65411806    0.00000000
                                                     2        0.2800000       -7.36479843    0.00000000
                                                     2        0.6000000       17.22091285    0.00000000
                                                     2        1.1000000      -23.50107827    0.00000000
                                                     2        3.0000000       16.29464063    0.00000000
                                      D - G
                                                     0        0.0000010       -0.28693103    0.00000000
                                                     2        0.1200000        0.12273044    0.00000000
                                                     2        0.3000000       -0.43416384    0.00000000
                                                     2        0.7000000        2.23358493    0.00000000
                                      F - G
                                                     0        0.0000010        0.07263570    0.00000000
                                                     2        0.1400000       -0.76152861    0.00000000
                                                     2        0.2200000        1.98045593    0.00000000
                                                     2        0.4000000       -2.42426427    0.00000000
                                                     2        0.7000000        0.52335237    0.00000000
    5          1            1
                                      F and up 
                                                     0        0.0000010        0.00072061    0.00000000
                                                     2        0.1200000        0.03832357    0.00000000
                                                     2        0.1400000       -0.08683256    0.00000000
                                                     2        0.1800000        0.09312970    0.00000000
                                                     2        0.2800000       -0.02532572    0.00000000
                                                     2        0.4000000       -0.09430787    0.00000000
                                                     2        0.7000000        0.42710831    0.00000000
                                                     2        1.2000000       -2.11746981    0.00000000
                                      S - F
                                                     0        0.0000010        0.14449603    0.00000000
                                                     2        0.1200000       -0.56378993    0.00000000
                                                     2        0.1400000        0.63941249    0.00000000
                                                     2        0.2600000       -0.58461015    0.00000000
                                                     2        0.5000000        1.00157293    0.00000000
                                                     2        1.8000000       -0.14135838    0.00000000
                                      P - F
                                                     0        0.0000010       -0.09353646    0.00000000
                                                     2        0.1200000        0.31768975    0.00000000
                                                     2        0.2000000       -0.71747951    0.00000000
                                                     2        0.4000000        0.65752308    0.00000000
                                                     2        1.7000000        2.94052587    0.00000000
                                      D - F
                                                     0        0.0000010       -0.04491202    0.00000000
                                                     2        0.1200000       -0.02862031    0.00000000
                                                     2        0.1800000       -0.21515263    0.00000000
                                                     2        0.3000000        0.80560647    0.00000000
                                                     2        0.4000000        0.47351754    0.00000000
                                                     2        0.7000000       -4.57051794    0.00000000
                                                     2        1.6000000       18.53737826    0.00000000
    6          1            1
                                      F and up 
                                                     0        0.0000010        0.00072061    0.00000000
                                                     2        0.1200000        0.03832357    0.00000000
                                                     2        0.1400000       -0.08683256    0.00000000
                                                     2        0.1800000        0.09312970    0.00000000
                                                     2        0.2800000       -0.02532572    0.00000000
                                                     2        0.4000000       -0.09430787    0.00000000
                                                     2        0.7000000        0.42710831    0.00000000
                                                     2        1.2000000       -2.11746981    0.00000000
                                      S - F
                                                     0        0.0000010        0.14449603    0.00000000
                                                     2        0.1200000       -0.56378993    0.00000000
                                                     2        0.1400000        0.63941249    0.00000000
                                                     2        0.2600000       -0.58461015    0.00000000
                                                     2        0.5000000        1.00157293    0.00000000
                                                     2        1.8000000       -0.14135838    0.00000000
                                      P - F
                                                     0        0.0000010       -0.09353646    0.00000000
                                                     2        0.1200000        0.31768975    0.00000000
                                                     2        0.2000000       -0.71747951    0.00000000
                                                     2        0.4000000        0.65752308    0.00000000
                                                     2        1.7000000        2.94052587    0.00000000
                                      D - F
                                                     0        0.0000010       -0.04491202    0.00000000
                                                     2        0.1200000       -0.02862031    0.00000000
                                                     2        0.1800000       -0.21515263    0.00000000
                                                     2        0.3000000        0.80560647    0.00000000
                                                     2        0.4000000        0.47351754    0.00000000
                                                     2        0.7000000       -4.57051794    0.00000000
                                                     2        1.6000000       18.53737826    0.00000000
    7         17           17
                                      G and up 
                                                     0        0.0000010        0.00409650    0.00000000
                                                     2        0.1200000        0.06945192    0.00000000
                                                     2        0.1400000       -0.06660574    0.00000000
                                                     2        0.2200000        0.15305308    0.00000000
                                      S - G
                                                     0        0.0000010        0.00555482    0.00000000
                                                     2        0.2000000       -0.53060378    0.00000000
                                      P - G
                                                     0        0.0000010       -0.16962542    0.00000000
                                                     2        0.1200000        0.15585357    0.00000000
                                                     2        0.1800000       -0.79460714    0.00000000
                                                     2        0.5000000        1.36495881    0.00000000
                                      D - G
                                                     0        0.0000010        0.91266089    0.00000000
                                                     2        0.2400000       -1.50552862    0.00000000
                                      F - G
                                                     0        0.0000010       -0.76620800    0.00000000
                                                     2        0.1200000       -0.23737626    0.00000000
                                                     2        0.1800000        0.28531204    0.00000000
    8          1            1
                                      F and up 
                                                     0        0.0000010        0.00072061    0.00000000
                                                     2        0.1200000        0.03832357    0.00000000
                                                     2        0.1400000       -0.08683256    0.00000000
                                                     2        0.1800000        0.09312970    0.00000000
                                                     2        0.2800000       -0.02532572    0.00000000
                                                     2        0.4000000       -0.09430787    0.00000000
                                                     2        0.7000000        0.42710831    0.00000000
                                                     2        1.2000000       -2.11746981    0.00000000
                                      S - F
                                                     0        0.0000010        0.14449603    0.00000000
                                                     2        0.1200000       -0.56378993    0.00000000
                                                     2        0.1400000        0.63941249    0.00000000
                                                     2        0.2600000       -0.58461015    0.00000000
                                                     2        0.5000000        1.00157293    0.00000000
                                                     2        1.8000000       -0.14135838    0.00000000
                                      P - F
                                                     0        0.0000010       -0.09353646    0.00000000
                                                     2        0.1200000        0.31768975    0.00000000
                                                     2        0.2000000       -0.71747951    0.00000000
                                                     2        0.4000000        0.65752308    0.00000000
                                                     2        1.7000000        2.94052587    0.00000000
                                      D - F
                                                     0        0.0000010       -0.04491202    0.00000000
                                                     2        0.1200000       -0.02862031    0.00000000
                                                     2        0.1800000       -0.21515263    0.00000000
                                                     2        0.3000000        0.80560647    0.00000000
                                                     2        0.4000000        0.47351754    0.00000000
                                                     2        0.7000000       -4.57051794    0.00000000
                                                     2        1.6000000       18.53737826    0.00000000
    9          1            1
                                      F and up 
                                                     0        0.0000010        0.00072061    0.00000000
                                                     2        0.1200000        0.03832357    0.00000000
                                                     2        0.1400000       -0.08683256    0.00000000
                                                     2        0.1800000        0.09312970    0.00000000
                                                     2        0.2800000       -0.02532572    0.00000000
                                                     2        0.4000000       -0.09430787    0.00000000
                                                     2        0.7000000        0.42710831    0.00000000
                                                     2        1.2000000       -2.11746981    0.00000000
                                      S - F
                                                     0        0.0000010        0.14449603    0.00000000
                                                     2        0.1200000       -0.56378993    0.00000000
                                                     2        0.1400000        0.63941249    0.00000000
                                                     2        0.2600000       -0.58461015    0.00000000
                                                     2        0.5000000        1.00157293    0.00000000
                                                     2        1.8000000       -0.14135838    0.00000000
                                      P - F
                                                     0        0.0000010       -0.09353646    0.00000000
                                                     2        0.1200000        0.31768975    0.00000000
                                                     2        0.2000000       -0.71747951    0.00000000
                                                     2        0.4000000        0.65752308    0.00000000
                                                     2        1.7000000        2.94052587    0.00000000
                                      D - F
                                                     0        0.0000010       -0.04491202    0.00000000
                                                     2        0.1200000       -0.02862031    0.00000000
                                                     2        0.1800000       -0.21515263    0.00000000
                                                     2        0.3000000        0.80560647    0.00000000
                                                     2        0.4000000        0.47351754    0.00000000
                                                     2        0.7000000       -4.57051794    0.00000000
                                                     2        1.6000000       18.53737826    0.00000000
   10          1            1
                                      F and up 
                                                     0        0.0000010        0.00072061    0.00000000
                                                     2        0.1200000        0.03832357    0.00000000
                                                     2        0.1400000       -0.08683256    0.00000000
                                                     2        0.1800000        0.09312970    0.00000000
                                                     2        0.2800000       -0.02532572    0.00000000
                                                     2        0.4000000       -0.09430787    0.00000000
                                                     2        0.7000000        0.42710831    0.00000000
                                                     2        1.2000000       -2.11746981    0.00000000
                                      S - F
                                                     0        0.0000010        0.14449603    0.00000000
                                                     2        0.1200000       -0.56378993    0.00000000
                                                     2        0.1400000        0.63941249    0.00000000
                                                     2        0.2600000       -0.58461015    0.00000000
                                                     2        0.5000000        1.00157293    0.00000000
                                                     2        1.8000000       -0.14135838    0.00000000
                                      P - F
                                                     0        0.0000010       -0.09353646    0.00000000
                                                     2        0.1200000        0.31768975    0.00000000
                                                     2        0.2000000       -0.71747951    0.00000000
                                                     2        0.4000000        0.65752308    0.00000000
                                                     2        1.7000000        2.94052587    0.00000000
                                      D - F
                                                     0        0.0000010       -0.04491202    0.00000000
                                                     2        0.1200000       -0.02862031    0.00000000
                                                     2        0.1800000       -0.21515263    0.00000000
                                                     2        0.3000000        0.80560647    0.00000000
                                                     2        0.4000000        0.47351754    0.00000000
                                                     2        0.7000000       -4.57051794    0.00000000
                                                     2        1.6000000       18.53737826    0.00000000
   11          1            1
                                      F and up 
                                                     0        0.0000010        0.00072061    0.00000000
                                                     2        0.1200000        0.03832357    0.00000000
                                                     2        0.1400000       -0.08683256    0.00000000
                                                     2        0.1800000        0.09312970    0.00000000
                                                     2        0.2800000       -0.02532572    0.00000000
                                                     2        0.4000000       -0.09430787    0.00000000
                                                     2        0.7000000        0.42710831    0.00000000
                                                     2        1.2000000       -2.11746981    0.00000000
                                      S - F
                                                     0        0.0000010        0.14449603    0.00000000
                                                     2        0.1200000       -0.56378993    0.00000000
                                                     2        0.1400000        0.63941249    0.00000000
                                                     2        0.2600000       -0.58461015    0.00000000
                                                     2        0.5000000        1.00157293    0.00000000
                                                     2        1.8000000       -0.14135838    0.00000000
                                      P - F
                                                     0        0.0000010       -0.09353646    0.00000000
                                                     2        0.1200000        0.31768975    0.00000000
                                                     2        0.2000000       -0.71747951    0.00000000
                                                     2        0.4000000        0.65752308    0.00000000
                                                     2        1.7000000        2.94052587    0.00000000
                                      D - F
                                                     0        0.0000010       -0.04491202    0.00000000
                                                     2        0.1200000       -0.02862031    0.00000000
                                                     2        0.1800000       -0.21515263    0.00000000
                                                     2        0.3000000        0.80560647    0.00000000
                                                     2        0.4000000        0.47351754    0.00000000
                                                     2        0.7000000       -4.57051794    0.00000000
                                                     2        1.6000000       18.53737826    0.00000000
   12          1            1
                                      F and up 
                                                     0        0.0000010        0.00072061    0.00000000
                                                     2        0.1200000        0.03832357    0.00000000
                                                     2        0.1400000       -0.08683256    0.00000000
                                                     2        0.1800000        0.09312970    0.00000000
                                                     2        0.2800000       -0.02532572    0.00000000
                                                     2        0.4000000       -0.09430787    0.00000000
                                                     2        0.7000000        0.42710831    0.00000000
                                                     2        1.2000000       -2.11746981    0.00000000
                                      S - F
                                                     0        0.0000010        0.14449603    0.00000000
                                                     2        0.1200000       -0.56378993    0.00000000
                                                     2        0.1400000        0.63941249    0.00000000
                                                     2        0.2600000       -0.58461015    0.00000000
                                                     2        0.5000000        1.00157293    0.00000000
                                                     2        1.8000000       -0.14135838    0.00000000
                                      P - F
                                                     0        0.0000010       -0.09353646    0.00000000
                                                     2        0.1200000        0.31768975    0.00000000
                                                     2        0.2000000       -0.71747951    0.00000000
                                                     2        0.4000000        0.65752308    0.00000000
                                                     2        1.7000000        2.94052587    0.00000000
                                      D - F
                                                     0        0.0000010       -0.04491202    0.00000000
                                                     2        0.1200000       -0.02862031    0.00000000
                                                     2        0.1800000       -0.21515263    0.00000000
                                                     2        0.3000000        0.80560647    0.00000000
                                                     2        0.4000000        0.47351754    0.00000000
                                                     2        0.7000000       -4.57051794    0.00000000
                                                     2        1.6000000       18.53737826    0.00000000
   13          6            6
                                      G and up 
                                                     0        0.0000010       -0.00286759    0.00000000
                                                     2        0.1200000        0.03193960    0.00000000
                                                     2        0.1600000       -0.04027782    0.00000000
                                                     2        0.2600000        0.24782456    0.00000000
                                                     2        0.4000000       -0.62266671    0.00000000
                                                     2        0.7000000        0.35695227    0.00000000
                                      S - G
                                                     0        0.0000010       -0.06602313    0.00000000
                                                     2        0.1200000        1.47277455    0.00000000
                                                     2        0.1600000       -4.06924166    0.00000000
                                                     2        0.3000000        5.02952802    0.00000000
                                                     2        0.7000000       -5.65856978    0.00000000
                                                     2        1.7000000        8.57604414    0.00000000
                                      P - G
                                                     0        0.0000010        0.49434425    0.00000000
                                                     2        0.1200000       -1.37391547    0.00000000
                                                     2        0.1600000        3.65411806    0.00000000
                                                     2        0.2800000       -7.36479843    0.00000000
                                                     2        0.6000000       17.22091285    0.00000000
                                                     2        1.1000000      -23.50107827    0.00000000
                                                     2        3.0000000       16.29464063    0.00000000
                                      D - G
                                                     0        0.0000010       -0.28693103    0.00000000
                                                     2        0.1200000        0.12273044    0.00000000
                                                     2        0.3000000       -0.43416384    0.00000000
                                                     2        0.7000000        2.23358493    0.00000000
                                      F - G
                                                     0        0.0000010        0.07263570    0.00000000
                                                     2        0.1400000       -0.76152861    0.00000000
                                                     2        0.2200000        1.98045593    0.00000000
                                                     2        0.4000000       -2.42426427    0.00000000
                                                     2        0.7000000        0.52335237    0.00000000
   14          1            1
                                      F and up 
                                                     0        0.0000010        0.00072061    0.00000000
                                                     2        0.1200000        0.03832357    0.00000000
                                                     2        0.1400000       -0.08683256    0.00000000
                                                     2        0.1800000        0.09312970    0.00000000
                                                     2        0.2800000       -0.02532572    0.00000000
                                                     2        0.4000000       -0.09430787    0.00000000
                                                     2        0.7000000        0.42710831    0.00000000
                                                     2        1.2000000       -2.11746981    0.00000000
                                      S - F
                                                     0        0.0000010        0.14449603    0.00000000
                                                     2        0.1200000       -0.56378993    0.00000000
                                                     2        0.1400000        0.63941249    0.00000000
                                                     2        0.2600000       -0.58461015    0.00000000
                                                     2        0.5000000        1.00157293    0.00000000
                                                     2        1.8000000       -0.14135838    0.00000000
                                      P - F
                                                     0        0.0000010       -0.09353646    0.00000000
                                                     2        0.1200000        0.31768975    0.00000000
                                                     2        0.2000000       -0.71747951    0.00000000
                                                     2        0.4000000        0.65752308    0.00000000
                                                     2        1.7000000        2.94052587    0.00000000
                                      D - F
                                                     0        0.0000010       -0.04491202    0.00000000
                                                     2        0.1200000       -0.02862031    0.00000000
                                                     2        0.1800000       -0.21515263    0.00000000
                                                     2        0.3000000        0.80560647    0.00000000
                                                     2        0.4000000        0.47351754    0.00000000
                                                     2        0.7000000       -4.57051794    0.00000000
                                                     2        1.6000000       18.53737826    0.00000000
   15          1            1
                                      F and up 
                                                     0        0.0000010        0.00072061    0.00000000
                                                     2        0.1200000        0.03832357    0.00000000
                                                     2        0.1400000       -0.08683256    0.00000000
                                                     2        0.1800000        0.09312970    0.00000000
                                                     2        0.2800000       -0.02532572    0.00000000
                                                     2        0.4000000       -0.09430787    0.00000000
                                                     2        0.7000000        0.42710831    0.00000000
                                                     2        1.2000000       -2.11746981    0.00000000
                                      S - F
                                                     0        0.0000010        0.14449603    0.00000000
                                                     2        0.1200000       -0.56378993    0.00000000
                                                     2        0.1400000        0.63941249    0.00000000
                                                     2        0.2600000       -0.58461015    0.00000000
                                                     2        0.5000000        1.00157293    0.00000000
                                                     2        1.8000000       -0.14135838    0.00000000
                                      P - F
                                                     0        0.0000010       -0.09353646    0.00000000
                                                     2        0.1200000        0.31768975    0.00000000
                                                     2        0.2000000       -0.71747951    0.00000000
                                                     2        0.4000000        0.65752308    0.00000000
                                                     2        1.7000000        2.94052587    0.00000000
                                      D - F
                                                     0        0.0000010       -0.04491202    0.00000000
                                                     2        0.1200000       -0.02862031    0.00000000
                                                     2        0.1800000       -0.21515263    0.00000000
                                                     2        0.3000000        0.80560647    0.00000000
                                                     2        0.4000000        0.47351754    0.00000000
                                                     2        0.7000000       -4.57051794    0.00000000
                                                     2        1.6000000       18.53737826    0.00000000
   16          1            1
                                      F and up 
                                                     0        0.0000010        0.00072061    0.00000000
                                                     2        0.1200000        0.03832357    0.00000000
                                                     2        0.1400000       -0.08683256    0.00000000
                                                     2        0.1800000        0.09312970    0.00000000
                                                     2        0.2800000       -0.02532572    0.00000000
                                                     2        0.4000000       -0.09430787    0.00000000
                                                     2        0.7000000        0.42710831    0.00000000
                                                     2        1.2000000       -2.11746981    0.00000000
                                      S - F
                                                     0        0.0000010        0.14449603    0.00000000
                                                     2        0.1200000       -0.56378993    0.00000000
                                                     2        0.1400000        0.63941249    0.00000000
                                                     2        0.2600000       -0.58461015    0.00000000
                                                     2        0.5000000        1.00157293    0.00000000
                                                     2        1.8000000       -0.14135838    0.00000000
                                      P - F
                                                     0        0.0000010       -0.09353646    0.00000000
                                                     2        0.1200000        0.31768975    0.00000000
                                                     2        0.2000000       -0.71747951    0.00000000
                                                     2        0.4000000        0.65752308    0.00000000
                                                     2        1.7000000        2.94052587    0.00000000
                                      D - F
                                                     0        0.0000010       -0.04491202    0.00000000
                                                     2        0.1200000       -0.02862031    0.00000000
                                                     2        0.1800000       -0.21515263    0.00000000
                                                     2        0.3000000        0.80560647    0.00000000
                                                     2        0.4000000        0.47351754    0.00000000
                                                     2        0.7000000       -4.57051794    0.00000000
                                                     2        1.6000000       18.53737826    0.00000000
   17          1            1
                                      F and up 
                                                     0        0.0000010        0.00072061    0.00000000
                                                     2        0.1200000        0.03832357    0.00000000
                                                     2        0.1400000       -0.08683256    0.00000000
                                                     2        0.1800000        0.09312970    0.00000000
                                                     2        0.2800000       -0.02532572    0.00000000
                                                     2        0.4000000       -0.09430787    0.00000000
                                                     2        0.7000000        0.42710831    0.00000000
                                                     2        1.2000000       -2.11746981    0.00000000
                                      S - F
                                                     0        0.0000010        0.14449603    0.00000000
                                                     2        0.1200000       -0.56378993    0.00000000
                                                     2        0.1400000        0.63941249    0.00000000
                                                     2        0.2600000       -0.58461015    0.00000000
                                                     2        0.5000000        1.00157293    0.00000000
                                                     2        1.8000000       -0.14135838    0.00000000
                                      P - F
                                                     0        0.0000010       -0.09353646    0.00000000
                                                     2        0.1200000        0.31768975    0.00000000
                                                     2        0.2000000       -0.71747951    0.00000000
                                                     2        0.4000000        0.65752308    0.00000000
                                                     2        1.7000000        2.94052587    0.00000000
                                      D - F
                                                     0        0.0000010       -0.04491202    0.00000000
                                                     2        0.1200000       -0.02862031    0.00000000
                                                     2        0.1800000       -0.21515263    0.00000000
                                                     2        0.3000000        0.80560647    0.00000000
                                                     2        0.4000000        0.47351754    0.00000000
                                                     2        0.7000000       -4.57051794    0.00000000
                                                     2        1.6000000       18.53737826    0.00000000
 ======================================================================================================
   241 basis functions,   417 primitive gaussians,   253 cartesian basis functions
    29 alpha electrons       29 beta electrons
       nuclear repulsion energy       312.2490952548 Hartrees.
 NAtoms=   17 NActive=   17 NUniq=   17 SFac= 1.00D+00 NAtFMM=   60 NAOKFM=F Big=F
   1 Symmetry operations used in ECPInt.
 ECPInt:  NShTT=    6216 NPrTT=   28110 LenC2=    6210 LenP2D=   22459.
 LDataN:  DoStor=T MaxTD1= 6 Len=  172
 Initial guess from the checkpoint file:  "BDE49_expt_1660_mol1.chk"
 B after Tr=     0.000000    0.000000   -0.000000
         Rot=    1.000000    0.000000   -0.000000    0.000000 Ang=   0.00 deg.
 >>>>>>>>>> Convergence criterion not met.
 SCF Done:  E(RHF) =  -656.559479354     A.U. after    2 cycles
            NFock=  1  Conv=0.42D+00     -V/T= 1.9965

 **********************************************************************

            Population analysis using the SCF Density.

 **********************************************************************

 Orbital symmetries:
       Occupied  (A) (A) (A) (A) (A) (A) (A) (A) (A) (A) (A) (A)
                 (A) (A) (A) (A) (A) (A) (A) (A) (A) (A) (A) (A)
                 (A) (A) (A) (A) (A)
       Virtual   (A) (A) (A) (A) (A) (A) (A) (A) (A) (A) (A) (A)
                 (A) (A) (A) (A) (A) (A) (A) (A) (A) (A) (A) (A)
                 (A) (A) (A) (A) (A) (A) (A) (A) (A) (A) (A) (A)
                 (A) (A) (A) (A) (A) (A) (A) (A) (A) (A) (A) (A)
                 (A) (A) (A) (A) (A) (A) (A) (A) (A) (A) (A) (A)
                 (A) (A) (A) (A) (A) (A) (A) (A) (A) (A) (A) (A)
                 (A) (A) (A) (A) (A) (A) (A) (A) (A) (A) (A) (A)
                 (A) (A) (A) (A) (A) (A) (A) (A) (A) (A) (A) (A)
                 (A) (A) (A) (A) (A) (A) (A) (A) (A) (A) (A) (A)
                 (A) (A) (A) (A) (A) (A) (A) (A) (A) (A) (A) (A)
                 (A) (A) (A) (A) (A) (A) (A) (A) (A) (A) (A) (A)
                 (A) (A) (A) (A) (A) (A) (A) (A) (A) (A) (A) (A)
                 (A) (A) (A) (A) (A) (A) (A) (A) (A) (A) (A) (A)
                 (A) (A) (A) (A) (A) (A) (A) (A) (A) (A) (A) (A)
                 (A) (A) (A) (A) (A) (A) (A) (A) (A) (A) (A) (A)
                 (A) (A) (A) (A) (A) (A) (A) (A) (A) (A) (A) (A)
                 (A) (A) (A) (A) (A) (A) (A) (A) (A) (A) (A) (A)
                 (A) (A) (A) (A) (A) (A) (A) (A)
 The electronic state is 1-A.
 Alpha  occ. eigenvalues --  -99.86899 -11.45130 -11.41625 -11.39242 -11.38738
 Alpha  occ. eigenvalues --  -11.35492 -10.44143  -9.64114  -9.63468  -9.63414
 Alpha  occ. eigenvalues --   -1.35255  -1.24241  -1.01335  -1.00904  -0.99141
 Alpha  occ. eigenvalues --   -0.78571  -0.66007  -0.64493  -0.62818  -0.58837
 Alpha  occ. eigenvalues --   -0.57197  -0.53089  -0.52871  -0.51812  -0.51032
 Alpha  occ. eigenvalues --   -0.47125  -0.43446  -0.42921  -0.42248
 Alpha virt. eigenvalues --    0.03374   0.05303   0.05556   0.05659   0.05843
 Alpha virt. eigenvalues --    0.05982   0.06326   0.06437   0.07158   0.08737
 Alpha virt. eigenvalues --    0.09432   0.09559   0.11642   0.13417   0.13870
 Alpha virt. eigenvalues --    0.14089   0.14308   0.16803   0.17372   0.17773
 Alpha virt. eigenvalues --    0.18039   0.18563   0.18809   0.19301   0.19474
 Alpha virt. eigenvalues --    0.19851   0.19943   0.20374   0.21199   0.21255
 Alpha virt. eigenvalues --    0.21893   0.22428   0.22988   0.25169   0.25736
 Alpha virt. eigenvalues --    0.29086   0.30092   0.31593   0.31833   0.33213
 Alpha virt. eigenvalues --    0.33245   0.33625   0.35994   0.36891   0.38822
 Alpha virt. eigenvalues --    0.39302   0.40528   0.41119   0.41470   0.43289
 Alpha virt. eigenvalues --    0.43566   0.44507   0.44780   0.46387   0.47072
 Alpha virt. eigenvalues --    0.47660   0.47755   0.48438   0.48711   0.49085
 Alpha virt. eigenvalues --    0.49355   0.50094   0.50431   0.50870   0.53574
 Alpha virt. eigenvalues --    0.53841   0.55397   0.56338   0.56650   0.60023
 Alpha virt. eigenvalues --    0.60439   0.61979   0.62480   0.63077   0.63197
 Alpha virt. eigenvalues --    0.64078   0.64169   0.65434   0.66060   0.66177
 Alpha virt. eigenvalues --    0.67905   0.70008   0.70507   0.71739   0.73670
 Alpha virt. eigenvalues --    0.74079   0.75232   0.75357   0.76412   0.78149
 Alpha virt. eigenvalues --    0.78650   0.80195   0.80619   0.82265   0.82838
 Alpha virt. eigenvalues --    0.83142   0.85503   0.85986   0.87211   0.87813
 Alpha virt. eigenvalues --    0.90153   0.90555   0.91323   0.92152   0.93576
 Alpha virt. eigenvalues --    0.93944   0.96084   0.96857   0.97740   1.00665
 Alpha virt. eigenvalues --    1.03942   1.04379   1.06541   1.10635   1.11508
 Alpha virt. eigenvalues --    1.15419   1.18527   1.23737   1.23812   1.24683
 Alpha virt. eigenvalues --    1.32163   1.32894   1.34163   1.34499   1.38846
 Alpha virt. eigenvalues --    1.39460   1.41747   1.42144   1.44372   1.47908
 Alpha virt. eigenvalues --    1.51479   1.51903   1.52429   1.56138   1.64476
 Alpha virt. eigenvalues --    1.66208   1.67607   1.72969   1.81031   1.82080
 Alpha virt. eigenvalues --    1.84018   1.84428   1.86481   1.91639   1.93946
 Alpha virt. eigenvalues --    1.94432   1.94538   1.95021   1.95167   1.97532
 Alpha virt. eigenvalues --    1.98672   2.00985   2.01516   2.02128   2.07105
 Alpha virt. eigenvalues --    2.13114   2.18056   2.18656   2.21075   2.22606
 Alpha virt. eigenvalues --    2.22607   2.23626   2.26013   2.27602   2.35812
 Alpha virt. eigenvalues --    2.38548   2.39705   2.41904   2.45485   2.49274
 Alpha virt. eigenvalues --    2.50165   2.53949   2.56032   2.59277   2.59623
 Alpha virt. eigenvalues --    2.64723   2.65955   2.67850   2.68349   2.69660
 Alpha virt. eigenvalues --    2.70756   2.71059   2.74221   2.74235   2.75376
 Alpha virt. eigenvalues --    2.81636   2.83794   2.93324   2.98780   2.99894
 Alpha virt. eigenvalues --    3.01706   3.02323   3.03768   3.04059   3.08842
 Alpha virt. eigenvalues --    3.09084   3.12955   3.26101   3.27695   3.28964
 Alpha virt. eigenvalues --    3.30579   3.38331   3.41671   3.44577   3.51025
 Alpha virt. eigenvalues --    3.71987   3.73613   3.83653   3.93032   3.95672
 Alpha virt. eigenvalues --    3.98848   4.03607
          Condensed to atoms (all electrons):
 Mulliken charges:
               1
     1  C   -4.715898
     2  C    4.681716
     3  C   -4.622923
     4  C   -4.609412
     5  H    1.495381
     6  H    1.495381
     7  Cl  -0.020952
     8  H    1.248201
     9  H    1.193709
    10  H    1.171415
    11  H    1.184575
    12  H    1.252014
    13  C   -4.609412
    14  H    1.171416
    15  H    1.252014
    16  H    1.184574
    17  H    1.248201
 Sum of Mulliken charges =  -0.00000
 Mulliken charges with hydrogens summed into heavy atoms:
               1
     1  C   -1.025788
     2  C    4.681716
     3  C   -1.632162
     4  C   -1.001408
     7  Cl  -0.020952
    13  C   -1.001408
 Electronic spatial extent (au):  <R**2>=            872.0858
 Charge=              0.0000 electrons
 Dipole moment (field-independent basis, Debye):
    X=              2.4318    Y=              0.7931    Z=              0.0000  Tot=              2.5579

 Test job not archived.
 1\1\GINC-SE120\SP\RHF\Aug-CC-pVDZ\C5H11Cl1\OHZDE\08-Apr-2025\0\\#t hf 
 aug-cc-pvdz iop(5/13=1,5/36=2,99/5=2) pseudo=read geom=check guess=(re
 ad,tcheck) scf=(maxcycle=1)\\title\\0,1\C,0,2.003969,0.928722,0.\C,0,0
 .784143,-0.017451,0.\C,0,-0.454456,0.893194,0.\C,0,0.818245,-0.89592,-
 1.261797\H,0,-0.477697,1.523262,-0.888793\H,0,-0.477698,1.523263,0.888
 791\Cl,0,-2.04787,0.006078,0.\H,0,2.012982,1.570855,-0.885969\H,0,2.93
 0235,0.347792,0.\H,0,0.802973,-0.284765,-2.169675\H,0,-0.037112,-1.573
 517,-1.296611\H,0,1.730194,-1.499276,-1.278917\C,0,0.818245,-0.895919,
 1.261798\H,0,0.802972,-0.284763,2.169675\H,0,1.730193,-1.499275,1.2789
 19\H,0,-0.037113,-1.573516,1.296612\H,0,2.012982,1.570856,0.885968\\Ve
 rsion=ES64L-G16RevC.01\State=1-A\HF=-656.5594794\RMSD=4.171e-01\Dipole
 =0.9567521,0.312041,0.0000004\Quadrupole=-2.0809071,1.5778064,0.503100
 7,0.0757402,0.0000013,0.0000036\PG=C01 [X(C5H11Cl1)]\\@


 WE HAVE SEEN THAT MAN ON THE AVERAGE DOES NOT LIVE ABOVE
 TWO-AND-TWENTY YEARS.  DURING THESE TWO AND TWENTY
 YEARS HE IS LIABLE TO TWO AND TWENTY THOUSAND EVILS,
 MANY OF WHICH ARE INCURABLE.  YET EVEN IN THIS DREADFUL STATE
 MEN STILL STRUT AND POSE ON THE STAGE OF LIFE.
 THEY MAKE LOVE AT THE RISK OF DESTRUCTION,
 INTRIGUE, CARRY ON WAR, AND FORM PROJECTS, JUST AS IF THEY
 WERE TO LIVE IN LUXURY AND HAPPINESS FOR A THOUSAND
 AGES.

                                              -- VOLTAIRE
 Job cpu time:       0 days  0 hours  1 minutes 27.0 seconds.
 Elapsed time:       0 days  0 hours  0 minutes  6.6 seconds.
 File lengths (MBytes):  RWF=     14 Int=      0 D2E=      0 Chk=      8 Scr=      1
 Normal termination of Gaussian 16 at Tue Apr  8 22:49:22 2025.
