 Entering Gaussian System, Link 0=g16
 Input=BDE49_nonexpt_101_mol1.gjf
 Output=BDE49_nonexpt_101_mol1.log
 Initial command:
 /arc/software/Gaussian/g16.c01/l1.exe "/tmp/slurm/4843963/Gau-1768239.inp" -scrdir="/tmp/slurm/4843963/"
 Entering Link 1 = /arc/software/Gaussian/g16.c01/l1.exe PID=   1768240.
  
 Copyright (c) 1988-2019, Gaussian, Inc.  All Rights Reserved.
  
 This is part of the Gaussian(R) 16 program.  It is based on
 the Gaussian(R) 09 system (copyright 2009, Gaussian, Inc.),
 the Gaussian(R) 03 system (copyright 2003, Gaussian, Inc.),
 the Gaussian(R) 98 system (copyright 1998, Gaussian, Inc.),
 the Gaussian(R) 94 system (copyright 1995, Gaussian, Inc.),
 the Gaussian 92(TM) system (copyright 1992, Gaussian, Inc.),
 the Gaussian 90(TM) system (copyright 1990, Gaussian, Inc.),
 the Gaussian 88(TM) system (copyright 1988, Gaussian, Inc.),
 the Gaussian 86(TM) system (copyright 1986, Carnegie Mellon
 University), and the Gaussian 82(TM) system (copyright 1983,
 Carnegie Mellon University). Gaussian is a federally registered
 trademark of Gaussian, Inc.
  
 This software contains proprietary and confidential information,
 including trade secrets, belonging to Gaussian, Inc.
  
 This software is provided under written license and may be
 used, copied, transmitted, or stored only in accord with that
 written license.
  
 The following legend is applicable only to US Government
 contracts under FAR:
  
                    RESTRICTED RIGHTS LEGEND
  
 Use, reproduction and disclosure by the US Government is
 subject to restrictions as set forth in subparagraphs (a)
 and (c) of the Commercial Computer Software - Restricted
 Rights clause in FAR 52.227-19.
  
 Gaussian, Inc.
 340 Quinnipiac St., Bldg. 40, Wallingford CT 06492
  
  
 ---------------------------------------------------------------
 Warning -- This program may not be used in any manner that
 competes with the business of Gaussian, Inc. or will provide
 assistance to any competitor of Gaussian, Inc.  The licensee
 of this program is prohibited from giving any competitor of
 Gaussian, Inc. access to this program.  By using this program,
 the user acknowledges that Gaussian, Inc. is engaged in the
 business of creating and licensing software in the field of
 computational chemistry and represents and warrants to the
 licensee that it is not a competitor of Gaussian, Inc. and that
 it will not use this program in any manner prohibited above.
 ---------------------------------------------------------------
  

 Cite this work as:
 Gaussian 16, Revision C.01,
 M. J. Frisch, G. W. Trucks, H. B. Schlegel, G. E. Scuseria, 
 M. A. Robb, J. R. Cheeseman, G. Scalmani, V. Barone, 
 G. A. Petersson, H. Nakatsuji, X. Li, M. Caricato, A. V. Marenich, 
 J. Bloino, B. G. Janesko, R. Gomperts, B. Mennucci, H. P. Hratchian, 
 J. V. Ortiz, A. F. Izmaylov, J. L. Sonnenberg, D. Williams-Young, 
 F. Ding, F. Lipparini, F. Egidi, J. Goings, B. Peng, A. Petrone, 
 T. Henderson, D. Ranasinghe, V. G. Zakrzewski, J. Gao, N. Rega, 
 G. Zheng, W. Liang, M. Hada, M. Ehara, K. Toyota, R. Fukuda, 
 J. Hasegawa, M. Ishida, T. Nakajima, Y. Honda, O. Kitao, H. Nakai, 
 T. Vreven, K. Throssell, J. A. Montgomery, Jr., J. E. Peralta, 
 F. Ogliaro, M. J. Bearpark, J. J. Heyd, E. N. Brothers, K. N. Kudin, 
 V. N. Staroverov, T. A. Keith, R. Kobayashi, J. Normand, 
 K. Raghavachari, A. P. Rendell, J. C. Burant, S. S. Iyengar, 
 J. Tomasi, M. Cossi, J. M. Millam, M. Klene, C. Adamo, R. Cammi, 
 J. W. Ochterski, R. L. Martin, K. Morokuma, O. Farkas, 
 J. B. Foresman, and D. J. Fox, Gaussian, Inc., Wallingford CT, 2019.
 
 ******************************************
 Gaussian 16:  ES64L-G16RevC.01  3-Jul-2019
                 8-Apr-2025 
 ******************************************
 %nprocs=16
 Will use up to   16 processors via shared memory.
 %mem=30GB
 %chk=BDE49_nonexpt_101_mol1.chk
 ----------------------------------------------------------------------
 #t hf aug-cc-pvdz symm=none int=(grid=ultrafine) guess=(read,tcheck) s
 table=(opt,rrhf)
 ----------------------------------------------------------------------
 -----
 title
 -----
 Symbolic Z-matrix:
 Charge =  0 Multiplicity = 1
 B                     2.09474   0.61092  0. 
 B                     1.07567  -0.68766  -0.00032 
 S                    -0.69947  -0.67845   0.00001 
 C                    -1.20175   1.09006   0.00009 
 H                    -2.29108   1.11737   0.00028 
 H                    -0.83274   1.59052  -0.89446 
 H                    -0.83243   1.59054   0.8945 
 H                     2.49759   1.10114  -1.01395 
 H                     2.49694   1.10119   1.01418 
 H                     1.5117   -1.80224   0.00029 
 
                    Distance matrix (angstroms):
                    1          2          3          4          5
     1  B    0.000000
     2  B    1.650706   0.000000
     3  S    3.077352   1.775161   0.000000
     4  C    3.331132   2.889106   1.838456   0.000000
     5  H    4.414968   3.820096   2.399624   1.089673   0.000000
     6  H    3.214003   3.103486   2.442555   1.089423   1.775158
     7  H    3.213741   3.103505   2.442561   1.089422   1.775156
     8  H    1.196114   2.499821   3.796870   3.835818   4.894923
     9  H    1.196115   2.499840   3.796405   3.835212   4.894226
    10  H    2.482598   1.196832   2.480352   3.965879   4.794290
                    6          7          8          9         10
     6  H    0.000000
     7  H    1.788953   0.000000
     8  H    3.368212   3.869202   0.000000
     9  H    3.868998   3.367275   2.028134   0.000000
    10  H    4.219926   4.219658   3.229590   3.229331   0.000000
 Symmetry turned off by external request.
 Rotational constants (GHZ):           9.4277766           4.2328126           3.0512535
   150 basis functions,   276 primitive gaussians,   158 cartesian basis functions
    19 alpha electrons       19 beta electrons
       nuclear repulsion energy       130.1529316082 Hartrees.
 NAtoms=   10 NActive=   10 NUniq=   10 SFac= 1.00D+00 NAtFMM=   60 NAOKFM=F Big=F
 ExpMin= 2.38D-02 ExpMax= 1.11D+05 ExpMxC= 1.07D+03 IAcc=3 IRadAn=         5 AccDes= 0.00D+00
 Harris functional with IExCor=  205 and IRadAn=       5 diagonalized for initial guess.
 HarFok:  IExCor=  205 AccDes= 0.00D+00 IRadAn=         5 IDoV= 1 UseB2=F ITyADJ=14
 ICtDFT=  3500011 ScaDFX=  1.000000  1.000000  1.000000  1.000000
 FoFCou: FMM=F IPFlag=           0 FMFlag=      100000 FMFlg1=           0
         NFxFlg=           0 DoJE=T BraDBF=F KetDBF=T FulRan=T
         wScrn=  0.000000 ICntrl=       500 IOpCl=  0 I1Cent=   200000004 NGrid=           0
         NMat0=    1 NMatS0=      1 NMatT0=    0 NMatD0=    1 NMtDS0=    0 NMtDT0=    0
 Symmetry not used in FoFCou.
 SCF Done:  E(RHF) =  -488.255339659     A.U. after   13 cycles
            NFock= 13  Conv=0.67D-08     -V/T= 2.0000

 **********************************************************************

            Population analysis using the SCF Density.

 **********************************************************************

 Alpha  occ. eigenvalues --  -91.95519 -11.26983  -8.95855  -7.60625  -7.60250
 Alpha  occ. eigenvalues --   -6.64041  -6.63878  -6.63790  -1.04212  -0.88538
 Alpha  occ. eigenvalues --   -0.72591  -0.62491  -0.59721  -0.59344  -0.50075
 Alpha  occ. eigenvalues --   -0.49535  -0.46969  -0.40434  -0.37550
 Alpha virt. eigenvalues --    0.03148   0.03912   0.04388   0.05052   0.05402
 Alpha virt. eigenvalues --    0.06754   0.06927   0.07026   0.07270   0.08645
 Alpha virt. eigenvalues --    0.10426   0.10826   0.12510   0.13476   0.13892
 Alpha virt. eigenvalues --    0.14162   0.14836   0.15840   0.16958   0.17677
 Alpha virt. eigenvalues --    0.18513   0.18541   0.20755   0.24518   0.24742
 Alpha virt. eigenvalues --    0.25169   0.25644   0.29213   0.29444   0.30950
 Alpha virt. eigenvalues --    0.31737   0.33207   0.35160   0.35880   0.36332
 Alpha virt. eigenvalues --    0.37255   0.38117   0.40307   0.41047   0.42470
 Alpha virt. eigenvalues --    0.43505   0.44165   0.45607   0.45765   0.47067
 Alpha virt. eigenvalues --    0.48247   0.48444   0.51648   0.52365   0.53647
 Alpha virt. eigenvalues --    0.54573   0.54729   0.55795   0.56533   0.57687
 Alpha virt. eigenvalues --    0.57868   0.59530   0.60867   0.63026   0.63710
 Alpha virt. eigenvalues --    0.65852   0.67333   0.68805   0.68964   0.69632
 Alpha virt. eigenvalues --    0.72475   0.72979   0.73837   0.75154   0.76025
 Alpha virt. eigenvalues --    0.80870   0.83468   0.83844   0.86861   0.88310
 Alpha virt. eigenvalues --    0.89401   0.90765   0.99126   1.01915   1.03498
 Alpha virt. eigenvalues --    1.08672   1.10368   1.11927   1.15457   1.15516
 Alpha virt. eigenvalues --    1.17903   1.19783   1.20125   1.25109   1.26968
 Alpha virt. eigenvalues --    1.28783   1.31013   1.31544   1.35530   1.38639
 Alpha virt. eigenvalues --    1.40792   1.42984   1.44760   1.46708   1.55927
 Alpha virt. eigenvalues --    1.59823   1.69720   1.73095   1.75973   1.79493
 Alpha virt. eigenvalues --    1.81695   1.81988   1.90617   1.91639   1.96357
 Alpha virt. eigenvalues --    2.05145   2.08515   2.09556   2.10119   2.16890
 Alpha virt. eigenvalues --    2.19900   2.21586   2.21620   2.26034   2.26402
 Alpha virt. eigenvalues --    2.33931   2.45344   2.49430   2.54380   2.56165
 Alpha virt. eigenvalues --    2.62333   2.67084   2.73693   2.84492   2.93489
 Alpha virt. eigenvalues --    2.99737
          Condensed to atoms (all electrons):
 Mulliken charges:
               1
     1  B   -0.765888
     2  B    0.065741
     3  S   -0.075669
     4  C    0.054993
     5  H   -0.131793
     6  H   -0.087464
     7  H   -0.087372
     8  H    0.368624
     9  H    0.368689
    10  H    0.290139
 Sum of Mulliken charges =  -0.00000
 Mulliken charges with hydrogens summed into heavy atoms:
               1
     1  B   -0.028575
     2  B    0.355880
     3  S   -0.075669
     4  C   -0.251635
 Electronic spatial extent (au):  <R**2>=            434.7597
 Charge=             -0.0000 electrons
 Dipole moment (field-independent basis, Debye):
    X=             -0.1548    Y=              1.5514    Z=             -0.0004  Tot=              1.5591
 NROrb=    150 NOA=    19 NOB=    19 NVA=   131 NVB=   131

 **** Warning!!: The largest alpha MO coefficient is  0.46206177D+02

    12 initial guesses have been made.
 Iteration     1 Dimension    12 NMult     0 NNew     12
 New state      1 was old state      2
 Iteration     2 Dimension    24 NMult    12 NNew     12
 New state      1 was old state      2
 Iteration     3 Dimension    27 NMult    24 NNew      3
 Iteration     4 Dimension    30 NMult    27 NNew      3
 Iteration     5 Dimension    33 NMult    30 NNew      3
 Iteration     6 Dimension    36 NMult    33 NNew      3
 ***********************************************************************
 Stability analysis using <AA,BB:AA,BB> singles matrix:
 ***********************************************************************
 Ground to excited state transition densities written to RWF  633

 Eigenvectors of the stability matrix:
 
 Excited state symmetry could not be determined.
 Eigenvector   1:      Singlet-?Sym  Eigenvalue= 0.2098071  <S**2>=0.000
      15 -> 21        -0.14985
      15 -> 24        -0.10138
      15 -> 29        -0.12910
      15 -> 30        -0.10282
      18 -> 20        -0.14010
      18 -> 21         0.35121
      18 -> 24         0.22306
      18 -> 25        -0.12399
      18 -> 29         0.26869
      18 -> 30         0.22285
      18 -> 32         0.10208
      19 -> 31        -0.13250
 The wavefunction is stable under the perturbations considered.
 The wavefunction is already stable.

 **********************************************************************

            Population analysis using the SCF Density.

 **********************************************************************

 Alpha  occ. eigenvalues --  -91.95519 -11.26983  -8.95855  -7.60625  -7.60250
 Alpha  occ. eigenvalues --   -6.64041  -6.63878  -6.63790  -1.04212  -0.88538
 Alpha  occ. eigenvalues --   -0.72591  -0.62491  -0.59721  -0.59344  -0.50075
 Alpha  occ. eigenvalues --   -0.49535  -0.46969  -0.40434  -0.37550
 Alpha virt. eigenvalues --    0.03148   0.03912   0.04388   0.05052   0.05402
 Alpha virt. eigenvalues --    0.06754   0.06927   0.07026   0.07270   0.08645
 Alpha virt. eigenvalues --    0.10426   0.10826   0.12510   0.13476   0.13892
 Alpha virt. eigenvalues --    0.14162   0.14836   0.15840   0.16958   0.17677
 Alpha virt. eigenvalues --    0.18513   0.18541   0.20755   0.24518   0.24742
 Alpha virt. eigenvalues --    0.25169   0.25644   0.29213   0.29444   0.30950
 Alpha virt. eigenvalues --    0.31737   0.33207   0.35160   0.35880   0.36332
 Alpha virt. eigenvalues --    0.37255   0.38117   0.40307   0.41047   0.42470
 Alpha virt. eigenvalues --    0.43505   0.44165   0.45607   0.45765   0.47067
 Alpha virt. eigenvalues --    0.48247   0.48444   0.51648   0.52365   0.53647
 Alpha virt. eigenvalues --    0.54573   0.54729   0.55795   0.56533   0.57687
 Alpha virt. eigenvalues --    0.57868   0.59530   0.60867   0.63026   0.63710
 Alpha virt. eigenvalues --    0.65852   0.67333   0.68805   0.68964   0.69632
 Alpha virt. eigenvalues --    0.72475   0.72979   0.73837   0.75154   0.76025
 Alpha virt. eigenvalues --    0.80870   0.83468   0.83844   0.86861   0.88310
 Alpha virt. eigenvalues --    0.89401   0.90765   0.99126   1.01915   1.03498
 Alpha virt. eigenvalues --    1.08672   1.10368   1.11927   1.15457   1.15516
 Alpha virt. eigenvalues --    1.17903   1.19783   1.20125   1.25109   1.26968
 Alpha virt. eigenvalues --    1.28783   1.31013   1.31544   1.35530   1.38639
 Alpha virt. eigenvalues --    1.40792   1.42984   1.44760   1.46708   1.55927
 Alpha virt. eigenvalues --    1.59823   1.69720   1.73095   1.75973   1.79493
 Alpha virt. eigenvalues --    1.81695   1.81988   1.90617   1.91639   1.96357
 Alpha virt. eigenvalues --    2.05145   2.08515   2.09556   2.10119   2.16890
 Alpha virt. eigenvalues --    2.19900   2.21586   2.21620   2.26034   2.26402
 Alpha virt. eigenvalues --    2.33931   2.45344   2.49430   2.54380   2.56165
 Alpha virt. eigenvalues --    2.62333   2.67084   2.73693   2.84492   2.93489
 Alpha virt. eigenvalues --    2.99737
          Condensed to atoms (all electrons):
 Mulliken charges:
               1
     1  B   -0.765888
     2  B    0.065741
     3  S   -0.075669
     4  C    0.054993
     5  H   -0.131793
     6  H   -0.087464
     7  H   -0.087372
     8  H    0.368624
     9  H    0.368689
    10  H    0.290139
 Sum of Mulliken charges =  -0.00000
 Mulliken charges with hydrogens summed into heavy atoms:
               1
     1  B   -0.028575
     2  B    0.355880
     3  S   -0.075669
     4  C   -0.251635
 Electronic spatial extent (au):  <R**2>=            434.7597
 Charge=             -0.0000 electrons
 Dipole moment (field-independent basis, Debye):
    X=             -0.1548    Y=              1.5514    Z=             -0.0004  Tot=              1.5591
 Unable to Open any file for archive entry.
 1\1\GINC-SE096\Stability\RHF\Aug-CC-pVDZ\C1H6B2S1\OHZDE\08-Apr-2025\0\
 \#t hf aug-cc-pvdz symm=none int=(grid=ultrafine) guess=(read,tcheck) 
 stable=(opt,rrhf)\\title\\0,1\B,0,2.094742,0.610923,-0.000001\B,0,1.07
 5668,-0.68766,-0.000316\S,0,-0.699469,-0.67845,0.000014\C,0,-1.201751,
 1.090062,0.000088\H,0,-2.291082,1.117368,0.000276\H,0,-0.83274,1.59052
 2,-0.894458\H,0,-0.832433,1.590543,0.894495\H,0,2.497587,1.101136,-1.0
 13952\H,0,2.496943,1.101187,1.014182\H,0,1.511695,-1.802239,0.000287\\
 Version=ES64L-G16RevC.01\HF=-488.2553397\RMSD=6.680e-09\Dipole=-0.0608
 967,0.6103744,-0.0001448\Quadrupole=0.746557,-0.2731462,-0.4734109,-2.
 6009434,-0.0003813,0.0003684\PG=Unknown\\@
 The archive entry for this job was punched.


 ... UNTIL SCIENCE IS MIXED WITH EMOTION AND APPEALS TO THE HEART AND
 IMAGINATION , IT IS LIKE DEAD INORGANIC MATTER; AND WHEN IT IS SO MIXED
 AND SO TRANSFORMED IT IS LITERATURE.

                                  -- JOHN BURROUGHS
 Job cpu time:       0 days  0 hours  0 minutes 48.9 seconds.
 Elapsed time:       0 days  0 hours  0 minutes  5.9 seconds.
 File lengths (MBytes):  RWF=    128 Int=      0 D2E=      0 Chk=      4 Scr=      1
 Normal termination of Gaussian 16 at Tue Apr  8 23:17:50 2025.
 Initial command:
 /arc/software/Gaussian/g16.c01/l1.exe "/tmp/slurm/4843963/Gau-1768239.inp" -scrdir="/tmp/slurm/4843963/"
 Entering Link 1 = /arc/software/Gaussian/g16.c01/l1.exe PID=   1768451.
  
 Copyright (c) 1988-2019, Gaussian, Inc.  All Rights Reserved.
  
 This is part of the Gaussian(R) 16 program.  It is based on
 the Gaussian(R) 09 system (copyright 2009, Gaussian, Inc.),
 the Gaussian(R) 03 system (copyright 2003, Gaussian, Inc.),
 the Gaussian(R) 98 system (copyright 1998, Gaussian, Inc.),
 the Gaussian(R) 94 system (copyright 1995, Gaussian, Inc.),
 the Gaussian 92(TM) system (copyright 1992, Gaussian, Inc.),
 the Gaussian 90(TM) system (copyright 1990, Gaussian, Inc.),
 the Gaussian 88(TM) system (copyright 1988, Gaussian, Inc.),
 the Gaussian 86(TM) system (copyright 1986, Carnegie Mellon
 University), and the Gaussian 82(TM) system (copyright 1983,
 Carnegie Mellon University). Gaussian is a federally registered
 trademark of Gaussian, Inc.
  
 This software contains proprietary and confidential information,
 including trade secrets, belonging to Gaussian, Inc.
  
 This software is provided under written license and may be
 used, copied, transmitted, or stored only in accord with that
 written license.
  
 The following legend is applicable only to US Government
 contracts under FAR:
  
                    RESTRICTED RIGHTS LEGEND
  
 Use, reproduction and disclosure by the US Government is
 subject to restrictions as set forth in subparagraphs (a)
 and (c) of the Commercial Computer Software - Restricted
 Rights clause in FAR 52.227-19.
  
 Gaussian, Inc.
 340 Quinnipiac St., Bldg. 40, Wallingford CT 06492
  
  
 ---------------------------------------------------------------
 Warning -- This program may not be used in any manner that
 competes with the business of Gaussian, Inc. or will provide
 assistance to any competitor of Gaussian, Inc.  The licensee
 of this program is prohibited from giving any competitor of
 Gaussian, Inc. access to this program.  By using this program,
 the user acknowledges that Gaussian, Inc. is engaged in the
 business of creating and licensing software in the field of
 computational chemistry and represents and warrants to the
 licensee that it is not a competitor of Gaussian, Inc. and that
 it will not use this program in any manner prohibited above.
 ---------------------------------------------------------------
  

 Cite this work as:
 Gaussian 16, Revision C.01,
 M. J. Frisch, G. W. Trucks, H. B. Schlegel, G. E. Scuseria, 
 M. A. Robb, J. R. Cheeseman, G. Scalmani, V. Barone, 
 G. A. Petersson, H. Nakatsuji, X. Li, M. Caricato, A. V. Marenich, 
 J. Bloino, B. G. Janesko, R. Gomperts, B. Mennucci, H. P. Hratchian, 
 J. V. Ortiz, A. F. Izmaylov, J. L. Sonnenberg, D. Williams-Young, 
 F. Ding, F. Lipparini, F. Egidi, J. Goings, B. Peng, A. Petrone, 
 T. Henderson, D. Ranasinghe, V. G. Zakrzewski, J. Gao, N. Rega, 
 G. Zheng, W. Liang, M. Hada, M. Ehara, K. Toyota, R. Fukuda, 
 J. Hasegawa, M. Ishida, T. Nakajima, Y. Honda, O. Kitao, H. Nakai, 
 T. Vreven, K. Throssell, J. A. Montgomery, Jr., J. E. Peralta, 
 F. Ogliaro, M. J. Bearpark, J. J. Heyd, E. N. Brothers, K. N. Kudin, 
 V. N. Staroverov, T. A. Keith, R. Kobayashi, J. Normand, 
 K. Raghavachari, A. P. Rendell, J. C. Burant, S. S. Iyengar, 
 J. Tomasi, M. Cossi, J. M. Millam, M. Klene, C. Adamo, R. Cammi, 
 J. W. Ochterski, R. L. Martin, K. Morokuma, O. Farkas, 
 J. B. Foresman, and D. J. Fox, Gaussian, Inc., Wallingford CT, 2019.
 
 ******************************************
 Gaussian 16:  ES64L-G16RevC.01  3-Jul-2019
                 8-Apr-2025 
 ******************************************
 %nprocs=16
 Will use up to   16 processors via shared memory.
 %mem=30GB
 %chk=BDE49_nonexpt_101_mol1.chk
 ----------------------------------------------------------------------
 #t hf aug-cc-pvdz iop(5/13=1,5/36=2,99/5=2) pseudo=read geom=check gue
 ss=(read,tcheck) scf=(maxcycle=1)
 ----------------------------------------------------------------------
 -----
 title
 -----
 Structure from the checkpoint file:  "BDE49_nonexpt_101_mol1.chk"
 Charge =  0 Multiplicity = 1
 Z-Matrix found in chk file.
 B,0,2.094742,0.610923,-0.000001
 B,0,1.075668,-0.68766,-0.000316
 S,0,-0.699469,-0.67845,0.000014
 C,0,-1.201751,1.090062,0.000088
 H,0,-2.291082,1.117368,0.000276
 H,0,-0.83274,1.590522,-0.894458
 H,0,-0.832433,1.590543,0.894495
 H,0,2.497587,1.101136,-1.013952
 H,0,2.496943,1.101187,1.014182
 H,0,1.511695,-1.802239,0.000287
 Recover connectivity data from disk.
                    Distance matrix (angstroms):
                    1          2          3          4          5
     1  B    0.000000
     2  B    1.650706   0.000000
     3  S    3.077352   1.775161   0.000000
     4  C    3.331132   2.889106   1.838456   0.000000
     5  H    4.414968   3.820096   2.399624   1.089673   0.000000
     6  H    3.214003   3.103486   2.442555   1.089423   1.775158
     7  H    3.213741   3.103505   2.442561   1.089422   1.775156
     8  H    1.196114   2.499821   3.796870   3.835818   4.894923
     9  H    1.196115   2.499840   3.796405   3.835212   4.894226
    10  H    2.482598   1.196832   2.480352   3.965879   4.794290
                    6          7          8          9         10
     6  H    0.000000
     7  H    1.788953   0.000000
     8  H    3.368212   3.869202   0.000000
     9  H    3.868998   3.367275   2.028134   0.000000
    10  H    4.219926   4.219658   3.229590   3.229331   0.000000
 Framework group  C1[X(CH6B2S)]
 Deg. of freedom    24
                         Standard orientation:                         
 ---------------------------------------------------------------------
 Center     Atomic      Atomic             Coordinates (Angstroms)
 Number     Number       Type             X           Y           Z
 ---------------------------------------------------------------------
      1          5           0        2.094742    0.610923   -0.000001
      2          5           0        1.075668   -0.687660   -0.000316
      3         16           0       -0.699469   -0.678450    0.000014
      4          6           0       -1.201751    1.090062    0.000088
      5          1           0       -2.291082    1.117367    0.000276
      6          1           0       -0.832741    1.590522   -0.894458
      7          1           0       -0.832434    1.590543    0.894495
      8          1           0        2.497587    1.101136   -1.013952
      9          1           0        2.496943    1.101187    1.014182
     10          1           0        1.511695   -1.802239    0.000287
 ---------------------------------------------------------------------
 Rotational constants (GHZ):           9.4277766           4.2328126           3.0512535
 ======================================================================================================
                                       Pseudopotential Parameters
 ======================================================================================================
  Center     Atomic      Valence      Angular      Power
  Number     Number     Electrons     Momentum     of R      Exponent        Coefficient   SO-Coeffient
 ======================================================================================================
    1          5            5
                                      G and up 
                                                     0        0.0000010        0.00322401    0.00000000
                                                     2        0.1200000        0.00498000    0.00000000
                                                     2        0.2000000        0.09485229    0.00000000
                                                     2        0.2400000        0.01359109    0.00000000
                                                     2        0.4000000       -0.77574495    0.00000000
                                                     2        0.7000000        4.88158264    0.00000000
                                                     2        3.0000000       -1.47570482    0.00000000
                                      S - G
                                                     0        0.0000010       -0.03355475    0.00000000
                                                     2        0.1200000        0.61074044    0.00000000
                                                     2        0.2000000       -2.07118504    0.00000000
                                      P - G
                                                     0        0.0000010       -1.02759347    0.00000000
                                                     2        0.1200000        0.64674346    0.00000000
                                                     2        0.2000000       -0.92012472    0.00000000
                                      D - G
                                                     0        0.0000010        1.26102689    0.00000000
                                                     2        0.1200000       -0.86577517    0.00000000
                                                     2        0.4000000        3.34267170    0.00000000
                                                     2        0.9000000      -12.60945446    0.00000000
                                      F - G
                                                     0        0.0000010       -0.36092963    0.00000000
                                                     2        0.1200000       -0.17118798    0.00000000
                                                     2        0.1600000        0.78727920    0.00000000
                                                     2        0.8000000       -6.62088660    0.00000000
                                                     2        1.0000000      -57.27416670    0.00000000
    2          5            5
                                      G and up 
                                                     0        0.0000010        0.00322401    0.00000000
                                                     2        0.1200000        0.00498000    0.00000000
                                                     2        0.2000000        0.09485229    0.00000000
                                                     2        0.2400000        0.01359109    0.00000000
                                                     2        0.4000000       -0.77574495    0.00000000
                                                     2        0.7000000        4.88158264    0.00000000
                                                     2        3.0000000       -1.47570482    0.00000000
                                      S - G
                                                     0        0.0000010       -0.03355475    0.00000000
                                                     2        0.1200000        0.61074044    0.00000000
                                                     2        0.2000000       -2.07118504    0.00000000
                                      P - G
                                                     0        0.0000010       -1.02759347    0.00000000
                                                     2        0.1200000        0.64674346    0.00000000
                                                     2        0.2000000       -0.92012472    0.00000000
                                      D - G
                                                     0        0.0000010        1.26102689    0.00000000
                                                     2        0.1200000       -0.86577517    0.00000000
                                                     2        0.4000000        3.34267170    0.00000000
                                                     2        0.9000000      -12.60945446    0.00000000
                                      F - G
                                                     0        0.0000010       -0.36092963    0.00000000
                                                     2        0.1200000       -0.17118798    0.00000000
                                                     2        0.1600000        0.78727920    0.00000000
                                                     2        0.8000000       -6.62088660    0.00000000
                                                     2        1.0000000      -57.27416670    0.00000000
    3         16           16
                                      G and up 
                                                     0        0.0000010       -0.00444167    0.00000000
                                                     2        0.1200000        0.11677988    0.00000000
                                                     2        0.1400000       -0.22050378    0.00000000
                                                     2        0.1800000        0.26452031    0.00000000
                                                     2        0.2800000       -0.04353316    0.00000000
                                                     2        0.5000000       -1.18567514    0.00000000
                                      S - G
                                                     0        0.0000010        0.03992419    0.00000000
                                                     2        0.1200000       -0.56926432    0.00000000
                                                     2        0.3000000        0.88393965    0.00000000
                                      P - G
                                                     0        0.0000010       -0.92181603    0.00000000
                                                     2        0.1200000        1.30681810    0.00000000
                                                     2        0.2000000       -1.50828653    0.00000000
                                                     2        0.2400000       -2.25148793    0.00000000
                                                     2        0.6000000       10.10218731    0.00000000
                                      D - G
                                                     0        0.0000010        0.72039481    0.00000000
                                                     2        0.1200000       -0.56105075    0.00000000
                                                     2        0.2000000        0.42910414    0.00000000
                                                     2        0.8000000        0.44203418    0.00000000
                                      F - G
                                                     2        0.1200000       -0.62623060    0.00000000
                                                     2        0.1800000        0.89777932    0.00000000
                                                     2        0.5000000       -1.32991832    0.00000000
    4          6            6
                                      G and up 
                                                     0        0.0000010       -0.00286759    0.00000000
                                                     2        0.1200000        0.03193960    0.00000000
                                                     2        0.1600000       -0.04027782    0.00000000
                                                     2        0.2600000        0.24782456    0.00000000
                                                     2        0.4000000       -0.62266671    0.00000000
                                                     2        0.7000000        0.35695227    0.00000000
                                      S - G
                                                     0        0.0000010       -0.06602313    0.00000000
                                                     2        0.1200000        1.47277455    0.00000000
                                                     2        0.1600000       -4.06924166    0.00000000
                                                     2        0.3000000        5.02952802    0.00000000
                                                     2        0.7000000       -5.65856978    0.00000000
                                                     2        1.7000000        8.57604414    0.00000000
                                      P - G
                                                     0        0.0000010        0.49434425    0.00000000
                                                     2        0.1200000       -1.37391547    0.00000000
                                                     2        0.1600000        3.65411806    0.00000000
                                                     2        0.2800000       -7.36479843    0.00000000
                                                     2        0.6000000       17.22091285    0.00000000
                                                     2        1.1000000      -23.50107827    0.00000000
                                                     2        3.0000000       16.29464063    0.00000000
                                      D - G
                                                     0        0.0000010       -0.28693103    0.00000000
                                                     2        0.1200000        0.12273044    0.00000000
                                                     2        0.3000000       -0.43416384    0.00000000
                                                     2        0.7000000        2.23358493    0.00000000
                                      F - G
                                                     0        0.0000010        0.07263570    0.00000000
                                                     2        0.1400000       -0.76152861    0.00000000
                                                     2        0.2200000        1.98045593    0.00000000
                                                     2        0.4000000       -2.42426427    0.00000000
                                                     2        0.7000000        0.52335237    0.00000000
    5          1            1
                                      F and up 
                                                     0        0.0000010        0.00072061    0.00000000
                                                     2        0.1200000        0.03832357    0.00000000
                                                     2        0.1400000       -0.08683256    0.00000000
                                                     2        0.1800000        0.09312970    0.00000000
                                                     2        0.2800000       -0.02532572    0.00000000
                                                     2        0.4000000       -0.09430787    0.00000000
                                                     2        0.7000000        0.42710831    0.00000000
                                                     2        1.2000000       -2.11746981    0.00000000
                                      S - F
                                                     0        0.0000010        0.14449603    0.00000000
                                                     2        0.1200000       -0.56378993    0.00000000
                                                     2        0.1400000        0.63941249    0.00000000
                                                     2        0.2600000       -0.58461015    0.00000000
                                                     2        0.5000000        1.00157293    0.00000000
                                                     2        1.8000000       -0.14135838    0.00000000
                                      P - F
                                                     0        0.0000010       -0.09353646    0.00000000
                                                     2        0.1200000        0.31768975    0.00000000
                                                     2        0.2000000       -0.71747951    0.00000000
                                                     2        0.4000000        0.65752308    0.00000000
                                                     2        1.7000000        2.94052587    0.00000000
                                      D - F
                                                     0        0.0000010       -0.04491202    0.00000000
                                                     2        0.1200000       -0.02862031    0.00000000
                                                     2        0.1800000       -0.21515263    0.00000000
                                                     2        0.3000000        0.80560647    0.00000000
                                                     2        0.4000000        0.47351754    0.00000000
                                                     2        0.7000000       -4.57051794    0.00000000
                                                     2        1.6000000       18.53737826    0.00000000
    6          1            1
                                      F and up 
                                                     0        0.0000010        0.00072061    0.00000000
                                                     2        0.1200000        0.03832357    0.00000000
                                                     2        0.1400000       -0.08683256    0.00000000
                                                     2        0.1800000        0.09312970    0.00000000
                                                     2        0.2800000       -0.02532572    0.00000000
                                                     2        0.4000000       -0.09430787    0.00000000
                                                     2        0.7000000        0.42710831    0.00000000
                                                     2        1.2000000       -2.11746981    0.00000000
                                      S - F
                                                     0        0.0000010        0.14449603    0.00000000
                                                     2        0.1200000       -0.56378993    0.00000000
                                                     2        0.1400000        0.63941249    0.00000000
                                                     2        0.2600000       -0.58461015    0.00000000
                                                     2        0.5000000        1.00157293    0.00000000
                                                     2        1.8000000       -0.14135838    0.00000000
                                      P - F
                                                     0        0.0000010       -0.09353646    0.00000000
                                                     2        0.1200000        0.31768975    0.00000000
                                                     2        0.2000000       -0.71747951    0.00000000
                                                     2        0.4000000        0.65752308    0.00000000
                                                     2        1.7000000        2.94052587    0.00000000
                                      D - F
                                                     0        0.0000010       -0.04491202    0.00000000
                                                     2        0.1200000       -0.02862031    0.00000000
                                                     2        0.1800000       -0.21515263    0.00000000
                                                     2        0.3000000        0.80560647    0.00000000
                                                     2        0.4000000        0.47351754    0.00000000
                                                     2        0.7000000       -4.57051794    0.00000000
                                                     2        1.6000000       18.53737826    0.00000000
    7          1            1
                                      F and up 
                                                     0        0.0000010        0.00072061    0.00000000
                                                     2        0.1200000        0.03832357    0.00000000
                                                     2        0.1400000       -0.08683256    0.00000000
                                                     2        0.1800000        0.09312970    0.00000000
                                                     2        0.2800000       -0.02532572    0.00000000
                                                     2        0.4000000       -0.09430787    0.00000000
                                                     2        0.7000000        0.42710831    0.00000000
                                                     2        1.2000000       -2.11746981    0.00000000
                                      S - F
                                                     0        0.0000010        0.14449603    0.00000000
                                                     2        0.1200000       -0.56378993    0.00000000
                                                     2        0.1400000        0.63941249    0.00000000
                                                     2        0.2600000       -0.58461015    0.00000000
                                                     2        0.5000000        1.00157293    0.00000000
                                                     2        1.8000000       -0.14135838    0.00000000
                                      P - F
                                                     0        0.0000010       -0.09353646    0.00000000
                                                     2        0.1200000        0.31768975    0.00000000
                                                     2        0.2000000       -0.71747951    0.00000000
                                                     2        0.4000000        0.65752308    0.00000000
                                                     2        1.7000000        2.94052587    0.00000000
                                      D - F
                                                     0        0.0000010       -0.04491202    0.00000000
                                                     2        0.1200000       -0.02862031    0.00000000
                                                     2        0.1800000       -0.21515263    0.00000000
                                                     2        0.3000000        0.80560647    0.00000000
                                                     2        0.4000000        0.47351754    0.00000000
                                                     2        0.7000000       -4.57051794    0.00000000
                                                     2        1.6000000       18.53737826    0.00000000
    8          1            1
                                      F and up 
                                                     0        0.0000010        0.00072061    0.00000000
                                                     2        0.1200000        0.03832357    0.00000000
                                                     2        0.1400000       -0.08683256    0.00000000
                                                     2        0.1800000        0.09312970    0.00000000
                                                     2        0.2800000       -0.02532572    0.00000000
                                                     2        0.4000000       -0.09430787    0.00000000
                                                     2        0.7000000        0.42710831    0.00000000
                                                     2        1.2000000       -2.11746981    0.00000000
                                      S - F
                                                     0        0.0000010        0.14449603    0.00000000
                                                     2        0.1200000       -0.56378993    0.00000000
                                                     2        0.1400000        0.63941249    0.00000000
                                                     2        0.2600000       -0.58461015    0.00000000
                                                     2        0.5000000        1.00157293    0.00000000
                                                     2        1.8000000       -0.14135838    0.00000000
                                      P - F
                                                     0        0.0000010       -0.09353646    0.00000000
                                                     2        0.1200000        0.31768975    0.00000000
                                                     2        0.2000000       -0.71747951    0.00000000
                                                     2        0.4000000        0.65752308    0.00000000
                                                     2        1.7000000        2.94052587    0.00000000
                                      D - F
                                                     0        0.0000010       -0.04491202    0.00000000
                                                     2        0.1200000       -0.02862031    0.00000000
                                                     2        0.1800000       -0.21515263    0.00000000
                                                     2        0.3000000        0.80560647    0.00000000
                                                     2        0.4000000        0.47351754    0.00000000
                                                     2        0.7000000       -4.57051794    0.00000000
                                                     2        1.6000000       18.53737826    0.00000000
    9          1            1
                                      F and up 
                                                     0        0.0000010        0.00072061    0.00000000
                                                     2        0.1200000        0.03832357    0.00000000
                                                     2        0.1400000       -0.08683256    0.00000000
                                                     2        0.1800000        0.09312970    0.00000000
                                                     2        0.2800000       -0.02532572    0.00000000
                                                     2        0.4000000       -0.09430787    0.00000000
                                                     2        0.7000000        0.42710831    0.00000000
                                                     2        1.2000000       -2.11746981    0.00000000
                                      S - F
                                                     0        0.0000010        0.14449603    0.00000000
                                                     2        0.1200000       -0.56378993    0.00000000
                                                     2        0.1400000        0.63941249    0.00000000
                                                     2        0.2600000       -0.58461015    0.00000000
                                                     2        0.5000000        1.00157293    0.00000000
                                                     2        1.8000000       -0.14135838    0.00000000
                                      P - F
                                                     0        0.0000010       -0.09353646    0.00000000
                                                     2        0.1200000        0.31768975    0.00000000
                                                     2        0.2000000       -0.71747951    0.00000000
                                                     2        0.4000000        0.65752308    0.00000000
                                                     2        1.7000000        2.94052587    0.00000000
                                      D - F
                                                     0        0.0000010       -0.04491202    0.00000000
                                                     2        0.1200000       -0.02862031    0.00000000
                                                     2        0.1800000       -0.21515263    0.00000000
                                                     2        0.3000000        0.80560647    0.00000000
                                                     2        0.4000000        0.47351754    0.00000000
                                                     2        0.7000000       -4.57051794    0.00000000
                                                     2        1.6000000       18.53737826    0.00000000
   10          1            1
                                      F and up 
                                                     0        0.0000010        0.00072061    0.00000000
                                                     2        0.1200000        0.03832357    0.00000000
                                                     2        0.1400000       -0.08683256    0.00000000
                                                     2        0.1800000        0.09312970    0.00000000
                                                     2        0.2800000       -0.02532572    0.00000000
                                                     2        0.4000000       -0.09430787    0.00000000
                                                     2        0.7000000        0.42710831    0.00000000
                                                     2        1.2000000       -2.11746981    0.00000000
                                      S - F
                                                     0        0.0000010        0.14449603    0.00000000
                                                     2        0.1200000       -0.56378993    0.00000000
                                                     2        0.1400000        0.63941249    0.00000000
                                                     2        0.2600000       -0.58461015    0.00000000
                                                     2        0.5000000        1.00157293    0.00000000
                                                     2        1.8000000       -0.14135838    0.00000000
                                      P - F
                                                     0        0.0000010       -0.09353646    0.00000000
                                                     2        0.1200000        0.31768975    0.00000000
                                                     2        0.2000000       -0.71747951    0.00000000
                                                     2        0.4000000        0.65752308    0.00000000
                                                     2        1.7000000        2.94052587    0.00000000
                                      D - F
                                                     0        0.0000010       -0.04491202    0.00000000
                                                     2        0.1200000       -0.02862031    0.00000000
                                                     2        0.1800000       -0.21515263    0.00000000
                                                     2        0.3000000        0.80560647    0.00000000
                                                     2        0.4000000        0.47351754    0.00000000
                                                     2        0.7000000       -4.57051794    0.00000000
                                                     2        1.6000000       18.53737826    0.00000000
 ======================================================================================================
   150 basis functions,   276 primitive gaussians,   158 cartesian basis functions
    19 alpha electrons       19 beta electrons
       nuclear repulsion energy       130.1529316082 Hartrees.
 NAtoms=   10 NActive=   10 NUniq=   10 SFac= 1.00D+00 NAtFMM=   60 NAOKFM=F Big=F
   1 Symmetry operations used in ECPInt.
 ECPInt:  NShTT=    2346 NPrTT=   12210 LenC2=    2347 LenP2D=   10006.
 LDataN:  DoStor=T MaxTD1= 6 Len=  172
 Initial guess from the checkpoint file:  "BDE49_nonexpt_101_mol1.chk"
 B after Tr=    -0.000000   -0.000000    0.000000
         Rot=    1.000000   -0.000000   -0.000000   -0.000000 Ang=  -0.00 deg.
 >>>>>>>>>> Convergence criterion not met.
 SCF Done:  E(RHF) =  -488.933272386     A.U. after    2 cycles
            NFock=  1  Conv=0.13D+00     -V/T= 1.9900

 **********************************************************************

            Population analysis using the SCF Density.

 **********************************************************************

 Orbital symmetries:
       Occupied  (A) (A) (A) (A) (A) (A) (A) (A) (A) (A) (A) (A)
                 (A) (A) (A) (A) (A) (A) (A)
       Virtual   (A) (A) (A) (A) (A) (A) (A) (A) (A) (A) (A) (A)
                 (A) (A) (A) (A) (A) (A) (A) (A) (A) (A) (A) (A)
                 (A) (A) (A) (A) (A) (A) (A) (A) (A) (A) (A) (A)
                 (A) (A) (A) (A) (A) (A) (A) (A) (A) (A) (A) (A)
                 (A) (A) (A) (A) (A) (A) (A) (A) (A) (A) (A) (A)
                 (A) (A) (A) (A) (A) (A) (A) (A) (A) (A) (A) (A)
                 (A) (A) (A) (A) (A) (A) (A) (A) (A) (A) (A) (A)
                 (A) (A) (A) (A) (A) (A) (A) (A) (A) (A) (A) (A)
                 (A) (A) (A) (A) (A) (A) (A) (A) (A) (A) (A) (A)
                 (A) (A) (A) (A) (A) (A) (A) (A) (A) (A) (A) (A)
                 (A) (A) (A) (A) (A) (A) (A) (A) (A) (A) (A)
 The electronic state is 1-A.
 Alpha  occ. eigenvalues --  -75.68149 -13.12773 -13.08941 -13.03096 -11.40181
 Alpha  occ. eigenvalues --   -8.02205  -7.60468  -7.59784  -1.21311  -0.98795
 Alpha  occ. eigenvalues --   -0.88304  -0.68460  -0.59491  -0.59354  -0.48444
 Alpha  occ. eigenvalues --   -0.46102  -0.41589  -0.31298  -0.28081
 Alpha virt. eigenvalues --    0.01135   0.02166   0.02944   0.03482   0.06523
 Alpha virt. eigenvalues --    0.07537   0.08555   0.08819   0.08888   0.09327
 Alpha virt. eigenvalues --    0.10946   0.11227   0.12990   0.13251   0.13675
 Alpha virt. eigenvalues --    0.13771   0.14217   0.15512   0.17386   0.17888
 Alpha virt. eigenvalues --    0.18358   0.20789   0.21094   0.23145   0.23527
 Alpha virt. eigenvalues --    0.24988   0.27060   0.28087   0.29333   0.30759
 Alpha virt. eigenvalues --    0.32257   0.32339   0.35037   0.36413   0.36583
 Alpha virt. eigenvalues --    0.37407   0.38372   0.40853   0.40885   0.41859
 Alpha virt. eigenvalues --    0.42484   0.43494   0.45119   0.45292   0.46497
 Alpha virt. eigenvalues --    0.48002   0.49576   0.50438   0.51864   0.54157
 Alpha virt. eigenvalues --    0.54447   0.55011   0.55198   0.55377   0.57080
 Alpha virt. eigenvalues --    0.57801   0.59980   0.62216   0.63250   0.63332
 Alpha virt. eigenvalues --    0.65265   0.68090   0.69453   0.70061   0.71533
 Alpha virt. eigenvalues --    0.72938   0.73056   0.75176   0.76093   0.76185
 Alpha virt. eigenvalues --    0.77096   0.80377   0.82422   0.84020   0.86697
 Alpha virt. eigenvalues --    0.88072   0.89750   1.04746   1.12366   1.13301
 Alpha virt. eigenvalues --    1.14057   1.15779   1.18417   1.20339   1.21057
 Alpha virt. eigenvalues --    1.21950   1.24769   1.26723   1.29497   1.29703
 Alpha virt. eigenvalues --    1.35567   1.39126   1.41325   1.42923   1.44843
 Alpha virt. eigenvalues --    1.46374   1.49479   1.53166   1.61176   1.63839
 Alpha virt. eigenvalues --    1.64524   1.70962   1.78431   1.82021   1.84896
 Alpha virt. eigenvalues --    1.90449   1.93000   1.98041   1.98724   1.99638
 Alpha virt. eigenvalues --    2.00928   2.09021   2.13913   2.14774   2.14781
 Alpha virt. eigenvalues --    2.17470   2.20864   2.21406   2.31194   2.32497
 Alpha virt. eigenvalues --    2.37552   2.44632   2.57252   2.57587   2.57737
 Alpha virt. eigenvalues --    2.68223   2.76298   2.77658   3.22221   3.62746
 Alpha virt. eigenvalues --    3.68069
          Condensed to atoms (all electrons):
 Mulliken charges:
               1
     1  B    5.203899
     2  B    3.717584
     3  S   -0.941636
     4  C   -4.814942
     5  H    1.366924
     6  H    1.487563
     7  H    1.487851
     8  H   -2.526896
     9  H   -2.526252
    10  H   -2.454093
 Sum of Mulliken charges =   0.00000
 Mulliken charges with hydrogens summed into heavy atoms:
               1
     1  B    0.150750
     2  B    1.263490
     3  S   -0.941636
     4  C   -0.472605
 Electronic spatial extent (au):  <R**2>=            453.2962
 Charge=              0.0000 electrons
 Dipole moment (field-independent basis, Debye):
    X=             -1.9858    Y=              0.0120    Z=              0.0005  Tot=              1.9858

 Test job not archived.
 1\1\GINC-SE096\SP\RHF\Aug-CC-pVDZ\C1H6B2S1\OHZDE\08-Apr-2025\0\\#t hf 
 aug-cc-pvdz iop(5/13=1,5/36=2,99/5=2) pseudo=read geom=check guess=(re
 ad,tcheck) scf=(maxcycle=1)\\title\\0,1\B,0,2.094742,0.610923,-0.00000
 1\B,0,1.075668,-0.68766,-0.000316\S,0,-0.699469,-0.67845,0.000014\C,0,
 -1.201751,1.090062,0.000088\H,0,-2.291082,1.117368,0.000276\H,0,-0.832
 74,1.590522,-0.894458\H,0,-0.832433,1.590543,0.894495\H,0,2.497587,1.1
 01136,-1.013952\H,0,2.496943,1.101187,1.014182\H,0,1.511695,-1.802239,
 0.000287\\Version=ES64L-G16RevC.01\State=1-A\HF=-488.9332724\RMSD=1.29
 4e-01\Dipole=-0.7812674,0.0047051,0.0002099\Quadrupole=0.5788281,0.052
 3691,-0.6311972,-1.1923634,-0.0001395,-0.0001717\PG=C01 [X(C1H6B2S1)]\
 \@


 Some scientists claim that hydrogen, because it is so
 plentiful, is the basic building block of the universe. 
 I dispute that. I say that stupidity is far more
 abundant than hydrogen, and THAT is the basic building 
 block of the universe.
                   --Frank Zappa
 Job cpu time:       0 days  0 hours  0 minutes 29.5 seconds.
 Elapsed time:       0 days  0 hours  0 minutes  2.8 seconds.
 File lengths (MBytes):  RWF=      6 Int=      0 D2E=      0 Chk=      4 Scr=      1
 Normal termination of Gaussian 16 at Tue Apr  8 23:17:53 2025.
