 Entering Gaussian System, Link 0=g16
 Input=BDE49_nonexpt_2161_mol1.gjf
 Output=BDE49_nonexpt_2161_mol1.log
 Initial command:
 /arc/software/Gaussian/g16.c01/l1.exe "/tmp/slurm/4851230/Gau-3558499.inp" -scrdir="/tmp/slurm/4851230/"
 Entering Link 1 = /arc/software/Gaussian/g16.c01/l1.exe PID=   3558501.
  
 Copyright (c) 1988-2019, Gaussian, Inc.  All Rights Reserved.
  
 This is part of the Gaussian(R) 16 program.  It is based on
 the Gaussian(R) 09 system (copyright 2009, Gaussian, Inc.),
 the Gaussian(R) 03 system (copyright 2003, Gaussian, Inc.),
 the Gaussian(R) 98 system (copyright 1998, Gaussian, Inc.),
 the Gaussian(R) 94 system (copyright 1995, Gaussian, Inc.),
 the Gaussian 92(TM) system (copyright 1992, Gaussian, Inc.),
 the Gaussian 90(TM) system (copyright 1990, Gaussian, Inc.),
 the Gaussian 88(TM) system (copyright 1988, Gaussian, Inc.),
 the Gaussian 86(TM) system (copyright 1986, Carnegie Mellon
 University), and the Gaussian 82(TM) system (copyright 1983,
 Carnegie Mellon University). Gaussian is a federally registered
 trademark of Gaussian, Inc.
  
 This software contains proprietary and confidential information,
 including trade secrets, belonging to Gaussian, Inc.
  
 This software is provided under written license and may be
 used, copied, transmitted, or stored only in accord with that
 written license.
  
 The following legend is applicable only to US Government
 contracts under FAR:
  
                    RESTRICTED RIGHTS LEGEND
  
 Use, reproduction and disclosure by the US Government is
 subject to restrictions as set forth in subparagraphs (a)
 and (c) of the Commercial Computer Software - Restricted
 Rights clause in FAR 52.227-19.
  
 Gaussian, Inc.
 340 Quinnipiac St., Bldg. 40, Wallingford CT 06492
  
  
 ---------------------------------------------------------------
 Warning -- This program may not be used in any manner that
 competes with the business of Gaussian, Inc. or will provide
 assistance to any competitor of Gaussian, Inc.  The licensee
 of this program is prohibited from giving any competitor of
 Gaussian, Inc. access to this program.  By using this program,
 the user acknowledges that Gaussian, Inc. is engaged in the
 business of creating and licensing software in the field of
 computational chemistry and represents and warrants to the
 licensee that it is not a competitor of Gaussian, Inc. and that
 it will not use this program in any manner prohibited above.
 ---------------------------------------------------------------
  

 Cite this work as:
 Gaussian 16, Revision C.01,
 M. J. Frisch, G. W. Trucks, H. B. Schlegel, G. E. Scuseria, 
 M. A. Robb, J. R. Cheeseman, G. Scalmani, V. Barone, 
 G. A. Petersson, H. Nakatsuji, X. Li, M. Caricato, A. V. Marenich, 
 J. Bloino, B. G. Janesko, R. Gomperts, B. Mennucci, H. P. Hratchian, 
 J. V. Ortiz, A. F. Izmaylov, J. L. Sonnenberg, D. Williams-Young, 
 F. Ding, F. Lipparini, F. Egidi, J. Goings, B. Peng, A. Petrone, 
 T. Henderson, D. Ranasinghe, V. G. Zakrzewski, J. Gao, N. Rega, 
 G. Zheng, W. Liang, M. Hada, M. Ehara, K. Toyota, R. Fukuda, 
 J. Hasegawa, M. Ishida, T. Nakajima, Y. Honda, O. Kitao, H. Nakai, 
 T. Vreven, K. Throssell, J. A. Montgomery, Jr., J. E. Peralta, 
 F. Ogliaro, M. J. Bearpark, J. J. Heyd, E. N. Brothers, K. N. Kudin, 
 V. N. Staroverov, T. A. Keith, R. Kobayashi, J. Normand, 
 K. Raghavachari, A. P. Rendell, J. C. Burant, S. S. Iyengar, 
 J. Tomasi, M. Cossi, J. M. Millam, M. Klene, C. Adamo, R. Cammi, 
 J. W. Ochterski, R. L. Martin, K. Morokuma, O. Farkas, 
 J. B. Foresman, and D. J. Fox, Gaussian, Inc., Wallingford CT, 2019.
 
 ******************************************
 Gaussian 16:  ES64L-G16RevC.01  3-Jul-2019
                 9-Apr-2025 
 ******************************************
 %nprocs=16
 Will use up to   16 processors via shared memory.
 %mem=30GB
 %chk=BDE49_nonexpt_2161_mol1.chk
 ----------------------------------------------------------------------
 #t hf aug-cc-pvdz symm=none int=(grid=ultrafine) guess=(read,tcheck) s
 table=(opt,rrhf)
 ----------------------------------------------------------------------
 -----
 title
 -----
 Symbolic Z-matrix:
 Charge =  0 Multiplicity = 1
 Si                    1.38578  -0.47772   0.14406 
 O                     1.85409   1.06551  -0.2444 
 H                     2.73526   1.3588   -0.00455 
 C                    -0.40894  -0.64002  -0.35351 
 C                    -1.36691   0.3349    0.35681 
 H                    -0.71511  -1.67735  -0.16082 
 H                    -0.47293  -0.50504  -1.44068 
 C                    -2.82543   0.17732  -0.0851 
 H                    -1.03798   1.36219   0.17049 
 H                    -1.29898   0.18606   1.44083 
 H                    -2.93194   0.35678  -1.15942 
 H                    -3.47832   0.88279   0.43702 
 H                    -3.19351  -0.83298   0.11961 
 H                     1.55313  -0.71986   1.60235 
 H                     2.21443  -1.48056  -0.57569 
 
                    Distance matrix (angstroms):
                    1          2          3          4          5
     1  Si   0.000000
     2  O    1.658847   0.000000
     3  H    2.283855   0.959170   0.000000
     4  C    1.869473   2.835846   3.742062   0.000000
     5  C    2.878007   3.357099   4.243437   1.540369   0.000000
     6  H    2.438400   3.759127   4.598659   1.098601   2.177598
     7  H    2.442740   3.051676   3.978549   1.097389   2.176159
     8  C    4.268010   4.765729   5.685388   2.565062   1.532121
     9  H    3.043123   2.936705   3.777297   2.163128   1.094645
    10  H    3.054529   3.681750   4.442916   2.166620   1.096295
    11  H    4.586738   4.923987   5.869830   2.829955   2.179161
    12  H    5.059279   5.378878   6.247408   3.516393   2.182812
    13  H    4.593110   5.405086   6.322145   2.831058   2.180970
    14  H    1.487692   2.586230   2.881035   2.771544   3.345223
    15  H    1.486735   2.592690   2.942693   2.763676   4.122066
                    6          7          8          9         10
     6  H    0.000000
     7  H    1.752434   0.000000
     8  C    2.810521   2.799546   0.000000
     9  H    3.074546   2.530153   2.159679   0.000000
    10  H    2.525568   3.076212   2.158381   1.750764   0.000000
    11  H    3.170052   2.620791   1.094395   2.523210   3.075223
    12  H    3.814067   3.805810   1.093876   2.501223   2.498519
    13  H    2.633261   3.153341   1.094574   3.076951   2.524539
    14  H    3.028275   3.662118   4.777471   3.619256   2.996883
    15  H    2.965302   2.986932   5.328173   4.383625   4.380410
                   11         12         13         14         15
    11  H    0.000000
    12  H    1.767440   0.000000
    13  H    1.766305   1.767976   0.000000
    14  H    5.376091   5.407585   4.974119   0.000000
    15  H    5.495602   6.246470   5.490767   2.399962   0.000000
 Symmetry turned off by external request.
 Rotational constants (GHZ):           9.0708611           1.7343482           1.5770653
   209 basis functions,   363 primitive gaussians,   219 cartesian basis functions
    25 alpha electrons       25 beta electrons
       nuclear repulsion energy       237.4150407267 Hartrees.
 NAtoms=   15 NActive=   15 NUniq=   15 SFac= 1.00D+00 NAtFMM=   60 NAOKFM=F Big=F
 ExpMin= 2.50D-02 ExpMax= 7.89D+04 ExpMxC= 2.69D+03 IAcc=3 IRadAn=         5 AccDes= 0.00D+00
 Harris functional with IExCor=  205 and IRadAn=       5 diagonalized for initial guess.
 HarFok:  IExCor=  205 AccDes= 0.00D+00 IRadAn=         5 IDoV= 1 UseB2=F ITyADJ=14
 ICtDFT=  3500011 ScaDFX=  1.000000  1.000000  1.000000  1.000000
 FoFCou: FMM=F IPFlag=           0 FMFlag=      100000 FMFlg1=           0
         NFxFlg=           0 DoJE=T BraDBF=F KetDBF=T FulRan=T
         wScrn=  0.000000 ICntrl=       500 IOpCl=  0 I1Cent=   200000004 NGrid=           0
         NMat0=    1 NMatS0=      1 NMatT0=    0 NMatD0=    1 NMtDS0=    0 NMtDT0=    0
 Symmetry not used in FoFCou.
 SCF Done:  E(RHF) =  -483.292589611     A.U. after   12 cycles
            NFock= 12  Conv=0.59D-08     -V/T= 2.0006

 **********************************************************************

            Population analysis using the SCF Density.

 **********************************************************************

 Alpha  occ. eigenvalues --  -68.79914 -20.56289 -11.22859 -11.21789 -11.21273
 Alpha  occ. eigenvalues --   -6.14254  -4.24980  -4.24859  -4.24854  -1.33899
 Alpha  occ. eigenvalues --   -1.05263  -0.92749  -0.80599  -0.73945  -0.64649
 Alpha  occ. eigenvalues --   -0.61820  -0.57693  -0.55790  -0.53574  -0.53248
 Alpha  occ. eigenvalues --   -0.51543  -0.47697  -0.46938  -0.44156  -0.42046
 Alpha virt. eigenvalues --    0.03370   0.04286   0.04721   0.05046   0.06439
 Alpha virt. eigenvalues --    0.06551   0.07065   0.07402   0.08953   0.09056
 Alpha virt. eigenvalues --    0.09778   0.10251   0.10800   0.13761   0.14278
 Alpha virt. eigenvalues --    0.15355   0.16248   0.17118   0.17506   0.17946
 Alpha virt. eigenvalues --    0.18075   0.18486   0.19472   0.20311   0.21935
 Alpha virt. eigenvalues --    0.22799   0.23338   0.23992   0.24908   0.25659
 Alpha virt. eigenvalues --    0.27445   0.28430   0.29260   0.30481   0.31026
 Alpha virt. eigenvalues --    0.32068   0.32913   0.33919   0.35572   0.37309
 Alpha virt. eigenvalues --    0.38130   0.38882   0.39692   0.39908   0.42668
 Alpha virt. eigenvalues --    0.43309   0.44095   0.45346   0.45864   0.46873
 Alpha virt. eigenvalues --    0.47266   0.47828   0.48598   0.49254   0.50066
 Alpha virt. eigenvalues --    0.50900   0.51196   0.51872   0.53291   0.54725
 Alpha virt. eigenvalues --    0.55472   0.56917   0.57673   0.57892   0.59496
 Alpha virt. eigenvalues --    0.59887   0.60540   0.60786   0.61768   0.63243
 Alpha virt. eigenvalues --    0.63480   0.65105   0.65282   0.67003   0.68061
 Alpha virt. eigenvalues --    0.68634   0.69794   0.70441   0.71750   0.74290
 Alpha virt. eigenvalues --    0.74529   0.75924   0.76331   0.77054   0.79277
 Alpha virt. eigenvalues --    0.79871   0.82019   0.82728   0.83889   0.85462
 Alpha virt. eigenvalues --    0.87038   0.87791   0.88228   0.89463   0.94263
 Alpha virt. eigenvalues --    0.95158   0.97957   0.99321   1.01761   1.05977
 Alpha virt. eigenvalues --    1.06936   1.07916   1.09646   1.11304   1.13517
 Alpha virt. eigenvalues --    1.16135   1.16567   1.22222   1.24384   1.25645
 Alpha virt. eigenvalues --    1.26640   1.27043   1.29517   1.29815   1.34553
 Alpha virt. eigenvalues --    1.39597   1.42213   1.46243   1.50293   1.51169
 Alpha virt. eigenvalues --    1.53639   1.54880   1.59363   1.63014   1.65923
 Alpha virt. eigenvalues --    1.69435   1.70493   1.78734   1.81923   1.84862
 Alpha virt. eigenvalues --    1.85980   1.88783   1.89226   1.92782   1.93734
 Alpha virt. eigenvalues --    1.95100   1.99275   2.01408   2.03592   2.06417
 Alpha virt. eigenvalues --    2.08347   2.09416   2.12646   2.14360   2.17504
 Alpha virt. eigenvalues --    2.18041   2.18684   2.19802   2.23238   2.25706
 Alpha virt. eigenvalues --    2.29171   2.29484   2.31113   2.33805   2.36479
 Alpha virt. eigenvalues --    2.37638   2.39286   2.42342   2.44453   2.47566
 Alpha virt. eigenvalues --    2.51012   2.52697   2.56962   2.65472   2.67740
 Alpha virt. eigenvalues --    2.69260   2.75297   2.78421   2.82725   2.88232
 Alpha virt. eigenvalues --    2.88646   2.92385   2.96211   3.05006   3.09358
 Alpha virt. eigenvalues --    3.11316   3.14615   3.22688   3.31283   3.69817
 Alpha virt. eigenvalues --    3.72791   3.77139   3.78669   4.28156
          Condensed to atoms (all electrons):
 Mulliken charges:
               1
     1  Si   1.190814
     2  O   -0.974985
     3  H    0.145243
     4  C    0.101325
     5  C    0.076006
     6  H   -0.207429
     7  H   -0.193135
     8  C    0.418643
     9  H   -0.159176
    10  H   -0.166727
    11  H   -0.066216
    12  H   -0.079407
    13  H   -0.075285
    14  H    0.001604
    15  H   -0.011277
 Sum of Mulliken charges =  -0.00000
 Mulliken charges with hydrogens summed into heavy atoms:
               1
     1  Si   1.181142
     2  O   -0.829742
     4  C   -0.299238
     5  C   -0.249897
     8  C    0.197735
 Electronic spatial extent (au):  <R**2>=            809.2332
 Charge=             -0.0000 electrons
 Dipole moment (field-independent basis, Debye):
    X=              0.5196    Y=             -0.2080    Z=              0.3962  Tot=              0.6857
 NROrb=    209 NOA=    25 NOB=    25 NVA=   184 NVB=   184

 **** Warning!!: The largest alpha MO coefficient is  0.36299729D+02

    12 initial guesses have been made.
 Iteration     1 Dimension    12 NMult     0 NNew     12
 New state      1 was old state      3
 Iteration     2 Dimension    24 NMult    12 NNew     12
 Iteration     3 Dimension    27 NMult    24 NNew      3
 Iteration     4 Dimension    30 NMult    27 NNew      3
 Iteration     5 Dimension    33 NMult    30 NNew      3
 Iteration     6 Dimension    36 NMult    33 NNew      3
 Iteration     7 Dimension    39 NMult    36 NNew      3
 Iteration     8 Dimension    42 NMult    39 NNew      3
 ***********************************************************************
 Stability analysis using <AA,BB:AA,BB> singles matrix:
 ***********************************************************************
 Ground to excited state transition densities written to RWF  633

 Eigenvectors of the stability matrix:
 
 Excited state symmetry could not be determined.
 Eigenvector   1:      Singlet-?Sym  Eigenvalue= 0.3101938  <S**2>=0.000
      24 -> 26         0.38633
      24 -> 27        -0.24284
      24 -> 28        -0.13309
      24 -> 30        -0.15803
      24 -> 38        -0.11859
      24 -> 39        -0.10112
      24 -> 40        -0.24035
      24 -> 43         0.12231
 The wavefunction is stable under the perturbations considered.
 The wavefunction is already stable.

 **********************************************************************

            Population analysis using the SCF Density.

 **********************************************************************

 Alpha  occ. eigenvalues --  -68.79914 -20.56289 -11.22859 -11.21789 -11.21273
 Alpha  occ. eigenvalues --   -6.14254  -4.24980  -4.24859  -4.24854  -1.33899
 Alpha  occ. eigenvalues --   -1.05263  -0.92749  -0.80599  -0.73945  -0.64649
 Alpha  occ. eigenvalues --   -0.61820  -0.57693  -0.55790  -0.53574  -0.53248
 Alpha  occ. eigenvalues --   -0.51543  -0.47697  -0.46938  -0.44156  -0.42046
 Alpha virt. eigenvalues --    0.03370   0.04286   0.04721   0.05046   0.06439
 Alpha virt. eigenvalues --    0.06551   0.07065   0.07402   0.08953   0.09056
 Alpha virt. eigenvalues --    0.09778   0.10251   0.10800   0.13761   0.14278
 Alpha virt. eigenvalues --    0.15355   0.16248   0.17118   0.17506   0.17946
 Alpha virt. eigenvalues --    0.18075   0.18486   0.19472   0.20311   0.21935
 Alpha virt. eigenvalues --    0.22799   0.23338   0.23992   0.24908   0.25659
 Alpha virt. eigenvalues --    0.27445   0.28430   0.29260   0.30481   0.31026
 Alpha virt. eigenvalues --    0.32068   0.32913   0.33919   0.35572   0.37309
 Alpha virt. eigenvalues --    0.38130   0.38882   0.39692   0.39908   0.42668
 Alpha virt. eigenvalues --    0.43309   0.44095   0.45346   0.45864   0.46873
 Alpha virt. eigenvalues --    0.47266   0.47828   0.48598   0.49254   0.50066
 Alpha virt. eigenvalues --    0.50900   0.51196   0.51872   0.53291   0.54725
 Alpha virt. eigenvalues --    0.55472   0.56917   0.57673   0.57892   0.59496
 Alpha virt. eigenvalues --    0.59887   0.60540   0.60786   0.61768   0.63243
 Alpha virt. eigenvalues --    0.63480   0.65105   0.65282   0.67003   0.68061
 Alpha virt. eigenvalues --    0.68634   0.69794   0.70441   0.71750   0.74290
 Alpha virt. eigenvalues --    0.74529   0.75924   0.76331   0.77054   0.79277
 Alpha virt. eigenvalues --    0.79871   0.82019   0.82728   0.83889   0.85462
 Alpha virt. eigenvalues --    0.87038   0.87791   0.88228   0.89463   0.94263
 Alpha virt. eigenvalues --    0.95158   0.97957   0.99321   1.01761   1.05977
 Alpha virt. eigenvalues --    1.06936   1.07916   1.09646   1.11304   1.13517
 Alpha virt. eigenvalues --    1.16135   1.16567   1.22222   1.24384   1.25645
 Alpha virt. eigenvalues --    1.26640   1.27043   1.29517   1.29815   1.34553
 Alpha virt. eigenvalues --    1.39597   1.42213   1.46243   1.50293   1.51169
 Alpha virt. eigenvalues --    1.53639   1.54880   1.59363   1.63014   1.65923
 Alpha virt. eigenvalues --    1.69435   1.70493   1.78734   1.81923   1.84862
 Alpha virt. eigenvalues --    1.85980   1.88783   1.89226   1.92782   1.93734
 Alpha virt. eigenvalues --    1.95100   1.99275   2.01408   2.03592   2.06417
 Alpha virt. eigenvalues --    2.08347   2.09416   2.12646   2.14360   2.17504
 Alpha virt. eigenvalues --    2.18041   2.18684   2.19802   2.23238   2.25706
 Alpha virt. eigenvalues --    2.29171   2.29484   2.31113   2.33805   2.36479
 Alpha virt. eigenvalues --    2.37638   2.39286   2.42342   2.44453   2.47566
 Alpha virt. eigenvalues --    2.51012   2.52697   2.56962   2.65472   2.67740
 Alpha virt. eigenvalues --    2.69260   2.75297   2.78421   2.82725   2.88232
 Alpha virt. eigenvalues --    2.88646   2.92385   2.96211   3.05006   3.09358
 Alpha virt. eigenvalues --    3.11316   3.14615   3.22688   3.31283   3.69817
 Alpha virt. eigenvalues --    3.72791   3.77139   3.78669   4.28156
          Condensed to atoms (all electrons):
 Mulliken charges:
               1
     1  Si   1.190814
     2  O   -0.974985
     3  H    0.145243
     4  C    0.101325
     5  C    0.076006
     6  H   -0.207429
     7  H   -0.193135
     8  C    0.418643
     9  H   -0.159176
    10  H   -0.166727
    11  H   -0.066216
    12  H   -0.079407
    13  H   -0.075285
    14  H    0.001604
    15  H   -0.011277
 Sum of Mulliken charges =  -0.00000
 Mulliken charges with hydrogens summed into heavy atoms:
               1
     1  Si   1.181142
     2  O   -0.829742
     4  C   -0.299238
     5  C   -0.249897
     8  C    0.197735
 Electronic spatial extent (au):  <R**2>=            809.2332
 Charge=             -0.0000 electrons
 Dipole moment (field-independent basis, Debye):
    X=              0.5196    Y=             -0.2080    Z=              0.3962  Tot=              0.6857
 Unable to Open any file for archive entry.
 1\1\GINC-SE094\Stability\RHF\Aug-CC-pVDZ\C3H10O1Si1\OHZDE\09-Apr-2025\
 0\\#t hf aug-cc-pvdz symm=none int=(grid=ultrafine) guess=(read,tcheck
 ) stable=(opt,rrhf)\\title\\0,1\Si,0,1.38578,-0.477721,0.144064\O,0,1.
 85409,1.065507,-0.244403\H,0,2.735256,1.358803,-0.004548\C,0,-0.408937
 ,-0.640022,-0.353509\C,0,-1.366913,0.334896,0.356811\H,0,-0.715107,-1.
 677352,-0.160818\H,0,-0.472933,-0.505036,-1.440682\C,0,-2.825432,0.177
 324,-0.085104\H,0,-1.037982,1.362191,0.170485\H,0,-1.29898,0.186062,1.
 44083\H,0,-2.931941,0.356775,-1.159419\H,0,-3.478321,0.882793,0.43702\
 H,0,-3.193505,-0.832977,0.119607\H,0,1.55313,-0.719856,1.602348\H,0,2.
 214427,-1.480559,-0.575687\\Version=ES64L-G16RevC.01\HF=-483.2925896\R
 MSD=5.933e-09\Dipole=0.2044068,-0.0818388,0.1558644\Quadrupole=2.52716
 81,-1.1150243,-1.4121437,1.612879,0.7318181,0.5346722\PG=Unknown\\@
 The archive entry for this job was punched.


 LOVE IS BLIND, THAT'S WHY ALL THE WORLD LOVES A LOUVER.
 Job cpu time:       0 days  0 hours  4 minutes 57.4 seconds.
 Elapsed time:       0 days  0 hours  0 minutes 21.9 seconds.
 File lengths (MBytes):  RWF=    213 Int=      0 D2E=      0 Chk=      6 Scr=      1
 Normal termination of Gaussian 16 at Wed Apr  9 00:03:12 2025.
 Initial command:
 /arc/software/Gaussian/g16.c01/l1.exe "/tmp/slurm/4851230/Gau-3558499.inp" -scrdir="/tmp/slurm/4851230/"
 Entering Link 1 = /arc/software/Gaussian/g16.c01/l1.exe PID=   3558833.
  
 Copyright (c) 1988-2019, Gaussian, Inc.  All Rights Reserved.
  
 This is part of the Gaussian(R) 16 program.  It is based on
 the Gaussian(R) 09 system (copyright 2009, Gaussian, Inc.),
 the Gaussian(R) 03 system (copyright 2003, Gaussian, Inc.),
 the Gaussian(R) 98 system (copyright 1998, Gaussian, Inc.),
 the Gaussian(R) 94 system (copyright 1995, Gaussian, Inc.),
 the Gaussian 92(TM) system (copyright 1992, Gaussian, Inc.),
 the Gaussian 90(TM) system (copyright 1990, Gaussian, Inc.),
 the Gaussian 88(TM) system (copyright 1988, Gaussian, Inc.),
 the Gaussian 86(TM) system (copyright 1986, Carnegie Mellon
 University), and the Gaussian 82(TM) system (copyright 1983,
 Carnegie Mellon University). Gaussian is a federally registered
 trademark of Gaussian, Inc.
  
 This software contains proprietary and confidential information,
 including trade secrets, belonging to Gaussian, Inc.
  
 This software is provided under written license and may be
 used, copied, transmitted, or stored only in accord with that
 written license.
  
 The following legend is applicable only to US Government
 contracts under FAR:
  
                    RESTRICTED RIGHTS LEGEND
  
 Use, reproduction and disclosure by the US Government is
 subject to restrictions as set forth in subparagraphs (a)
 and (c) of the Commercial Computer Software - Restricted
 Rights clause in FAR 52.227-19.
  
 Gaussian, Inc.
 340 Quinnipiac St., Bldg. 40, Wallingford CT 06492
  
  
 ---------------------------------------------------------------
 Warning -- This program may not be used in any manner that
 competes with the business of Gaussian, Inc. or will provide
 assistance to any competitor of Gaussian, Inc.  The licensee
 of this program is prohibited from giving any competitor of
 Gaussian, Inc. access to this program.  By using this program,
 the user acknowledges that Gaussian, Inc. is engaged in the
 business of creating and licensing software in the field of
 computational chemistry and represents and warrants to the
 licensee that it is not a competitor of Gaussian, Inc. and that
 it will not use this program in any manner prohibited above.
 ---------------------------------------------------------------
  

 Cite this work as:
 Gaussian 16, Revision C.01,
 M. J. Frisch, G. W. Trucks, H. B. Schlegel, G. E. Scuseria, 
 M. A. Robb, J. R. Cheeseman, G. Scalmani, V. Barone, 
 G. A. Petersson, H. Nakatsuji, X. Li, M. Caricato, A. V. Marenich, 
 J. Bloino, B. G. Janesko, R. Gomperts, B. Mennucci, H. P. Hratchian, 
 J. V. Ortiz, A. F. Izmaylov, J. L. Sonnenberg, D. Williams-Young, 
 F. Ding, F. Lipparini, F. Egidi, J. Goings, B. Peng, A. Petrone, 
 T. Henderson, D. Ranasinghe, V. G. Zakrzewski, J. Gao, N. Rega, 
 G. Zheng, W. Liang, M. Hada, M. Ehara, K. Toyota, R. Fukuda, 
 J. Hasegawa, M. Ishida, T. Nakajima, Y. Honda, O. Kitao, H. Nakai, 
 T. Vreven, K. Throssell, J. A. Montgomery, Jr., J. E. Peralta, 
 F. Ogliaro, M. J. Bearpark, J. J. Heyd, E. N. Brothers, K. N. Kudin, 
 V. N. Staroverov, T. A. Keith, R. Kobayashi, J. Normand, 
 K. Raghavachari, A. P. Rendell, J. C. Burant, S. S. Iyengar, 
 J. Tomasi, M. Cossi, J. M. Millam, M. Klene, C. Adamo, R. Cammi, 
 J. W. Ochterski, R. L. Martin, K. Morokuma, O. Farkas, 
 J. B. Foresman, and D. J. Fox, Gaussian, Inc., Wallingford CT, 2019.
 
 ******************************************
 Gaussian 16:  ES64L-G16RevC.01  3-Jul-2019
                 9-Apr-2025 
 ******************************************
 %nprocs=16
 Will use up to   16 processors via shared memory.
 %mem=30GB
 %chk=BDE49_nonexpt_2161_mol1.chk
 ----------------------------------------------------------------------
 #t hf aug-cc-pvdz iop(5/13=1,5/36=2,99/5=2) pseudo=read geom=check gue
 ss=(read,tcheck) scf=(maxcycle=1)
 ----------------------------------------------------------------------
 -----
 title
 -----
 Structure from the checkpoint file:  "BDE49_nonexpt_2161_mol1.chk"
 Charge =  0 Multiplicity = 1
 Z-Matrix found in chk file.
 Si,0,1.38578,-0.477721,0.144064
 O,0,1.85409,1.065507,-0.244403
 H,0,2.735256,1.358803,-0.004548
 C,0,-0.408937,-0.640022,-0.353509
 C,0,-1.366913,0.334896,0.356811
 H,0,-0.715107,-1.677352,-0.160818
 H,0,-0.472933,-0.505036,-1.440682
 C,0,-2.825432,0.177324,-0.085104
 H,0,-1.037982,1.362191,0.170485
 H,0,-1.29898,0.186062,1.44083
 H,0,-2.931941,0.356775,-1.159419
 H,0,-3.478321,0.882793,0.43702
 H,0,-3.193505,-0.832977,0.119607
 H,0,1.55313,-0.719856,1.602348
 H,0,2.214427,-1.480559,-0.575687
 Recover connectivity data from disk.
                    Distance matrix (angstroms):
                    1          2          3          4          5
     1  Si   0.000000
     2  O    1.658847   0.000000
     3  H    2.283855   0.959170   0.000000
     4  C    1.869473   2.835846   3.742062   0.000000
     5  C    2.878007   3.357099   4.243437   1.540369   0.000000
     6  H    2.438400   3.759127   4.598659   1.098601   2.177598
     7  H    2.442740   3.051676   3.978549   1.097389   2.176159
     8  C    4.268010   4.765729   5.685388   2.565062   1.532121
     9  H    3.043123   2.936705   3.777297   2.163128   1.094645
    10  H    3.054529   3.681750   4.442916   2.166620   1.096295
    11  H    4.586738   4.923987   5.869830   2.829955   2.179161
    12  H    5.059279   5.378878   6.247408   3.516393   2.182812
    13  H    4.593110   5.405086   6.322145   2.831058   2.180970
    14  H    1.487692   2.586230   2.881035   2.771544   3.345223
    15  H    1.486735   2.592690   2.942693   2.763676   4.122066
                    6          7          8          9         10
     6  H    0.000000
     7  H    1.752434   0.000000
     8  C    2.810521   2.799546   0.000000
     9  H    3.074546   2.530153   2.159679   0.000000
    10  H    2.525568   3.076212   2.158381   1.750764   0.000000
    11  H    3.170052   2.620791   1.094395   2.523210   3.075223
    12  H    3.814067   3.805810   1.093876   2.501223   2.498519
    13  H    2.633261   3.153341   1.094574   3.076951   2.524539
    14  H    3.028275   3.662118   4.777471   3.619256   2.996883
    15  H    2.965302   2.986932   5.328173   4.383625   4.380410
                   11         12         13         14         15
    11  H    0.000000
    12  H    1.767440   0.000000
    13  H    1.766305   1.767976   0.000000
    14  H    5.376091   5.407585   4.974119   0.000000
    15  H    5.495602   6.246470   5.490767   2.399962   0.000000
 Framework group  C1[X(C3H10OSi)]
 Deg. of freedom    39
                         Standard orientation:                         
 ---------------------------------------------------------------------
 Center     Atomic      Atomic             Coordinates (Angstroms)
 Number     Number       Type             X           Y           Z
 ---------------------------------------------------------------------
      1         14           0        1.385780   -0.477721    0.144064
      2          8           0        1.854090    1.065507   -0.244403
      3          1           0        2.735256    1.358804   -0.004548
      4          6           0       -0.408937   -0.640022   -0.353509
      5          6           0       -1.366913    0.334896    0.356811
      6          1           0       -0.715106   -1.677352   -0.160818
      7          1           0       -0.472933   -0.505036   -1.440682
      8          6           0       -2.825432    0.177324   -0.085104
      9          1           0       -1.037982    1.362191    0.170485
     10          1           0       -1.298980    0.186062    1.440830
     11          1           0       -2.931941    0.356775   -1.159419
     12          1           0       -3.478321    0.882792    0.437020
     13          1           0       -3.193505   -0.832978    0.119607
     14          1           0        1.553130   -0.719856    1.602348
     15          1           0        2.214427   -1.480558   -0.575687
 ---------------------------------------------------------------------
 Rotational constants (GHZ):           9.0708611           1.7343482           1.5770653
 ======================================================================================================
                                       Pseudopotential Parameters
 ======================================================================================================
  Center     Atomic      Valence      Angular      Power
  Number     Number     Electrons     Momentum     of R      Exponent        Coefficient   SO-Coeffient
 ======================================================================================================
    1         14           14
                                      G and up 
                                                     0        0.0000010        0.00318584    0.00000000
                                                     2        0.1200000        0.01495489    0.00000000
                                                     2        0.1400000        0.00226724    0.00000000
                                                     2        0.2400000        0.19400623    0.00000000
                                                     2        0.4000000       -1.10589618    0.00000000
                                                     2        0.5000000       -0.33441440    0.00000000
                                                     2        1.1000000        1.54014497    0.00000000
                                      S - G
                                                     0        0.0000010       -0.02754341    0.00000000
                                                     2        0.1400000       -0.27210261    0.00000000
                                                     2        0.5000000        1.68277205    0.00000000
                                      P - G
                                                     0        0.0000010        0.23409914    0.00000000
                                                     2        0.1400000       -0.38285789    0.00000000
                                                     2        0.3000000        0.63427704    0.00000000
                                      D - G
                                                     0        0.0000010        0.33783735    0.00000000
                                                     2        0.1200000        0.22636357    0.00000000
                                                     2        0.1600000       -1.50396781    0.00000000
                                                     2        0.2800000        2.43578453    0.00000000
                                      F - G
                                                     0        0.0000010       -0.32072413    0.00000000
                                                     2        0.1200000        0.11095462    0.00000000
                                                     2        0.1600000       -0.09560586    0.00000000
    2          8            8
                                      G and up 
                                                     0        0.0000010       -0.00165251    0.00000000
                                                     2        0.1200000       -0.10937202    0.00000000
                                                     2        0.1400000        0.35668905    0.00000000
                                                     2        0.1800000       -0.51696033    0.00000000
                                                     2        0.2400000        0.52446472    0.00000000
                                                     2        0.4000000       -0.07754493    0.00000000
                                                     2        0.8000000       -1.90560988    0.00000000
                                                     2        1.7000000        0.19857963    0.00000000
                                      S - G
                                                     0        0.0000010       -0.03845181    0.00000000
                                                     2        0.1400000        0.42024558    0.00000000
                                                     2        0.4000000       -4.10467779    0.00000000
                                                     2        1.3000000        9.99571838    0.00000000
                                      P - G
                                                     0        0.0000010        0.33206183    0.00000000
                                                     2        0.1200000       -0.18708141    0.00000000
                                                     2        0.2800000       -0.18179081    0.00000000
                                                     2        0.7000000        1.18820394    0.00000000
                                      D - G
                                                     0        0.0000010       -0.57891674    0.00000000
                                                     2        0.1200000        0.60487490    0.00000000
                                                     2        0.2400000       -0.24931464    0.00000000
                                                     2        0.3000000       -2.75054612    0.00000000
                                                     2        1.0000000       15.96776040    0.00000000
                                      F - G
                                                     0        0.0000010        0.37449041    0.00000000
                                                     2        0.1200000       -0.63373642    0.00000000
                                                     2        0.1400000       -0.08412804    0.00000000
                                                     2        0.2800000        2.62321406    0.00000000
                                                     2        0.6000000       -2.68223623    0.00000000
    3          1            1
                                      F and up 
                                                     0        0.0000010        0.00072061    0.00000000
                                                     2        0.1200000        0.03832357    0.00000000
                                                     2        0.1400000       -0.08683256    0.00000000
                                                     2        0.1800000        0.09312970    0.00000000
                                                     2        0.2800000       -0.02532572    0.00000000
                                                     2        0.4000000       -0.09430787    0.00000000
                                                     2        0.7000000        0.42710831    0.00000000
                                                     2        1.2000000       -2.11746981    0.00000000
                                      S - F
                                                     0        0.0000010        0.14449603    0.00000000
                                                     2        0.1200000       -0.56378993    0.00000000
                                                     2        0.1400000        0.63941249    0.00000000
                                                     2        0.2600000       -0.58461015    0.00000000
                                                     2        0.5000000        1.00157293    0.00000000
                                                     2        1.8000000       -0.14135838    0.00000000
                                      P - F
                                                     0        0.0000010       -0.09353646    0.00000000
                                                     2        0.1200000        0.31768975    0.00000000
                                                     2        0.2000000       -0.71747951    0.00000000
                                                     2        0.4000000        0.65752308    0.00000000
                                                     2        1.7000000        2.94052587    0.00000000
                                      D - F
                                                     0        0.0000010       -0.04491202    0.00000000
                                                     2        0.1200000       -0.02862031    0.00000000
                                                     2        0.1800000       -0.21515263    0.00000000
                                                     2        0.3000000        0.80560647    0.00000000
                                                     2        0.4000000        0.47351754    0.00000000
                                                     2        0.7000000       -4.57051794    0.00000000
                                                     2        1.6000000       18.53737826    0.00000000
    4          6            6
                                      G and up 
                                                     0        0.0000010       -0.00286759    0.00000000
                                                     2        0.1200000        0.03193960    0.00000000
                                                     2        0.1600000       -0.04027782    0.00000000
                                                     2        0.2600000        0.24782456    0.00000000
                                                     2        0.4000000       -0.62266671    0.00000000
                                                     2        0.7000000        0.35695227    0.00000000
                                      S - G
                                                     0        0.0000010       -0.06602313    0.00000000
                                                     2        0.1200000        1.47277455    0.00000000
                                                     2        0.1600000       -4.06924166    0.00000000
                                                     2        0.3000000        5.02952802    0.00000000
                                                     2        0.7000000       -5.65856978    0.00000000
                                                     2        1.7000000        8.57604414    0.00000000
                                      P - G
                                                     0        0.0000010        0.49434425    0.00000000
                                                     2        0.1200000       -1.37391547    0.00000000
                                                     2        0.1600000        3.65411806    0.00000000
                                                     2        0.2800000       -7.36479843    0.00000000
                                                     2        0.6000000       17.22091285    0.00000000
                                                     2        1.1000000      -23.50107827    0.00000000
                                                     2        3.0000000       16.29464063    0.00000000
                                      D - G
                                                     0        0.0000010       -0.28693103    0.00000000
                                                     2        0.1200000        0.12273044    0.00000000
                                                     2        0.3000000       -0.43416384    0.00000000
                                                     2        0.7000000        2.23358493    0.00000000
                                      F - G
                                                     0        0.0000010        0.07263570    0.00000000
                                                     2        0.1400000       -0.76152861    0.00000000
                                                     2        0.2200000        1.98045593    0.00000000
                                                     2        0.4000000       -2.42426427    0.00000000
                                                     2        0.7000000        0.52335237    0.00000000
    5          6            6
                                      G and up 
                                                     0        0.0000010       -0.00286759    0.00000000
                                                     2        0.1200000        0.03193960    0.00000000
                                                     2        0.1600000       -0.04027782    0.00000000
                                                     2        0.2600000        0.24782456    0.00000000
                                                     2        0.4000000       -0.62266671    0.00000000
                                                     2        0.7000000        0.35695227    0.00000000
                                      S - G
                                                     0        0.0000010       -0.06602313    0.00000000
                                                     2        0.1200000        1.47277455    0.00000000
                                                     2        0.1600000       -4.06924166    0.00000000
                                                     2        0.3000000        5.02952802    0.00000000
                                                     2        0.7000000       -5.65856978    0.00000000
                                                     2        1.7000000        8.57604414    0.00000000
                                      P - G
                                                     0        0.0000010        0.49434425    0.00000000
                                                     2        0.1200000       -1.37391547    0.00000000
                                                     2        0.1600000        3.65411806    0.00000000
                                                     2        0.2800000       -7.36479843    0.00000000
                                                     2        0.6000000       17.22091285    0.00000000
                                                     2        1.1000000      -23.50107827    0.00000000
                                                     2        3.0000000       16.29464063    0.00000000
                                      D - G
                                                     0        0.0000010       -0.28693103    0.00000000
                                                     2        0.1200000        0.12273044    0.00000000
                                                     2        0.3000000       -0.43416384    0.00000000
                                                     2        0.7000000        2.23358493    0.00000000
                                      F - G
                                                     0        0.0000010        0.07263570    0.00000000
                                                     2        0.1400000       -0.76152861    0.00000000
                                                     2        0.2200000        1.98045593    0.00000000
                                                     2        0.4000000       -2.42426427    0.00000000
                                                     2        0.7000000        0.52335237    0.00000000
    6          1            1
                                      F and up 
                                                     0        0.0000010        0.00072061    0.00000000
                                                     2        0.1200000        0.03832357    0.00000000
                                                     2        0.1400000       -0.08683256    0.00000000
                                                     2        0.1800000        0.09312970    0.00000000
                                                     2        0.2800000       -0.02532572    0.00000000
                                                     2        0.4000000       -0.09430787    0.00000000
                                                     2        0.7000000        0.42710831    0.00000000
                                                     2        1.2000000       -2.11746981    0.00000000
                                      S - F
                                                     0        0.0000010        0.14449603    0.00000000
                                                     2        0.1200000       -0.56378993    0.00000000
                                                     2        0.1400000        0.63941249    0.00000000
                                                     2        0.2600000       -0.58461015    0.00000000
                                                     2        0.5000000        1.00157293    0.00000000
                                                     2        1.8000000       -0.14135838    0.00000000
                                      P - F
                                                     0        0.0000010       -0.09353646    0.00000000
                                                     2        0.1200000        0.31768975    0.00000000
                                                     2        0.2000000       -0.71747951    0.00000000
                                                     2        0.4000000        0.65752308    0.00000000
                                                     2        1.7000000        2.94052587    0.00000000
                                      D - F
                                                     0        0.0000010       -0.04491202    0.00000000
                                                     2        0.1200000       -0.02862031    0.00000000
                                                     2        0.1800000       -0.21515263    0.00000000
                                                     2        0.3000000        0.80560647    0.00000000
                                                     2        0.4000000        0.47351754    0.00000000
                                                     2        0.7000000       -4.57051794    0.00000000
                                                     2        1.6000000       18.53737826    0.00000000
    7          1            1
                                      F and up 
                                                     0        0.0000010        0.00072061    0.00000000
                                                     2        0.1200000        0.03832357    0.00000000
                                                     2        0.1400000       -0.08683256    0.00000000
                                                     2        0.1800000        0.09312970    0.00000000
                                                     2        0.2800000       -0.02532572    0.00000000
                                                     2        0.4000000       -0.09430787    0.00000000
                                                     2        0.7000000        0.42710831    0.00000000
                                                     2        1.2000000       -2.11746981    0.00000000
                                      S - F
                                                     0        0.0000010        0.14449603    0.00000000
                                                     2        0.1200000       -0.56378993    0.00000000
                                                     2        0.1400000        0.63941249    0.00000000
                                                     2        0.2600000       -0.58461015    0.00000000
                                                     2        0.5000000        1.00157293    0.00000000
                                                     2        1.8000000       -0.14135838    0.00000000
                                      P - F
                                                     0        0.0000010       -0.09353646    0.00000000
                                                     2        0.1200000        0.31768975    0.00000000
                                                     2        0.2000000       -0.71747951    0.00000000
                                                     2        0.4000000        0.65752308    0.00000000
                                                     2        1.7000000        2.94052587    0.00000000
                                      D - F
                                                     0        0.0000010       -0.04491202    0.00000000
                                                     2        0.1200000       -0.02862031    0.00000000
                                                     2        0.1800000       -0.21515263    0.00000000
                                                     2        0.3000000        0.80560647    0.00000000
                                                     2        0.4000000        0.47351754    0.00000000
                                                     2        0.7000000       -4.57051794    0.00000000
                                                     2        1.6000000       18.53737826    0.00000000
    8          6            6
                                      G and up 
                                                     0        0.0000010       -0.00286759    0.00000000
                                                     2        0.1200000        0.03193960    0.00000000
                                                     2        0.1600000       -0.04027782    0.00000000
                                                     2        0.2600000        0.24782456    0.00000000
                                                     2        0.4000000       -0.62266671    0.00000000
                                                     2        0.7000000        0.35695227    0.00000000
                                      S - G
                                                     0        0.0000010       -0.06602313    0.00000000
                                                     2        0.1200000        1.47277455    0.00000000
                                                     2        0.1600000       -4.06924166    0.00000000
                                                     2        0.3000000        5.02952802    0.00000000
                                                     2        0.7000000       -5.65856978    0.00000000
                                                     2        1.7000000        8.57604414    0.00000000
                                      P - G
                                                     0        0.0000010        0.49434425    0.00000000
                                                     2        0.1200000       -1.37391547    0.00000000
                                                     2        0.1600000        3.65411806    0.00000000
                                                     2        0.2800000       -7.36479843    0.00000000
                                                     2        0.6000000       17.22091285    0.00000000
                                                     2        1.1000000      -23.50107827    0.00000000
                                                     2        3.0000000       16.29464063    0.00000000
                                      D - G
                                                     0        0.0000010       -0.28693103    0.00000000
                                                     2        0.1200000        0.12273044    0.00000000
                                                     2        0.3000000       -0.43416384    0.00000000
                                                     2        0.7000000        2.23358493    0.00000000
                                      F - G
                                                     0        0.0000010        0.07263570    0.00000000
                                                     2        0.1400000       -0.76152861    0.00000000
                                                     2        0.2200000        1.98045593    0.00000000
                                                     2        0.4000000       -2.42426427    0.00000000
                                                     2        0.7000000        0.52335237    0.00000000
    9          1            1
                                      F and up 
                                                     0        0.0000010        0.00072061    0.00000000
                                                     2        0.1200000        0.03832357    0.00000000
                                                     2        0.1400000       -0.08683256    0.00000000
                                                     2        0.1800000        0.09312970    0.00000000
                                                     2        0.2800000       -0.02532572    0.00000000
                                                     2        0.4000000       -0.09430787    0.00000000
                                                     2        0.7000000        0.42710831    0.00000000
                                                     2        1.2000000       -2.11746981    0.00000000
                                      S - F
                                                     0        0.0000010        0.14449603    0.00000000
                                                     2        0.1200000       -0.56378993    0.00000000
                                                     2        0.1400000        0.63941249    0.00000000
                                                     2        0.2600000       -0.58461015    0.00000000
                                                     2        0.5000000        1.00157293    0.00000000
                                                     2        1.8000000       -0.14135838    0.00000000
                                      P - F
                                                     0        0.0000010       -0.09353646    0.00000000
                                                     2        0.1200000        0.31768975    0.00000000
                                                     2        0.2000000       -0.71747951    0.00000000
                                                     2        0.4000000        0.65752308    0.00000000
                                                     2        1.7000000        2.94052587    0.00000000
                                      D - F
                                                     0        0.0000010       -0.04491202    0.00000000
                                                     2        0.1200000       -0.02862031    0.00000000
                                                     2        0.1800000       -0.21515263    0.00000000
                                                     2        0.3000000        0.80560647    0.00000000
                                                     2        0.4000000        0.47351754    0.00000000
                                                     2        0.7000000       -4.57051794    0.00000000
                                                     2        1.6000000       18.53737826    0.00000000
   10          1            1
                                      F and up 
                                                     0        0.0000010        0.00072061    0.00000000
                                                     2        0.1200000        0.03832357    0.00000000
                                                     2        0.1400000       -0.08683256    0.00000000
                                                     2        0.1800000        0.09312970    0.00000000
                                                     2        0.2800000       -0.02532572    0.00000000
                                                     2        0.4000000       -0.09430787    0.00000000
                                                     2        0.7000000        0.42710831    0.00000000
                                                     2        1.2000000       -2.11746981    0.00000000
                                      S - F
                                                     0        0.0000010        0.14449603    0.00000000
                                                     2        0.1200000       -0.56378993    0.00000000
                                                     2        0.1400000        0.63941249    0.00000000
                                                     2        0.2600000       -0.58461015    0.00000000
                                                     2        0.5000000        1.00157293    0.00000000
                                                     2        1.8000000       -0.14135838    0.00000000
                                      P - F
                                                     0        0.0000010       -0.09353646    0.00000000
                                                     2        0.1200000        0.31768975    0.00000000
                                                     2        0.2000000       -0.71747951    0.00000000
                                                     2        0.4000000        0.65752308    0.00000000
                                                     2        1.7000000        2.94052587    0.00000000
                                      D - F
                                                     0        0.0000010       -0.04491202    0.00000000
                                                     2        0.1200000       -0.02862031    0.00000000
                                                     2        0.1800000       -0.21515263    0.00000000
                                                     2        0.3000000        0.80560647    0.00000000
                                                     2        0.4000000        0.47351754    0.00000000
                                                     2        0.7000000       -4.57051794    0.00000000
                                                     2        1.6000000       18.53737826    0.00000000
   11          1            1
                                      F and up 
                                                     0        0.0000010        0.00072061    0.00000000
                                                     2        0.1200000        0.03832357    0.00000000
                                                     2        0.1400000       -0.08683256    0.00000000
                                                     2        0.1800000        0.09312970    0.00000000
                                                     2        0.2800000       -0.02532572    0.00000000
                                                     2        0.4000000       -0.09430787    0.00000000
                                                     2        0.7000000        0.42710831    0.00000000
                                                     2        1.2000000       -2.11746981    0.00000000
                                      S - F
                                                     0        0.0000010        0.14449603    0.00000000
                                                     2        0.1200000       -0.56378993    0.00000000
                                                     2        0.1400000        0.63941249    0.00000000
                                                     2        0.2600000       -0.58461015    0.00000000
                                                     2        0.5000000        1.00157293    0.00000000
                                                     2        1.8000000       -0.14135838    0.00000000
                                      P - F
                                                     0        0.0000010       -0.09353646    0.00000000
                                                     2        0.1200000        0.31768975    0.00000000
                                                     2        0.2000000       -0.71747951    0.00000000
                                                     2        0.4000000        0.65752308    0.00000000
                                                     2        1.7000000        2.94052587    0.00000000
                                      D - F
                                                     0        0.0000010       -0.04491202    0.00000000
                                                     2        0.1200000       -0.02862031    0.00000000
                                                     2        0.1800000       -0.21515263    0.00000000
                                                     2        0.3000000        0.80560647    0.00000000
                                                     2        0.4000000        0.47351754    0.00000000
                                                     2        0.7000000       -4.57051794    0.00000000
                                                     2        1.6000000       18.53737826    0.00000000
   12          1            1
                                      F and up 
                                                     0        0.0000010        0.00072061    0.00000000
                                                     2        0.1200000        0.03832357    0.00000000
                                                     2        0.1400000       -0.08683256    0.00000000
                                                     2        0.1800000        0.09312970    0.00000000
                                                     2        0.2800000       -0.02532572    0.00000000
                                                     2        0.4000000       -0.09430787    0.00000000
                                                     2        0.7000000        0.42710831    0.00000000
                                                     2        1.2000000       -2.11746981    0.00000000
                                      S - F
                                                     0        0.0000010        0.14449603    0.00000000
                                                     2        0.1200000       -0.56378993    0.00000000
                                                     2        0.1400000        0.63941249    0.00000000
                                                     2        0.2600000       -0.58461015    0.00000000
                                                     2        0.5000000        1.00157293    0.00000000
                                                     2        1.8000000       -0.14135838    0.00000000
                                      P - F
                                                     0        0.0000010       -0.09353646    0.00000000
                                                     2        0.1200000        0.31768975    0.00000000
                                                     2        0.2000000       -0.71747951    0.00000000
                                                     2        0.4000000        0.65752308    0.00000000
                                                     2        1.7000000        2.94052587    0.00000000
                                      D - F
                                                     0        0.0000010       -0.04491202    0.00000000
                                                     2        0.1200000       -0.02862031    0.00000000
                                                     2        0.1800000       -0.21515263    0.00000000
                                                     2        0.3000000        0.80560647    0.00000000
                                                     2        0.4000000        0.47351754    0.00000000
                                                     2        0.7000000       -4.57051794    0.00000000
                                                     2        1.6000000       18.53737826    0.00000000
   13          1            1
                                      F and up 
                                                     0        0.0000010        0.00072061    0.00000000
                                                     2        0.1200000        0.03832357    0.00000000
                                                     2        0.1400000       -0.08683256    0.00000000
                                                     2        0.1800000        0.09312970    0.00000000
                                                     2        0.2800000       -0.02532572    0.00000000
                                                     2        0.4000000       -0.09430787    0.00000000
                                                     2        0.7000000        0.42710831    0.00000000
                                                     2        1.2000000       -2.11746981    0.00000000
                                      S - F
                                                     0        0.0000010        0.14449603    0.00000000
                                                     2        0.1200000       -0.56378993    0.00000000
                                                     2        0.1400000        0.63941249    0.00000000
                                                     2        0.2600000       -0.58461015    0.00000000
                                                     2        0.5000000        1.00157293    0.00000000
                                                     2        1.8000000       -0.14135838    0.00000000
                                      P - F
                                                     0        0.0000010       -0.09353646    0.00000000
                                                     2        0.1200000        0.31768975    0.00000000
                                                     2        0.2000000       -0.71747951    0.00000000
                                                     2        0.4000000        0.65752308    0.00000000
                                                     2        1.7000000        2.94052587    0.00000000
                                      D - F
                                                     0        0.0000010       -0.04491202    0.00000000
                                                     2        0.1200000       -0.02862031    0.00000000
                                                     2        0.1800000       -0.21515263    0.00000000
                                                     2        0.3000000        0.80560647    0.00000000
                                                     2        0.4000000        0.47351754    0.00000000
                                                     2        0.7000000       -4.57051794    0.00000000
                                                     2        1.6000000       18.53737826    0.00000000
   14          1            1
                                      F and up 
                                                     0        0.0000010        0.00072061    0.00000000
                                                     2        0.1200000        0.03832357    0.00000000
                                                     2        0.1400000       -0.08683256    0.00000000
                                                     2        0.1800000        0.09312970    0.00000000
                                                     2        0.2800000       -0.02532572    0.00000000
                                                     2        0.4000000       -0.09430787    0.00000000
                                                     2        0.7000000        0.42710831    0.00000000
                                                     2        1.2000000       -2.11746981    0.00000000
                                      S - F
                                                     0        0.0000010        0.14449603    0.00000000
                                                     2        0.1200000       -0.56378993    0.00000000
                                                     2        0.1400000        0.63941249    0.00000000
                                                     2        0.2600000       -0.58461015    0.00000000
                                                     2        0.5000000        1.00157293    0.00000000
                                                     2        1.8000000       -0.14135838    0.00000000
                                      P - F
                                                     0        0.0000010       -0.09353646    0.00000000
                                                     2        0.1200000        0.31768975    0.00000000
                                                     2        0.2000000       -0.71747951    0.00000000
                                                     2        0.4000000        0.65752308    0.00000000
                                                     2        1.7000000        2.94052587    0.00000000
                                      D - F
                                                     0        0.0000010       -0.04491202    0.00000000
                                                     2        0.1200000       -0.02862031    0.00000000
                                                     2        0.1800000       -0.21515263    0.00000000
                                                     2        0.3000000        0.80560647    0.00000000
                                                     2        0.4000000        0.47351754    0.00000000
                                                     2        0.7000000       -4.57051794    0.00000000
                                                     2        1.6000000       18.53737826    0.00000000
   15          1            1
                                      F and up 
                                                     0        0.0000010        0.00072061    0.00000000
                                                     2        0.1200000        0.03832357    0.00000000
                                                     2        0.1400000       -0.08683256    0.00000000
                                                     2        0.1800000        0.09312970    0.00000000
                                                     2        0.2800000       -0.02532572    0.00000000
                                                     2        0.4000000       -0.09430787    0.00000000
                                                     2        0.7000000        0.42710831    0.00000000
                                                     2        1.2000000       -2.11746981    0.00000000
                                      S - F
                                                     0        0.0000010        0.14449603    0.00000000
                                                     2        0.1200000       -0.56378993    0.00000000
                                                     2        0.1400000        0.63941249    0.00000000
                                                     2        0.2600000       -0.58461015    0.00000000
                                                     2        0.5000000        1.00157293    0.00000000
                                                     2        1.8000000       -0.14135838    0.00000000
                                      P - F
                                                     0        0.0000010       -0.09353646    0.00000000
                                                     2        0.1200000        0.31768975    0.00000000
                                                     2        0.2000000       -0.71747951    0.00000000
                                                     2        0.4000000        0.65752308    0.00000000
                                                     2        1.7000000        2.94052587    0.00000000
                                      D - F
                                                     0        0.0000010       -0.04491202    0.00000000
                                                     2        0.1200000       -0.02862031    0.00000000
                                                     2        0.1800000       -0.21515263    0.00000000
                                                     2        0.3000000        0.80560647    0.00000000
                                                     2        0.4000000        0.47351754    0.00000000
                                                     2        0.7000000       -4.57051794    0.00000000
                                                     2        1.6000000       18.53737826    0.00000000
 ======================================================================================================
   209 basis functions,   363 primitive gaussians,   219 cartesian basis functions
    25 alpha electrons       25 beta electrons
       nuclear repulsion energy       237.4150407267 Hartrees.
 NAtoms=   15 NActive=   15 NUniq=   15 SFac= 1.00D+00 NAtFMM=   60 NAOKFM=F Big=F
   1 Symmetry operations used in ECPInt.
 ECPInt:  NShTT=    4753 NPrTT=   21447 LenC2=    4742 LenP2D=   17198.
 LDataN:  DoStor=T MaxTD1= 6 Len=  172
 Initial guess from the checkpoint file:  "BDE49_nonexpt_2161_mol1.chk"
 B after Tr=     0.000000    0.000000    0.000000
         Rot=    1.000000   -0.000000   -0.000000   -0.000000 Ang=  -0.00 deg.
 >>>>>>>>>> Convergence criterion not met.
 SCF Done:  E(RHF) =  -484.393504980     A.U. after    2 cycles
            NFock=  1  Conv=0.25D+00     -V/T= 2.0488

 **********************************************************************

            Population analysis using the SCF Density.

 **********************************************************************

 Orbital symmetries:
       Occupied  (A) (A) (A) (A) (A) (A) (A) (A) (A) (A) (A) (A)
                 (A) (A) (A) (A) (A) (A) (A) (A) (A) (A) (A) (A)
                 (A)
       Virtual   (A) (A) (A) (A) (A) (A) (A) (A) (A) (A) (A) (A)
                 (A) (A) (A) (A) (A) (A) (A) (A) (A) (A) (A) (A)
                 (A) (A) (A) (A) (A) (A) (A) (A) (A) (A) (A) (A)
                 (A) (A) (A) (A) (A) (A) (A) (A) (A) (A) (A) (A)
                 (A) (A) (A) (A) (A) (A) (A) (A) (A) (A) (A) (A)
                 (A) (A) (A) (A) (A) (A) (A) (A) (A) (A) (A) (A)
                 (A) (A) (A) (A) (A) (A) (A) (A) (A) (A) (A) (A)
                 (A) (A) (A) (A) (A) (A) (A) (A) (A) (A) (A) (A)
                 (A) (A) (A) (A) (A) (A) (A) (A) (A) (A) (A) (A)
                 (A) (A) (A) (A) (A) (A) (A) (A) (A) (A) (A) (A)
                 (A) (A) (A) (A) (A) (A) (A) (A) (A) (A) (A) (A)
                 (A) (A) (A) (A) (A) (A) (A) (A) (A) (A) (A) (A)
                 (A) (A) (A) (A) (A) (A) (A) (A) (A) (A) (A) (A)
                 (A) (A) (A) (A) (A) (A) (A) (A) (A) (A) (A) (A)
                 (A) (A) (A) (A) (A) (A) (A) (A) (A) (A) (A) (A)
                 (A) (A) (A) (A)
 The electronic state is 1-A.
 Alpha  occ. eigenvalues --  -76.21979 -21.06950 -11.40715 -11.36834 -11.33799
 Alpha  occ. eigenvalues --   -5.55851  -2.22525  -2.19281  -2.17491  -1.65284
 Alpha  occ. eigenvalues --   -1.20036  -0.99360  -0.84450  -0.72853  -0.63533
 Alpha  occ. eigenvalues --   -0.58407  -0.57039  -0.53493  -0.52406  -0.48529
 Alpha  occ. eigenvalues --   -0.46098  -0.45181  -0.40409  -0.37811  -0.37060
 Alpha virt. eigenvalues --    0.03922   0.04827   0.05547   0.06116   0.06303
 Alpha virt. eigenvalues --    0.06457   0.06805   0.07154   0.08419   0.08668
 Alpha virt. eigenvalues --    0.09555   0.10242   0.10584   0.12974   0.14245
 Alpha virt. eigenvalues --    0.15435   0.15690   0.15878   0.17609   0.17891
 Alpha virt. eigenvalues --    0.18780   0.19268   0.19605   0.20267   0.21764
 Alpha virt. eigenvalues --    0.22091   0.22888   0.23823   0.24969   0.25504
 Alpha virt. eigenvalues --    0.26458   0.28039   0.29660   0.30031   0.31008
 Alpha virt. eigenvalues --    0.31546   0.31960   0.33269   0.35503   0.35878
 Alpha virt. eigenvalues --    0.37463   0.38392   0.38979   0.40203   0.42143
 Alpha virt. eigenvalues --    0.43178   0.43528   0.45121   0.46088   0.46710
 Alpha virt. eigenvalues --    0.47669   0.47892   0.49174   0.49533   0.50682
 Alpha virt. eigenvalues --    0.51366   0.51918   0.52505   0.53021   0.54916
 Alpha virt. eigenvalues --    0.55773   0.56954   0.57302   0.58832   0.60027
 Alpha virt. eigenvalues --    0.60673   0.61009   0.61571   0.61874   0.64195
 Alpha virt. eigenvalues --    0.65522   0.65839   0.67136   0.68649   0.69109
 Alpha virt. eigenvalues --    0.70922   0.72223   0.72703   0.73723   0.74946
 Alpha virt. eigenvalues --    0.76555   0.77681   0.77922   0.78304   0.80678
 Alpha virt. eigenvalues --    0.81079   0.82932   0.84873   0.86519   0.87359
 Alpha virt. eigenvalues --    0.88934   0.90267   0.90444   0.92810   0.95944
 Alpha virt. eigenvalues --    0.99413   1.01696   1.03101   1.07327   1.10598
 Alpha virt. eigenvalues --    1.14398   1.21075   1.22117   1.23856   1.25006
 Alpha virt. eigenvalues --    1.28330   1.31559   1.32519   1.34947   1.36529
 Alpha virt. eigenvalues --    1.37509   1.41156   1.42772   1.47018   1.56474
 Alpha virt. eigenvalues --    1.60952   1.64638   1.68797   1.71486   1.72650
 Alpha virt. eigenvalues --    1.75940   1.78147   1.82977   1.84787   1.88774
 Alpha virt. eigenvalues --    1.90447   1.97462   1.98335   1.99207   2.02694
 Alpha virt. eigenvalues --    2.05134   2.05512   2.06370   2.07845   2.08789
 Alpha virt. eigenvalues --    2.11464   2.12862   2.15360   2.18489   2.22311
 Alpha virt. eigenvalues --    2.24494   2.25174   2.27361   2.29914   2.34081
 Alpha virt. eigenvalues --    2.37181   2.40490   2.43718   2.46561   2.50021
 Alpha virt. eigenvalues --    2.52807   2.58170   2.59310   2.61232   2.62998
 Alpha virt. eigenvalues --    2.65615   2.67681   2.69622   2.73354   2.73513
 Alpha virt. eigenvalues --    2.76974   2.79736   2.90565   2.93264   2.95553
 Alpha virt. eigenvalues --    3.01050   3.05732   3.09050   3.11770   3.16277
 Alpha virt. eigenvalues --    3.25397   3.32836   3.41258   3.48969   3.57652
 Alpha virt. eigenvalues --    3.72747   3.79301   3.81420   3.94748   5.95032
 Alpha virt. eigenvalues --    5.97780   6.09043   6.10028   6.79644
          Condensed to atoms (all electrons):
 Mulliken charges:
               1
     1  Si   6.086207
     2  O   -2.599773
     3  H    1.123300
     4  C   -4.120000
     5  C   -2.579009
     6  H    1.465434
     7  H    1.576675
     8  C   -3.859711
     9  H    1.483185
    10  H    1.459275
    11  H    1.244250
    12  H    1.145613
    13  H    1.265580
    14  H   -1.845959
    15  H   -1.845066
 Sum of Mulliken charges =   0.00000
 Mulliken charges with hydrogens summed into heavy atoms:
               1
     1  Si   2.395182
     2  O   -1.476473
     4  C   -1.077891
     5  C    0.363450
     8  C   -0.204268
 Electronic spatial extent (au):  <R**2>=            832.2987
 Charge=             -0.0000 electrons
 Dipole moment (field-independent basis, Debye):
    X=             -0.0813    Y=              0.6319    Z=             -0.0966  Tot=              0.6443

 Test job not archived.
 1\1\GINC-SE094\SP\RHF\Aug-CC-pVDZ\C3H10O1Si1\OHZDE\09-Apr-2025\0\\#t h
 f aug-cc-pvdz iop(5/13=1,5/36=2,99/5=2) pseudo=read geom=check guess=(
 read,tcheck) scf=(maxcycle=1)\\title\\0,1\Si,0,1.38578,-0.477721,0.144
 064\O,0,1.85409,1.065507,-0.244403\H,0,2.735256,1.358803,-0.004548\C,0
 ,-0.408937,-0.640022,-0.353509\C,0,-1.366913,0.334896,0.356811\H,0,-0.
 715107,-1.677352,-0.160818\H,0,-0.472933,-0.505036,-1.440682\C,0,-2.82
 5432,0.177324,-0.085104\H,0,-1.037982,1.362191,0.170485\H,0,-1.29898,0
 .186062,1.44083\H,0,-2.931941,0.356775,-1.159419\H,0,-3.478321,0.88279
 3,0.43702\H,0,-3.193505,-0.832977,0.119607\H,0,1.55313,-0.719856,1.602
 348\H,0,2.214427,-1.480559,-0.575687\\Version=ES64L-G16RevC.01\State=1
 -A\HF=-484.393505\RMSD=2.505e-01\Dipole=-0.0319803,0.2485918,-0.038001
 6\Quadrupole=1.1408533,-0.2326406,-0.9082128,2.464964,0.1507996,0.1733
 343\PG=C01 [X(C3H10O1Si1)]\\@


 SCIENCE IS A VERY HUMAN FORM OF KNOWLEDGE.
 WE ARE ALWAYS AT THE BRINK OF THE KNOWN,
 WE ALWAYS FEEL FORWARD FOR WHAT IS HOPED.
 EVERY JUDGEMENT IN SCIENCE STANDS ON THE EDGE OF ERROR, AND IS PERSONAL.
 SCIENCE IS A TRIBUTE TO WHAT WE CAN KNOW ALTHOUGH WE ARE FALLIBLE.

                     -- J. BRONOWSKI
 Job cpu time:       0 days  0 hours  0 minutes 50.9 seconds.
 Elapsed time:       0 days  0 hours  0 minutes  4.0 seconds.
 File lengths (MBytes):  RWF=     10 Int=      0 D2E=      0 Chk=      6 Scr=      1
 Normal termination of Gaussian 16 at Wed Apr  9 00:03:16 2025.
