 Entering Gaussian System, Link 0=g16
 Input=BDE49_nonexpt_1421_mol1.gjf
 Output=BDE49_nonexpt_1421_mol1.log
 Initial command:
 /arc/software/Gaussian/g16.c01/l1.exe "/tmp/slurm/4845184/Gau-1872119.inp" -scrdir="/tmp/slurm/4845184/"
 Entering Link 1 = /arc/software/Gaussian/g16.c01/l1.exe PID=   1872123.
  
 Copyright (c) 1988-2019, Gaussian, Inc.  All Rights Reserved.
  
 This is part of the Gaussian(R) 16 program.  It is based on
 the Gaussian(R) 09 system (copyright 2009, Gaussian, Inc.),
 the Gaussian(R) 03 system (copyright 2003, Gaussian, Inc.),
 the Gaussian(R) 98 system (copyright 1998, Gaussian, Inc.),
 the Gaussian(R) 94 system (copyright 1995, Gaussian, Inc.),
 the Gaussian 92(TM) system (copyright 1992, Gaussian, Inc.),
 the Gaussian 90(TM) system (copyright 1990, Gaussian, Inc.),
 the Gaussian 88(TM) system (copyright 1988, Gaussian, Inc.),
 the Gaussian 86(TM) system (copyright 1986, Carnegie Mellon
 University), and the Gaussian 82(TM) system (copyright 1983,
 Carnegie Mellon University). Gaussian is a federally registered
 trademark of Gaussian, Inc.
  
 This software contains proprietary and confidential information,
 including trade secrets, belonging to Gaussian, Inc.
  
 This software is provided under written license and may be
 used, copied, transmitted, or stored only in accord with that
 written license.
  
 The following legend is applicable only to US Government
 contracts under FAR:
  
                    RESTRICTED RIGHTS LEGEND
  
 Use, reproduction and disclosure by the US Government is
 subject to restrictions as set forth in subparagraphs (a)
 and (c) of the Commercial Computer Software - Restricted
 Rights clause in FAR 52.227-19.
  
 Gaussian, Inc.
 340 Quinnipiac St., Bldg. 40, Wallingford CT 06492
  
  
 ---------------------------------------------------------------
 Warning -- This program may not be used in any manner that
 competes with the business of Gaussian, Inc. or will provide
 assistance to any competitor of Gaussian, Inc.  The licensee
 of this program is prohibited from giving any competitor of
 Gaussian, Inc. access to this program.  By using this program,
 the user acknowledges that Gaussian, Inc. is engaged in the
 business of creating and licensing software in the field of
 computational chemistry and represents and warrants to the
 licensee that it is not a competitor of Gaussian, Inc. and that
 it will not use this program in any manner prohibited above.
 ---------------------------------------------------------------
  

 Cite this work as:
 Gaussian 16, Revision C.01,
 M. J. Frisch, G. W. Trucks, H. B. Schlegel, G. E. Scuseria, 
 M. A. Robb, J. R. Cheeseman, G. Scalmani, V. Barone, 
 G. A. Petersson, H. Nakatsuji, X. Li, M. Caricato, A. V. Marenich, 
 J. Bloino, B. G. Janesko, R. Gomperts, B. Mennucci, H. P. Hratchian, 
 J. V. Ortiz, A. F. Izmaylov, J. L. Sonnenberg, D. Williams-Young, 
 F. Ding, F. Lipparini, F. Egidi, J. Goings, B. Peng, A. Petrone, 
 T. Henderson, D. Ranasinghe, V. G. Zakrzewski, J. Gao, N. Rega, 
 G. Zheng, W. Liang, M. Hada, M. Ehara, K. Toyota, R. Fukuda, 
 J. Hasegawa, M. Ishida, T. Nakajima, Y. Honda, O. Kitao, H. Nakai, 
 T. Vreven, K. Throssell, J. A. Montgomery, Jr., J. E. Peralta, 
 F. Ogliaro, M. J. Bearpark, J. J. Heyd, E. N. Brothers, K. N. Kudin, 
 V. N. Staroverov, T. A. Keith, R. Kobayashi, J. Normand, 
 K. Raghavachari, A. P. Rendell, J. C. Burant, S. S. Iyengar, 
 J. Tomasi, M. Cossi, J. M. Millam, M. Klene, C. Adamo, R. Cammi, 
 J. W. Ochterski, R. L. Martin, K. Morokuma, O. Farkas, 
 J. B. Foresman, and D. J. Fox, Gaussian, Inc., Wallingford CT, 2019.
 
 ******************************************
 Gaussian 16:  ES64L-G16RevC.01  3-Jul-2019
                 8-Apr-2025 
 ******************************************
 %nprocs=16
 Will use up to   16 processors via shared memory.
 %mem=30GB
 %chk=BDE49_nonexpt_1421_mol1.chk
 ----------------------------------------------------------------------
 #t hf aug-cc-pvdz symm=none int=(grid=ultrafine) guess=(read,tcheck) s
 table=(opt,rrhf)
 ----------------------------------------------------------------------
 -----
 title
 -----
 Symbolic Z-matrix:
 Charge =  0 Multiplicity = 1
 C                    -2.33372  -0.77031   0.00021 
 C                    -1.08377  -1.38291   0.00954 
 C                     0.09427  -0.62886   0.01632 
 C                    -2.43816   0.61945  -0.001 
 C                    -1.28566   1.3926    0.00196 
 C                    -0.02479   0.77808   0.00221 
 H                    -3.22884  -1.38184   0.0005 
 H                    -1.02457  -2.46525   0.01911 
 P                     1.74768  -1.44598  -0.11661 
 H                    -1.34467   2.47408   0.00251 
 H                    -3.41045   1.09701  -0.00362 
 C                     1.14509   1.60253  -0.00072 
 N                     2.09376   2.26262  -0.00208 
 H                     1.36648  -2.64909   0.52705 
 H                     2.33102  -0.88701   1.04711 
 
                    Distance matrix (angstroms):
                    1          2          3          4          5
     1  C    0.000000
     2  C    1.392034   0.000000
     3  C    2.432164   1.398718   0.000000
     4  C    1.393677   2.417423   2.823432   0.000000
     5  C    2.403457   2.782853   2.447592   1.387811   0.000000
     6  C    2.780049   2.406522   1.412033   2.418579   1.402653
     7  H    1.084064   2.145091   3.407386   2.151816   3.387244
     8  H    2.141742   1.083997   2.150381   3.393228   3.866709
     9  P    4.138597   2.834951   1.849082   4.669108   4.156047
    10  H    3.391793   3.865806   3.420369   2.152992   1.083085
    11  H    2.155507   3.400529   3.906667   1.083241   2.145255
    12  C    4.210997   3.725689   2.466496   3.715656   2.439798
    13  N    5.366678   4.835976   3.515524   4.820609   3.489616
    14  H    4.183163   2.806193   2.441453   5.043552   4.862592
    15  H    4.782201   3.603225   2.476332   5.110090   4.401064
                    6          7          8          9         10
     6  C    0.000000
     7  H    3.864084   0.000000
     8  H    3.393964   2.456203   0.000000
     9  P    2.846433   4.978304   2.956798   0.000000
    10  H    2.149067   4.291636   4.949711   4.994358   0.000000
    11  H    3.400650   2.485487   4.287490   5.752023   2.482701
    12  C    1.431204   5.295060   4.610274   3.109659   2.637891
    13  N    2.586914   6.450741   5.663666   3.726472   3.444924
    14  H    3.735846   4.795842   2.451306   1.416714   5.819987
    15  H    3.068254   5.679106   3.848061   1.416677   5.089084
                   11         12         13         14         15
    11  H    0.000000
    12  C    4.583497   0.000000
    13  N    5.626270   1.155721   0.000000
    14  H    6.093752   4.289969   4.993374   0.000000
    15  H    6.164802   2.949953   3.328254   2.075020   0.000000
 Symmetry turned off by external request.
 Rotational constants (GHZ):           1.9277917           1.3426004           0.7957468
   265 basis functions,   491 primitive gaussians,   283 cartesian basis functions
    35 alpha electrons       35 beta electrons
       nuclear repulsion energy       444.8486955471 Hartrees.
 NAtoms=   15 NActive=   15 NUniq=   15 SFac= 1.00D+00 NAtFMM=   60 NAOKFM=F Big=F
 ExpMin= 2.97D-02 ExpMax= 9.48D+04 ExpMxC= 3.24D+03 IAcc=3 IRadAn=         5 AccDes= 0.00D+00
 Harris functional with IExCor=  205 and IRadAn=       5 diagonalized for initial guess.
 HarFok:  IExCor=  205 AccDes= 0.00D+00 IRadAn=         5 IDoV= 1 UseB2=F ITyADJ=14
 ICtDFT=  3500011 ScaDFX=  1.000000  1.000000  1.000000  1.000000
 FoFCou: FMM=F IPFlag=           0 FMFlag=      100000 FMFlg1=           0
         NFxFlg=           0 DoJE=T BraDBF=F KetDBF=T FulRan=T
         wScrn=  0.000000 ICntrl=       500 IOpCl=  0 I1Cent=   200000004 NGrid=           0
         NMat0=    1 NMatS0=      1 NMatT0=    0 NMatD0=    1 NMtDS0=    0 NMtDT0=    0
 Symmetry not used in FoFCou.
 SCF Done:  E(RHF) =  -663.780111388     A.U. after   16 cycles
            NFock= 16  Conv=0.85D-08     -V/T= 2.0006

 **********************************************************************

            Population analysis using the SCF Density.

 **********************************************************************

 Alpha  occ. eigenvalues --  -79.97124 -15.58881 -11.29889 -11.28944 -11.28863
 Alpha  occ. eigenvalues --  -11.28069 -11.27591 -11.27010 -11.26813  -7.51143
 Alpha  occ. eigenvalues --   -5.40543  -5.40525  -5.40373  -1.23418  -1.18826
 Alpha  occ. eigenvalues --   -1.06902  -1.05707  -0.90803  -0.88124  -0.82497
 Alpha  occ. eigenvalues --   -0.75573  -0.68383  -0.67011  -0.63330  -0.59105
 Alpha  occ. eigenvalues --   -0.56735  -0.56202  -0.54079  -0.52319  -0.50769
 Alpha  occ. eigenvalues --   -0.48588  -0.47072  -0.41496  -0.36259  -0.34116
 Alpha virt. eigenvalues --    0.02568   0.03594   0.04298   0.05523   0.05807
 Alpha virt. eigenvalues --    0.06184   0.06997   0.07704   0.09060   0.09607
 Alpha virt. eigenvalues --    0.10104   0.10270   0.11454   0.12400   0.12886
 Alpha virt. eigenvalues --    0.13375   0.14049   0.14234   0.15140   0.15370
 Alpha virt. eigenvalues --    0.15445   0.15826   0.16461   0.17159   0.17212
 Alpha virt. eigenvalues --    0.17970   0.18571   0.18902   0.19443   0.20263
 Alpha virt. eigenvalues --    0.20578   0.21369   0.22339   0.23249   0.23434
 Alpha virt. eigenvalues --    0.24561   0.25640   0.25965   0.27262   0.28361
 Alpha virt. eigenvalues --    0.29311   0.30242   0.30481   0.31393   0.31890
 Alpha virt. eigenvalues --    0.32442   0.32800   0.34016   0.34161   0.34463
 Alpha virt. eigenvalues --    0.35345   0.37201   0.37843   0.38276   0.38628
 Alpha virt. eigenvalues --    0.39805   0.40126   0.40552   0.41945   0.42550
 Alpha virt. eigenvalues --    0.43187   0.44986   0.45579   0.46050   0.47679
 Alpha virt. eigenvalues --    0.48537   0.50800   0.51374   0.51986   0.53259
 Alpha virt. eigenvalues --    0.53666   0.54395   0.55442   0.57482   0.58076
 Alpha virt. eigenvalues --    0.58734   0.59832   0.60829   0.61768   0.62491
 Alpha virt. eigenvalues --    0.62785   0.63553   0.63823   0.64694   0.66289
 Alpha virt. eigenvalues --    0.66503   0.67279   0.67786   0.68626   0.69506
 Alpha virt. eigenvalues --    0.70626   0.70991   0.72543   0.73308   0.73987
 Alpha virt. eigenvalues --    0.74254   0.74860   0.75239   0.75932   0.77047
 Alpha virt. eigenvalues --    0.77470   0.81180   0.81871   0.83616   0.85092
 Alpha virt. eigenvalues --    0.85994   0.86288   0.89075   0.89800   0.90096
 Alpha virt. eigenvalues --    0.91214   0.92140   0.92197   0.94400   0.94747
 Alpha virt. eigenvalues --    0.95737   0.96543   0.97293   0.98480   0.99473
 Alpha virt. eigenvalues --    1.00135   1.02243   1.04719   1.05798   1.06078
 Alpha virt. eigenvalues --    1.07316   1.07821   1.09240   1.09943   1.11928
 Alpha virt. eigenvalues --    1.14160   1.15426   1.17015   1.18537   1.18936
 Alpha virt. eigenvalues --    1.22002   1.25983   1.27408   1.27777   1.30292
 Alpha virt. eigenvalues --    1.33388   1.35592   1.42192   1.43611   1.44689
 Alpha virt. eigenvalues --    1.50152   1.50443   1.51847   1.52934   1.55342
 Alpha virt. eigenvalues --    1.56000   1.57534   1.59770   1.60979   1.61260
 Alpha virt. eigenvalues --    1.62642   1.66794   1.69153   1.69753   1.69972
 Alpha virt. eigenvalues --    1.71055   1.71992   1.73910   1.74330   1.76168
 Alpha virt. eigenvalues --    1.77167   1.78268   1.79753   1.80954   1.82165
 Alpha virt. eigenvalues --    1.84667   1.85202   1.86938   1.88350   1.91371
 Alpha virt. eigenvalues --    1.91762   1.92292   1.94734   1.95938   1.97361
 Alpha virt. eigenvalues --    1.98067   2.00077   2.01829   2.04230   2.05132
 Alpha virt. eigenvalues --    2.08951   2.11398   2.11861   2.13218   2.15341
 Alpha virt. eigenvalues --    2.16629   2.19382   2.21334   2.23687   2.24950
 Alpha virt. eigenvalues --    2.29080   2.30587   2.31396   2.32869   2.34290
 Alpha virt. eigenvalues --    2.36900   2.37458   2.39914   2.40901   2.43672
 Alpha virt. eigenvalues --    2.48245   2.58385   2.59808   2.64378   2.66322
 Alpha virt. eigenvalues --    2.68670   2.71529   2.78073   2.80143   2.83028
 Alpha virt. eigenvalues --    2.91460   2.94968   3.02965   3.07857   3.10366
 Alpha virt. eigenvalues --    3.13112   3.20549   3.28741   3.39940   3.42219
 Alpha virt. eigenvalues --    3.52262   3.57940   3.76349   3.81308   4.63648
          Condensed to atoms (all electrons):
 Mulliken charges:
               1
     1  C    0.189297
     2  C    1.083154
     3  C   -1.102925
     4  C    0.663130
     5  C    0.139402
     6  C    2.313971
     7  H   -0.441404
     8  H   -0.547410
     9  P   -0.306105
    10  H   -0.564838
    11  H   -0.416084
    12  C   -1.282406
    13  N   -0.270779
    14  H    0.254487
    15  H    0.288511
 Sum of Mulliken charges =  -0.00000
 Mulliken charges with hydrogens summed into heavy atoms:
               1
     1  C   -0.252107
     2  C    0.535744
     3  C   -1.102925
     4  C    0.247046
     5  C   -0.425436
     6  C    2.313971
     9  P    0.236893
    12  C   -1.282406
    13  N   -0.270779
 Electronic spatial extent (au):  <R**2>=           1368.8271
 Charge=             -0.0000 electrons
 Dipole moment (field-independent basis, Debye):
    X=             -4.3774    Y=             -2.7059    Z=              0.7084  Tot=              5.1948
 NROrb=    265 NOA=    35 NOB=    35 NVA=   230 NVB=   230

 **** Warning!!: The largest alpha MO coefficient is  0.13270424D+03

    12 initial guesses have been made.
 Iteration     1 Dimension    12 NMult     0 NNew     12
 Iteration     2 Dimension    24 NMult    12 NNew     12
 Iteration     3 Dimension    27 NMult    24 NNew      3
 Iteration     4 Dimension    30 NMult    27 NNew      3
 Iteration     5 Dimension    33 NMult    30 NNew      3
 Iteration     6 Dimension    36 NMult    33 NNew      3
 Iteration     7 Dimension    39 NMult    36 NNew      3
 Iteration     8 Dimension    42 NMult    39 NNew      3
 ***********************************************************************
 Stability analysis using <AA,BB:AA,BB> singles matrix:
 ***********************************************************************
 Ground to excited state transition densities written to RWF  633

 Eigenvectors of the stability matrix:
 
 Excited state symmetry could not be determined.
 Eigenvector   1:      Singlet-?Sym  Eigenvalue= 0.1596529  <S**2>=0.000
      33 -> 40         0.17729
      34 -> 40        -0.11028
      34 -> 42         0.23097
      34 -> 43        -0.12473
      34 -> 44        -0.21384
      34 -> 45         0.11432
      34 -> 46        -0.11600
      35 -> 40         0.47328
 The wavefunction is stable under the perturbations considered.
 The wavefunction is already stable.

 **********************************************************************

            Population analysis using the SCF Density.

 **********************************************************************

 Alpha  occ. eigenvalues --  -79.97124 -15.58881 -11.29889 -11.28944 -11.28863
 Alpha  occ. eigenvalues --  -11.28069 -11.27591 -11.27010 -11.26813  -7.51143
 Alpha  occ. eigenvalues --   -5.40543  -5.40525  -5.40373  -1.23418  -1.18826
 Alpha  occ. eigenvalues --   -1.06902  -1.05707  -0.90803  -0.88124  -0.82497
 Alpha  occ. eigenvalues --   -0.75573  -0.68383  -0.67011  -0.63330  -0.59105
 Alpha  occ. eigenvalues --   -0.56735  -0.56202  -0.54079  -0.52319  -0.50769
 Alpha  occ. eigenvalues --   -0.48588  -0.47072  -0.41496  -0.36259  -0.34116
 Alpha virt. eigenvalues --    0.02568   0.03594   0.04298   0.05523   0.05807
 Alpha virt. eigenvalues --    0.06184   0.06997   0.07704   0.09060   0.09607
 Alpha virt. eigenvalues --    0.10104   0.10270   0.11454   0.12400   0.12886
 Alpha virt. eigenvalues --    0.13375   0.14049   0.14234   0.15140   0.15370
 Alpha virt. eigenvalues --    0.15445   0.15826   0.16461   0.17159   0.17212
 Alpha virt. eigenvalues --    0.17970   0.18571   0.18902   0.19443   0.20263
 Alpha virt. eigenvalues --    0.20578   0.21369   0.22339   0.23249   0.23434
 Alpha virt. eigenvalues --    0.24561   0.25640   0.25965   0.27262   0.28361
 Alpha virt. eigenvalues --    0.29311   0.30242   0.30481   0.31393   0.31890
 Alpha virt. eigenvalues --    0.32442   0.32800   0.34016   0.34161   0.34463
 Alpha virt. eigenvalues --    0.35345   0.37201   0.37843   0.38276   0.38628
 Alpha virt. eigenvalues --    0.39805   0.40126   0.40552   0.41945   0.42550
 Alpha virt. eigenvalues --    0.43187   0.44986   0.45579   0.46050   0.47679
 Alpha virt. eigenvalues --    0.48537   0.50800   0.51374   0.51986   0.53259
 Alpha virt. eigenvalues --    0.53666   0.54395   0.55442   0.57482   0.58076
 Alpha virt. eigenvalues --    0.58734   0.59832   0.60829   0.61768   0.62491
 Alpha virt. eigenvalues --    0.62785   0.63553   0.63823   0.64694   0.66289
 Alpha virt. eigenvalues --    0.66503   0.67279   0.67786   0.68626   0.69506
 Alpha virt. eigenvalues --    0.70626   0.70991   0.72543   0.73308   0.73987
 Alpha virt. eigenvalues --    0.74254   0.74860   0.75239   0.75932   0.77047
 Alpha virt. eigenvalues --    0.77470   0.81180   0.81871   0.83616   0.85092
 Alpha virt. eigenvalues --    0.85994   0.86288   0.89075   0.89800   0.90096
 Alpha virt. eigenvalues --    0.91214   0.92140   0.92197   0.94400   0.94747
 Alpha virt. eigenvalues --    0.95737   0.96543   0.97293   0.98480   0.99473
 Alpha virt. eigenvalues --    1.00135   1.02243   1.04719   1.05798   1.06078
 Alpha virt. eigenvalues --    1.07316   1.07821   1.09240   1.09943   1.11928
 Alpha virt. eigenvalues --    1.14160   1.15426   1.17015   1.18537   1.18936
 Alpha virt. eigenvalues --    1.22002   1.25983   1.27408   1.27777   1.30292
 Alpha virt. eigenvalues --    1.33388   1.35592   1.42192   1.43611   1.44689
 Alpha virt. eigenvalues --    1.50152   1.50443   1.51847   1.52934   1.55342
 Alpha virt. eigenvalues --    1.56000   1.57534   1.59770   1.60979   1.61260
 Alpha virt. eigenvalues --    1.62642   1.66794   1.69153   1.69753   1.69972
 Alpha virt. eigenvalues --    1.71055   1.71992   1.73910   1.74330   1.76168
 Alpha virt. eigenvalues --    1.77167   1.78268   1.79753   1.80954   1.82165
 Alpha virt. eigenvalues --    1.84667   1.85202   1.86938   1.88350   1.91371
 Alpha virt. eigenvalues --    1.91762   1.92292   1.94734   1.95938   1.97361
 Alpha virt. eigenvalues --    1.98067   2.00077   2.01829   2.04230   2.05132
 Alpha virt. eigenvalues --    2.08951   2.11398   2.11861   2.13218   2.15341
 Alpha virt. eigenvalues --    2.16629   2.19382   2.21334   2.23687   2.24950
 Alpha virt. eigenvalues --    2.29080   2.30587   2.31396   2.32869   2.34290
 Alpha virt. eigenvalues --    2.36900   2.37458   2.39914   2.40901   2.43672
 Alpha virt. eigenvalues --    2.48245   2.58385   2.59808   2.64378   2.66322
 Alpha virt. eigenvalues --    2.68670   2.71529   2.78073   2.80143   2.83028
 Alpha virt. eigenvalues --    2.91460   2.94968   3.02965   3.07857   3.10366
 Alpha virt. eigenvalues --    3.13112   3.20549   3.28741   3.39940   3.42219
 Alpha virt. eigenvalues --    3.52262   3.57940   3.76349   3.81308   4.63648
          Condensed to atoms (all electrons):
 Mulliken charges:
               1
     1  C    0.189297
     2  C    1.083154
     3  C   -1.102925
     4  C    0.663130
     5  C    0.139402
     6  C    2.313971
     7  H   -0.441404
     8  H   -0.547410
     9  P   -0.306105
    10  H   -0.564838
    11  H   -0.416084
    12  C   -1.282406
    13  N   -0.270779
    14  H    0.254487
    15  H    0.288511
 Sum of Mulliken charges =  -0.00000
 Mulliken charges with hydrogens summed into heavy atoms:
               1
     1  C   -0.252107
     2  C    0.535744
     3  C   -1.102925
     4  C    0.247046
     5  C   -0.425436
     6  C    2.313971
     9  P    0.236893
    12  C   -1.282406
    13  N   -0.270779
 Electronic spatial extent (au):  <R**2>=           1368.8271
 Charge=             -0.0000 electrons
 Dipole moment (field-independent basis, Debye):
    X=             -4.3774    Y=             -2.7059    Z=              0.7084  Tot=              5.1948
 Unable to Open any file for archive entry.
 1\1\GINC-SE250\Stability\RHF\Aug-CC-pVDZ\C7H6N1P1\OHZDE\08-Apr-2025\0\
 \#t hf aug-cc-pvdz symm=none int=(grid=ultrafine) guess=(read,tcheck) 
 stable=(opt,rrhf)\\title\\0,1\C,0,-2.333722,-0.770309,0.000207\C,0,-1.
 083765,-1.38291,0.009536\C,0,0.094272,-0.628857,0.016317\C,0,-2.438158
 ,0.619449,-0.000999\C,0,-1.285661,1.392599,0.001955\C,0,-0.024789,0.77
 8077,0.002207\H,0,-3.228837,-1.381835,0.000501\H,0,-1.024567,-2.465247
 ,0.019107\P,0,1.747676,-1.445981,-0.116607\H,0,-1.344667,2.474075,0.00
 2508\H,0,-3.410446,1.097005,-0.003615\C,0,1.145087,1.602533,-0.000718\
 N,0,2.093758,2.262618,-0.002083\H,0,1.366477,-2.649088,0.527054\H,0,2.
 33102,-0.887013,1.04711\\Version=ES64L-G16RevC.01\HF=-663.7801114\RMSD
 =8.476e-09\Dipole=-1.7222084,-1.0645798,0.2787107\Quadrupole=0.6265305
 ,1.0823455,-1.7088761,-5.9310697,1.7074773,-0.8337781\PG=Unknown\\@
 The archive entry for this job was punched.


 ONE BIG VICE IN A MAN IS APT TO KEEP OUT MANY SMALLER ONES.

                           -- BRET HARTE
 Job cpu time:       0 days  0 hours 14 minutes 36.4 seconds.
 Elapsed time:       0 days  0 hours  1 minutes  0.4 seconds.
 File lengths (MBytes):  RWF=    344 Int=      0 D2E=      0 Chk=     10 Scr=      1
 Normal termination of Gaussian 16 at Tue Apr  8 23:33:58 2025.
 Initial command:
 /arc/software/Gaussian/g16.c01/l1.exe "/tmp/slurm/4845184/Gau-1872119.inp" -scrdir="/tmp/slurm/4845184/"
 Entering Link 1 = /arc/software/Gaussian/g16.c01/l1.exe PID=   1872470.
  
 Copyright (c) 1988-2019, Gaussian, Inc.  All Rights Reserved.
  
 This is part of the Gaussian(R) 16 program.  It is based on
 the Gaussian(R) 09 system (copyright 2009, Gaussian, Inc.),
 the Gaussian(R) 03 system (copyright 2003, Gaussian, Inc.),
 the Gaussian(R) 98 system (copyright 1998, Gaussian, Inc.),
 the Gaussian(R) 94 system (copyright 1995, Gaussian, Inc.),
 the Gaussian 92(TM) system (copyright 1992, Gaussian, Inc.),
 the Gaussian 90(TM) system (copyright 1990, Gaussian, Inc.),
 the Gaussian 88(TM) system (copyright 1988, Gaussian, Inc.),
 the Gaussian 86(TM) system (copyright 1986, Carnegie Mellon
 University), and the Gaussian 82(TM) system (copyright 1983,
 Carnegie Mellon University). Gaussian is a federally registered
 trademark of Gaussian, Inc.
  
 This software contains proprietary and confidential information,
 including trade secrets, belonging to Gaussian, Inc.
  
 This software is provided under written license and may be
 used, copied, transmitted, or stored only in accord with that
 written license.
  
 The following legend is applicable only to US Government
 contracts under FAR:
  
                    RESTRICTED RIGHTS LEGEND
  
 Use, reproduction and disclosure by the US Government is
 subject to restrictions as set forth in subparagraphs (a)
 and (c) of the Commercial Computer Software - Restricted
 Rights clause in FAR 52.227-19.
  
 Gaussian, Inc.
 340 Quinnipiac St., Bldg. 40, Wallingford CT 06492
  
  
 ---------------------------------------------------------------
 Warning -- This program may not be used in any manner that
 competes with the business of Gaussian, Inc. or will provide
 assistance to any competitor of Gaussian, Inc.  The licensee
 of this program is prohibited from giving any competitor of
 Gaussian, Inc. access to this program.  By using this program,
 the user acknowledges that Gaussian, Inc. is engaged in the
 business of creating and licensing software in the field of
 computational chemistry and represents and warrants to the
 licensee that it is not a competitor of Gaussian, Inc. and that
 it will not use this program in any manner prohibited above.
 ---------------------------------------------------------------
  

 Cite this work as:
 Gaussian 16, Revision C.01,
 M. J. Frisch, G. W. Trucks, H. B. Schlegel, G. E. Scuseria, 
 M. A. Robb, J. R. Cheeseman, G. Scalmani, V. Barone, 
 G. A. Petersson, H. Nakatsuji, X. Li, M. Caricato, A. V. Marenich, 
 J. Bloino, B. G. Janesko, R. Gomperts, B. Mennucci, H. P. Hratchian, 
 J. V. Ortiz, A. F. Izmaylov, J. L. Sonnenberg, D. Williams-Young, 
 F. Ding, F. Lipparini, F. Egidi, J. Goings, B. Peng, A. Petrone, 
 T. Henderson, D. Ranasinghe, V. G. Zakrzewski, J. Gao, N. Rega, 
 G. Zheng, W. Liang, M. Hada, M. Ehara, K. Toyota, R. Fukuda, 
 J. Hasegawa, M. Ishida, T. Nakajima, Y. Honda, O. Kitao, H. Nakai, 
 T. Vreven, K. Throssell, J. A. Montgomery, Jr., J. E. Peralta, 
 F. Ogliaro, M. J. Bearpark, J. J. Heyd, E. N. Brothers, K. N. Kudin, 
 V. N. Staroverov, T. A. Keith, R. Kobayashi, J. Normand, 
 K. Raghavachari, A. P. Rendell, J. C. Burant, S. S. Iyengar, 
 J. Tomasi, M. Cossi, J. M. Millam, M. Klene, C. Adamo, R. Cammi, 
 J. W. Ochterski, R. L. Martin, K. Morokuma, O. Farkas, 
 J. B. Foresman, and D. J. Fox, Gaussian, Inc., Wallingford CT, 2019.
 
 ******************************************
 Gaussian 16:  ES64L-G16RevC.01  3-Jul-2019
                 8-Apr-2025 
 ******************************************
 %nprocs=16
 Will use up to   16 processors via shared memory.
 %mem=30GB
 %chk=BDE49_nonexpt_1421_mol1.chk
 ----------------------------------------------------------------------
 #t hf aug-cc-pvdz iop(5/13=1,5/36=2,99/5=2) pseudo=read geom=check gue
 ss=(read,tcheck) scf=(maxcycle=1)
 ----------------------------------------------------------------------
 -----
 title
 -----
 Structure from the checkpoint file:  "BDE49_nonexpt_1421_mol1.chk"
 Charge =  0 Multiplicity = 1
 Z-Matrix found in chk file.
 C,0,-2.333722,-0.770309,0.000207
 C,0,-1.083765,-1.38291,0.009536
 C,0,0.094272,-0.628857,0.016317
 C,0,-2.438158,0.619449,-0.000999
 C,0,-1.285661,1.392599,0.001955
 C,0,-0.024789,0.778077,0.002207
 H,0,-3.228837,-1.381835,0.000501
 H,0,-1.024567,-2.465247,0.019107
 P,0,1.747676,-1.445981,-0.116607
 H,0,-1.344667,2.474075,0.002508
 H,0,-3.410446,1.097005,-0.003615
 C,0,1.145087,1.602533,-0.000718
 N,0,2.093758,2.262618,-0.002083
 H,0,1.366477,-2.649088,0.527054
 H,0,2.33102,-0.887013,1.04711
 Recover connectivity data from disk.
                    Distance matrix (angstroms):
                    1          2          3          4          5
     1  C    0.000000
     2  C    1.392034   0.000000
     3  C    2.432164   1.398718   0.000000
     4  C    1.393677   2.417423   2.823432   0.000000
     5  C    2.403457   2.782853   2.447592   1.387811   0.000000
     6  C    2.780049   2.406522   1.412033   2.418579   1.402653
     7  H    1.084064   2.145091   3.407386   2.151816   3.387244
     8  H    2.141742   1.083997   2.150381   3.393228   3.866709
     9  P    4.138597   2.834951   1.849082   4.669108   4.156047
    10  H    3.391793   3.865806   3.420369   2.152992   1.083085
    11  H    2.155507   3.400529   3.906667   1.083241   2.145255
    12  C    4.210997   3.725689   2.466496   3.715656   2.439798
    13  N    5.366678   4.835976   3.515524   4.820609   3.489616
    14  H    4.183163   2.806193   2.441453   5.043552   4.862592
    15  H    4.782201   3.603225   2.476332   5.110090   4.401064
                    6          7          8          9         10
     6  C    0.000000
     7  H    3.864084   0.000000
     8  H    3.393964   2.456203   0.000000
     9  P    2.846433   4.978304   2.956798   0.000000
    10  H    2.149067   4.291636   4.949711   4.994358   0.000000
    11  H    3.400650   2.485487   4.287490   5.752023   2.482701
    12  C    1.431204   5.295060   4.610274   3.109659   2.637891
    13  N    2.586914   6.450741   5.663666   3.726472   3.444924
    14  H    3.735846   4.795842   2.451306   1.416714   5.819987
    15  H    3.068254   5.679106   3.848061   1.416677   5.089084
                   11         12         13         14         15
    11  H    0.000000
    12  C    4.583497   0.000000
    13  N    5.626270   1.155721   0.000000
    14  H    6.093752   4.289969   4.993374   0.000000
    15  H    6.164802   2.949953   3.328254   2.075020   0.000000
 Framework group  C1[X(C7H6NP)]
 Deg. of freedom    39
                         Standard orientation:                         
 ---------------------------------------------------------------------
 Center     Atomic      Atomic             Coordinates (Angstroms)
 Number     Number       Type             X           Y           Z
 ---------------------------------------------------------------------
      1          6           0       -2.333722   -0.770309    0.000207
      2          6           0       -1.083765   -1.382910    0.009536
      3          6           0        0.094272   -0.628857    0.016317
      4          6           0       -2.438158    0.619449   -0.000999
      5          6           0       -1.285661    1.392599    0.001955
      6          6           0       -0.024789    0.778077    0.002207
      7          1           0       -3.228837   -1.381835    0.000501
      8          1           0       -1.024567   -2.465247    0.019107
      9         15           0        1.747676   -1.445981   -0.116607
     10          1           0       -1.344667    2.474075    0.002508
     11          1           0       -3.410446    1.097005   -0.003615
     12          6           0        1.145087    1.602533   -0.000718
     13          7           0        2.093758    2.262618   -0.002083
     14          1           0        1.366477   -2.649088    0.527054
     15          1           0        2.331020   -0.887013    1.047110
 ---------------------------------------------------------------------
 Rotational constants (GHZ):           1.9277917           1.3426004           0.7957468
 ======================================================================================================
                                       Pseudopotential Parameters
 ======================================================================================================
  Center     Atomic      Valence      Angular      Power
  Number     Number     Electrons     Momentum     of R      Exponent        Coefficient   SO-Coeffient
 ======================================================================================================
    1          6            6
                                      G and up 
                                                     0        0.0000010       -0.00286759    0.00000000
                                                     2        0.1200000        0.03193960    0.00000000
                                                     2        0.1600000       -0.04027782    0.00000000
                                                     2        0.2600000        0.24782456    0.00000000
                                                     2        0.4000000       -0.62266671    0.00000000
                                                     2        0.7000000        0.35695227    0.00000000
                                      S - G
                                                     0        0.0000010       -0.06602313    0.00000000
                                                     2        0.1200000        1.47277455    0.00000000
                                                     2        0.1600000       -4.06924166    0.00000000
                                                     2        0.3000000        5.02952802    0.00000000
                                                     2        0.7000000       -5.65856978    0.00000000
                                                     2        1.7000000        8.57604414    0.00000000
                                      P - G
                                                     0        0.0000010        0.49434425    0.00000000
                                                     2        0.1200000       -1.37391547    0.00000000
                                                     2        0.1600000        3.65411806    0.00000000
                                                     2        0.2800000       -7.36479843    0.00000000
                                                     2        0.6000000       17.22091285    0.00000000
                                                     2        1.1000000      -23.50107827    0.00000000
                                                     2        3.0000000       16.29464063    0.00000000
                                      D - G
                                                     0        0.0000010       -0.28693103    0.00000000
                                                     2        0.1200000        0.12273044    0.00000000
                                                     2        0.3000000       -0.43416384    0.00000000
                                                     2        0.7000000        2.23358493    0.00000000
                                      F - G
                                                     0        0.0000010        0.07263570    0.00000000
                                                     2        0.1400000       -0.76152861    0.00000000
                                                     2        0.2200000        1.98045593    0.00000000
                                                     2        0.4000000       -2.42426427    0.00000000
                                                     2        0.7000000        0.52335237    0.00000000
    2          6            6
                                      G and up 
                                                     0        0.0000010       -0.00286759    0.00000000
                                                     2        0.1200000        0.03193960    0.00000000
                                                     2        0.1600000       -0.04027782    0.00000000
                                                     2        0.2600000        0.24782456    0.00000000
                                                     2        0.4000000       -0.62266671    0.00000000
                                                     2        0.7000000        0.35695227    0.00000000
                                      S - G
                                                     0        0.0000010       -0.06602313    0.00000000
                                                     2        0.1200000        1.47277455    0.00000000
                                                     2        0.1600000       -4.06924166    0.00000000
                                                     2        0.3000000        5.02952802    0.00000000
                                                     2        0.7000000       -5.65856978    0.00000000
                                                     2        1.7000000        8.57604414    0.00000000
                                      P - G
                                                     0        0.0000010        0.49434425    0.00000000
                                                     2        0.1200000       -1.37391547    0.00000000
                                                     2        0.1600000        3.65411806    0.00000000
                                                     2        0.2800000       -7.36479843    0.00000000
                                                     2        0.6000000       17.22091285    0.00000000
                                                     2        1.1000000      -23.50107827    0.00000000
                                                     2        3.0000000       16.29464063    0.00000000
                                      D - G
                                                     0        0.0000010       -0.28693103    0.00000000
                                                     2        0.1200000        0.12273044    0.00000000
                                                     2        0.3000000       -0.43416384    0.00000000
                                                     2        0.7000000        2.23358493    0.00000000
                                      F - G
                                                     0        0.0000010        0.07263570    0.00000000
                                                     2        0.1400000       -0.76152861    0.00000000
                                                     2        0.2200000        1.98045593    0.00000000
                                                     2        0.4000000       -2.42426427    0.00000000
                                                     2        0.7000000        0.52335237    0.00000000
    3          6            6
                                      G and up 
                                                     0        0.0000010       -0.00286759    0.00000000
                                                     2        0.1200000        0.03193960    0.00000000
                                                     2        0.1600000       -0.04027782    0.00000000
                                                     2        0.2600000        0.24782456    0.00000000
                                                     2        0.4000000       -0.62266671    0.00000000
                                                     2        0.7000000        0.35695227    0.00000000
                                      S - G
                                                     0        0.0000010       -0.06602313    0.00000000
                                                     2        0.1200000        1.47277455    0.00000000
                                                     2        0.1600000       -4.06924166    0.00000000
                                                     2        0.3000000        5.02952802    0.00000000
                                                     2        0.7000000       -5.65856978    0.00000000
                                                     2        1.7000000        8.57604414    0.00000000
                                      P - G
                                                     0        0.0000010        0.49434425    0.00000000
                                                     2        0.1200000       -1.37391547    0.00000000
                                                     2        0.1600000        3.65411806    0.00000000
                                                     2        0.2800000       -7.36479843    0.00000000
                                                     2        0.6000000       17.22091285    0.00000000
                                                     2        1.1000000      -23.50107827    0.00000000
                                                     2        3.0000000       16.29464063    0.00000000
                                      D - G
                                                     0        0.0000010       -0.28693103    0.00000000
                                                     2        0.1200000        0.12273044    0.00000000
                                                     2        0.3000000       -0.43416384    0.00000000
                                                     2        0.7000000        2.23358493    0.00000000
                                      F - G
                                                     0        0.0000010        0.07263570    0.00000000
                                                     2        0.1400000       -0.76152861    0.00000000
                                                     2        0.2200000        1.98045593    0.00000000
                                                     2        0.4000000       -2.42426427    0.00000000
                                                     2        0.7000000        0.52335237    0.00000000
    4          6            6
                                      G and up 
                                                     0        0.0000010       -0.00286759    0.00000000
                                                     2        0.1200000        0.03193960    0.00000000
                                                     2        0.1600000       -0.04027782    0.00000000
                                                     2        0.2600000        0.24782456    0.00000000
                                                     2        0.4000000       -0.62266671    0.00000000
                                                     2        0.7000000        0.35695227    0.00000000
                                      S - G
                                                     0        0.0000010       -0.06602313    0.00000000
                                                     2        0.1200000        1.47277455    0.00000000
                                                     2        0.1600000       -4.06924166    0.00000000
                                                     2        0.3000000        5.02952802    0.00000000
                                                     2        0.7000000       -5.65856978    0.00000000
                                                     2        1.7000000        8.57604414    0.00000000
                                      P - G
                                                     0        0.0000010        0.49434425    0.00000000
                                                     2        0.1200000       -1.37391547    0.00000000
                                                     2        0.1600000        3.65411806    0.00000000
                                                     2        0.2800000       -7.36479843    0.00000000
                                                     2        0.6000000       17.22091285    0.00000000
                                                     2        1.1000000      -23.50107827    0.00000000
                                                     2        3.0000000       16.29464063    0.00000000
                                      D - G
                                                     0        0.0000010       -0.28693103    0.00000000
                                                     2        0.1200000        0.12273044    0.00000000
                                                     2        0.3000000       -0.43416384    0.00000000
                                                     2        0.7000000        2.23358493    0.00000000
                                      F - G
                                                     0        0.0000010        0.07263570    0.00000000
                                                     2        0.1400000       -0.76152861    0.00000000
                                                     2        0.2200000        1.98045593    0.00000000
                                                     2        0.4000000       -2.42426427    0.00000000
                                                     2        0.7000000        0.52335237    0.00000000
    5          6            6
                                      G and up 
                                                     0        0.0000010       -0.00286759    0.00000000
                                                     2        0.1200000        0.03193960    0.00000000
                                                     2        0.1600000       -0.04027782    0.00000000
                                                     2        0.2600000        0.24782456    0.00000000
                                                     2        0.4000000       -0.62266671    0.00000000
                                                     2        0.7000000        0.35695227    0.00000000
                                      S - G
                                                     0        0.0000010       -0.06602313    0.00000000
                                                     2        0.1200000        1.47277455    0.00000000
                                                     2        0.1600000       -4.06924166    0.00000000
                                                     2        0.3000000        5.02952802    0.00000000
                                                     2        0.7000000       -5.65856978    0.00000000
                                                     2        1.7000000        8.57604414    0.00000000
                                      P - G
                                                     0        0.0000010        0.49434425    0.00000000
                                                     2        0.1200000       -1.37391547    0.00000000
                                                     2        0.1600000        3.65411806    0.00000000
                                                     2        0.2800000       -7.36479843    0.00000000
                                                     2        0.6000000       17.22091285    0.00000000
                                                     2        1.1000000      -23.50107827    0.00000000
                                                     2        3.0000000       16.29464063    0.00000000
                                      D - G
                                                     0        0.0000010       -0.28693103    0.00000000
                                                     2        0.1200000        0.12273044    0.00000000
                                                     2        0.3000000       -0.43416384    0.00000000
                                                     2        0.7000000        2.23358493    0.00000000
                                      F - G
                                                     0        0.0000010        0.07263570    0.00000000
                                                     2        0.1400000       -0.76152861    0.00000000
                                                     2        0.2200000        1.98045593    0.00000000
                                                     2        0.4000000       -2.42426427    0.00000000
                                                     2        0.7000000        0.52335237    0.00000000
    6          6            6
                                      G and up 
                                                     0        0.0000010       -0.00286759    0.00000000
                                                     2        0.1200000        0.03193960    0.00000000
                                                     2        0.1600000       -0.04027782    0.00000000
                                                     2        0.2600000        0.24782456    0.00000000
                                                     2        0.4000000       -0.62266671    0.00000000
                                                     2        0.7000000        0.35695227    0.00000000
                                      S - G
                                                     0        0.0000010       -0.06602313    0.00000000
                                                     2        0.1200000        1.47277455    0.00000000
                                                     2        0.1600000       -4.06924166    0.00000000
                                                     2        0.3000000        5.02952802    0.00000000
                                                     2        0.7000000       -5.65856978    0.00000000
                                                     2        1.7000000        8.57604414    0.00000000
                                      P - G
                                                     0        0.0000010        0.49434425    0.00000000
                                                     2        0.1200000       -1.37391547    0.00000000
                                                     2        0.1600000        3.65411806    0.00000000
                                                     2        0.2800000       -7.36479843    0.00000000
                                                     2        0.6000000       17.22091285    0.00000000
                                                     2        1.1000000      -23.50107827    0.00000000
                                                     2        3.0000000       16.29464063    0.00000000
                                      D - G
                                                     0        0.0000010       -0.28693103    0.00000000
                                                     2        0.1200000        0.12273044    0.00000000
                                                     2        0.3000000       -0.43416384    0.00000000
                                                     2        0.7000000        2.23358493    0.00000000
                                      F - G
                                                     0        0.0000010        0.07263570    0.00000000
                                                     2        0.1400000       -0.76152861    0.00000000
                                                     2        0.2200000        1.98045593    0.00000000
                                                     2        0.4000000       -2.42426427    0.00000000
                                                     2        0.7000000        0.52335237    0.00000000
    7          1            1
                                      F and up 
                                                     0        0.0000010        0.00072061    0.00000000
                                                     2        0.1200000        0.03832357    0.00000000
                                                     2        0.1400000       -0.08683256    0.00000000
                                                     2        0.1800000        0.09312970    0.00000000
                                                     2        0.2800000       -0.02532572    0.00000000
                                                     2        0.4000000       -0.09430787    0.00000000
                                                     2        0.7000000        0.42710831    0.00000000
                                                     2        1.2000000       -2.11746981    0.00000000
                                      S - F
                                                     0        0.0000010        0.14449603    0.00000000
                                                     2        0.1200000       -0.56378993    0.00000000
                                                     2        0.1400000        0.63941249    0.00000000
                                                     2        0.2600000       -0.58461015    0.00000000
                                                     2        0.5000000        1.00157293    0.00000000
                                                     2        1.8000000       -0.14135838    0.00000000
                                      P - F
                                                     0        0.0000010       -0.09353646    0.00000000
                                                     2        0.1200000        0.31768975    0.00000000
                                                     2        0.2000000       -0.71747951    0.00000000
                                                     2        0.4000000        0.65752308    0.00000000
                                                     2        1.7000000        2.94052587    0.00000000
                                      D - F
                                                     0        0.0000010       -0.04491202    0.00000000
                                                     2        0.1200000       -0.02862031    0.00000000
                                                     2        0.1800000       -0.21515263    0.00000000
                                                     2        0.3000000        0.80560647    0.00000000
                                                     2        0.4000000        0.47351754    0.00000000
                                                     2        0.7000000       -4.57051794    0.00000000
                                                     2        1.6000000       18.53737826    0.00000000
    8          1            1
                                      F and up 
                                                     0        0.0000010        0.00072061    0.00000000
                                                     2        0.1200000        0.03832357    0.00000000
                                                     2        0.1400000       -0.08683256    0.00000000
                                                     2        0.1800000        0.09312970    0.00000000
                                                     2        0.2800000       -0.02532572    0.00000000
                                                     2        0.4000000       -0.09430787    0.00000000
                                                     2        0.7000000        0.42710831    0.00000000
                                                     2        1.2000000       -2.11746981    0.00000000
                                      S - F
                                                     0        0.0000010        0.14449603    0.00000000
                                                     2        0.1200000       -0.56378993    0.00000000
                                                     2        0.1400000        0.63941249    0.00000000
                                                     2        0.2600000       -0.58461015    0.00000000
                                                     2        0.5000000        1.00157293    0.00000000
                                                     2        1.8000000       -0.14135838    0.00000000
                                      P - F
                                                     0        0.0000010       -0.09353646    0.00000000
                                                     2        0.1200000        0.31768975    0.00000000
                                                     2        0.2000000       -0.71747951    0.00000000
                                                     2        0.4000000        0.65752308    0.00000000
                                                     2        1.7000000        2.94052587    0.00000000
                                      D - F
                                                     0        0.0000010       -0.04491202    0.00000000
                                                     2        0.1200000       -0.02862031    0.00000000
                                                     2        0.1800000       -0.21515263    0.00000000
                                                     2        0.3000000        0.80560647    0.00000000
                                                     2        0.4000000        0.47351754    0.00000000
                                                     2        0.7000000       -4.57051794    0.00000000
                                                     2        1.6000000       18.53737826    0.00000000
    9         15           15
                                      G and up 
                                                     0        0.0000010       -0.00145681    0.00000000
                                                     2        0.1200000        0.02697735    0.00000000
                                                     2        0.1400000        0.02594622    0.00000000
                                                     2        0.2600000       -0.05991007    0.00000000
                                                     2        0.6000000       -2.12394768    0.00000000
                                                     2        1.6000000       12.29328771    0.00000000
                                      S - G
                                                     0        0.0000010       -0.08137818    0.00000000
                                                     2        0.1200000        0.02366916    0.00000000
                                                     2        0.2600000       -0.53803258    0.00000000
                                                     2        1.1000000        1.71477614    0.00000000
                                      P - G
                                                     0        0.0000010        0.47741067    0.00000000
                                                     2        0.1600000       -1.08317867    0.00000000
                                                     2        0.3000000        2.71093215    0.00000000
                                                     2        0.8000000       -7.73495474    0.00000000
                                      D - G
                                                     0        0.0000010        0.42779013    0.00000000
                                                     2        0.1200000       -0.35854051    0.00000000
                                                     2        0.4000000        1.12806605    0.00000000
                                      F - G
                                                     0        0.0000010       -0.49842471    0.00000000
                                                     2        0.1400000        0.07039594    0.00000000
                                                     2        0.2200000        0.02972181    0.00000000
   10          1            1
                                      F and up 
                                                     0        0.0000010        0.00072061    0.00000000
                                                     2        0.1200000        0.03832357    0.00000000
                                                     2        0.1400000       -0.08683256    0.00000000
                                                     2        0.1800000        0.09312970    0.00000000
                                                     2        0.2800000       -0.02532572    0.00000000
                                                     2        0.4000000       -0.09430787    0.00000000
                                                     2        0.7000000        0.42710831    0.00000000
                                                     2        1.2000000       -2.11746981    0.00000000
                                      S - F
                                                     0        0.0000010        0.14449603    0.00000000
                                                     2        0.1200000       -0.56378993    0.00000000
                                                     2        0.1400000        0.63941249    0.00000000
                                                     2        0.2600000       -0.58461015    0.00000000
                                                     2        0.5000000        1.00157293    0.00000000
                                                     2        1.8000000       -0.14135838    0.00000000
                                      P - F
                                                     0        0.0000010       -0.09353646    0.00000000
                                                     2        0.1200000        0.31768975    0.00000000
                                                     2        0.2000000       -0.71747951    0.00000000
                                                     2        0.4000000        0.65752308    0.00000000
                                                     2        1.7000000        2.94052587    0.00000000
                                      D - F
                                                     0        0.0000010       -0.04491202    0.00000000
                                                     2        0.1200000       -0.02862031    0.00000000
                                                     2        0.1800000       -0.21515263    0.00000000
                                                     2        0.3000000        0.80560647    0.00000000
                                                     2        0.4000000        0.47351754    0.00000000
                                                     2        0.7000000       -4.57051794    0.00000000
                                                     2        1.6000000       18.53737826    0.00000000
   11          1            1
                                      F and up 
                                                     0        0.0000010        0.00072061    0.00000000
                                                     2        0.1200000        0.03832357    0.00000000
                                                     2        0.1400000       -0.08683256    0.00000000
                                                     2        0.1800000        0.09312970    0.00000000
                                                     2        0.2800000       -0.02532572    0.00000000
                                                     2        0.4000000       -0.09430787    0.00000000
                                                     2        0.7000000        0.42710831    0.00000000
                                                     2        1.2000000       -2.11746981    0.00000000
                                      S - F
                                                     0        0.0000010        0.14449603    0.00000000
                                                     2        0.1200000       -0.56378993    0.00000000
                                                     2        0.1400000        0.63941249    0.00000000
                                                     2        0.2600000       -0.58461015    0.00000000
                                                     2        0.5000000        1.00157293    0.00000000
                                                     2        1.8000000       -0.14135838    0.00000000
                                      P - F
                                                     0        0.0000010       -0.09353646    0.00000000
                                                     2        0.1200000        0.31768975    0.00000000
                                                     2        0.2000000       -0.71747951    0.00000000
                                                     2        0.4000000        0.65752308    0.00000000
                                                     2        1.7000000        2.94052587    0.00000000
                                      D - F
                                                     0        0.0000010       -0.04491202    0.00000000
                                                     2        0.1200000       -0.02862031    0.00000000
                                                     2        0.1800000       -0.21515263    0.00000000
                                                     2        0.3000000        0.80560647    0.00000000
                                                     2        0.4000000        0.47351754    0.00000000
                                                     2        0.7000000       -4.57051794    0.00000000
                                                     2        1.6000000       18.53737826    0.00000000
   12          6            6
                                      G and up 
                                                     0        0.0000010       -0.00286759    0.00000000
                                                     2        0.1200000        0.03193960    0.00000000
                                                     2        0.1600000       -0.04027782    0.00000000
                                                     2        0.2600000        0.24782456    0.00000000
                                                     2        0.4000000       -0.62266671    0.00000000
                                                     2        0.7000000        0.35695227    0.00000000
                                      S - G
                                                     0        0.0000010       -0.06602313    0.00000000
                                                     2        0.1200000        1.47277455    0.00000000
                                                     2        0.1600000       -4.06924166    0.00000000
                                                     2        0.3000000        5.02952802    0.00000000
                                                     2        0.7000000       -5.65856978    0.00000000
                                                     2        1.7000000        8.57604414    0.00000000
                                      P - G
                                                     0        0.0000010        0.49434425    0.00000000
                                                     2        0.1200000       -1.37391547    0.00000000
                                                     2        0.1600000        3.65411806    0.00000000
                                                     2        0.2800000       -7.36479843    0.00000000
                                                     2        0.6000000       17.22091285    0.00000000
                                                     2        1.1000000      -23.50107827    0.00000000
                                                     2        3.0000000       16.29464063    0.00000000
                                      D - G
                                                     0        0.0000010       -0.28693103    0.00000000
                                                     2        0.1200000        0.12273044    0.00000000
                                                     2        0.3000000       -0.43416384    0.00000000
                                                     2        0.7000000        2.23358493    0.00000000
                                      F - G
                                                     0        0.0000010        0.07263570    0.00000000
                                                     2        0.1400000       -0.76152861    0.00000000
                                                     2        0.2200000        1.98045593    0.00000000
                                                     2        0.4000000       -2.42426427    0.00000000
                                                     2        0.7000000        0.52335237    0.00000000
   13          7            7
                                      G and up 
                                                     0        0.0000010        0.00420138    0.00000000
                                                     2        0.1200000        0.05872431    0.00000000
                                                     2        0.1400000       -0.08436978    0.00000000
                                                     2        0.2000000        0.05409159    0.00000000
                                                     2        0.2600000        0.14199713    0.00000000
                                                     2        0.6000000       -0.79062770    0.00000000
                                                     2        0.7000000       -0.14441060    0.00000000
                                                     2        1.5000000        0.73772979    0.00000000
                                      S - G
                                                     0        0.0000010       -0.03094411    0.00000000
                                                     2        0.1200000        0.65332522    0.00000000
                                                     2        0.1800000       -1.38149133    0.00000000
                                                     2        1.3000000        3.29267299    0.00000000
                                      P - G
                                                     0        0.0000010        0.07303105    0.00000000
                                                     2        0.1200000        0.23145115    0.00000000
                                                     2        0.2000000       -1.20679699    0.00000000
                                                     2        0.4000000        1.75088447    0.00000000
                                                     2        1.2000000       -0.67486559    0.00000000
                                      D - G
                                                     0        0.0000010        0.07560739    0.00000000
                                                     2        0.3000000       -0.68679114    0.00000000
                                                     2        0.9000000        3.60133241    0.00000000
                                      F - G
                                                     0        0.0000010       -0.18221184    0.00000000
                                                     2        0.1200000       -0.39369067    0.00000000
                                                     2        0.1800000        0.72091725    0.00000000
                                                     2        0.6000000        0.15946111    0.00000000
   14          1            1
                                      F and up 
                                                     0        0.0000010        0.00072061    0.00000000
                                                     2        0.1200000        0.03832357    0.00000000
                                                     2        0.1400000       -0.08683256    0.00000000
                                                     2        0.1800000        0.09312970    0.00000000
                                                     2        0.2800000       -0.02532572    0.00000000
                                                     2        0.4000000       -0.09430787    0.00000000
                                                     2        0.7000000        0.42710831    0.00000000
                                                     2        1.2000000       -2.11746981    0.00000000
                                      S - F
                                                     0        0.0000010        0.14449603    0.00000000
                                                     2        0.1200000       -0.56378993    0.00000000
                                                     2        0.1400000        0.63941249    0.00000000
                                                     2        0.2600000       -0.58461015    0.00000000
                                                     2        0.5000000        1.00157293    0.00000000
                                                     2        1.8000000       -0.14135838    0.00000000
                                      P - F
                                                     0        0.0000010       -0.09353646    0.00000000
                                                     2        0.1200000        0.31768975    0.00000000
                                                     2        0.2000000       -0.71747951    0.00000000
                                                     2        0.4000000        0.65752308    0.00000000
                                                     2        1.7000000        2.94052587    0.00000000
                                      D - F
                                                     0        0.0000010       -0.04491202    0.00000000
                                                     2        0.1200000       -0.02862031    0.00000000
                                                     2        0.1800000       -0.21515263    0.00000000
                                                     2        0.3000000        0.80560647    0.00000000
                                                     2        0.4000000        0.47351754    0.00000000
                                                     2        0.7000000       -4.57051794    0.00000000
                                                     2        1.6000000       18.53737826    0.00000000
   15          1            1
                                      F and up 
                                                     0        0.0000010        0.00072061    0.00000000
                                                     2        0.1200000        0.03832357    0.00000000
                                                     2        0.1400000       -0.08683256    0.00000000
                                                     2        0.1800000        0.09312970    0.00000000
                                                     2        0.2800000       -0.02532572    0.00000000
                                                     2        0.4000000       -0.09430787    0.00000000
                                                     2        0.7000000        0.42710831    0.00000000
                                                     2        1.2000000       -2.11746981    0.00000000
                                      S - F
                                                     0        0.0000010        0.14449603    0.00000000
                                                     2        0.1200000       -0.56378993    0.00000000
                                                     2        0.1400000        0.63941249    0.00000000
                                                     2        0.2600000       -0.58461015    0.00000000
                                                     2        0.5000000        1.00157293    0.00000000
                                                     2        1.8000000       -0.14135838    0.00000000
                                      P - F
                                                     0        0.0000010       -0.09353646    0.00000000
                                                     2        0.1200000        0.31768975    0.00000000
                                                     2        0.2000000       -0.71747951    0.00000000
                                                     2        0.4000000        0.65752308    0.00000000
                                                     2        1.7000000        2.94052587    0.00000000
                                      D - F
                                                     0        0.0000010       -0.04491202    0.00000000
                                                     2        0.1200000       -0.02862031    0.00000000
                                                     2        0.1800000       -0.21515263    0.00000000
                                                     2        0.3000000        0.80560647    0.00000000
                                                     2        0.4000000        0.47351754    0.00000000
                                                     2        0.7000000       -4.57051794    0.00000000
                                                     2        1.6000000       18.53737826    0.00000000
 ======================================================================================================
   265 basis functions,   491 primitive gaussians,   283 cartesian basis functions
    35 alpha electrons       35 beta electrons
       nuclear repulsion energy       444.8486955471 Hartrees.
 NAtoms=   15 NActive=   15 NUniq=   15 SFac= 1.00D+00 NAtFMM=   60 NAOKFM=F Big=F
   1 Symmetry operations used in ECPInt.
 ECPInt:  NShTT=    6441 NPrTT=   36815 LenC2=    6409 LenP2D=   26264.
 LDataN:  DoStor=T MaxTD1= 6 Len=  172
 Initial guess from the checkpoint file:  "BDE49_nonexpt_1421_mol1.chk"
 B after Tr=    -0.000000   -0.000000   -0.000000
         Rot=    1.000000    0.000000   -0.000000   -0.000000 Ang=  -0.00 deg.
 >>>>>>>>>> Convergence criterion not met.
 SCF Done:  E(RHF) =  -665.471862677     A.U. after    2 cycles
            NFock=  1  Conv=0.51D+01     -V/T= 2.1249

 **********************************************************************

            Population analysis using the SCF Density.

 **********************************************************************

 Orbital symmetries:
       Occupied  (A) (A) (A) (A) (A) (A) (A) (A) (A) (A) (A) (A)
                 (A) (A) (A) (A) (A) (A) (A) (A) (A) (A) (A) (A)
                 (A) (A) (A) (A) (A) (A) (A) (A) (A) (A) (A)
       Virtual   (A) (A) (A) (A) (A) (A) (A) (A) (A) (A) (A) (A)
                 (A) (A) (A) (A) (A) (A) (A) (A) (A) (A) (A) (A)
                 (A) (A) (A) (A) (A) (A) (A) (A) (A) (A) (A) (A)
                 (A) (A) (A) (A) (A) (A) (A) (A) (A) (A) (A) (A)
                 (A) (A) (A) (A) (A) (A) (A) (A) (A) (A) (A) (A)
                 (A) (A) (A) (A) (A) (A) (A) (A) (A) (A) (A) (A)
                 (A) (A) (A) (A) (A) (A) (A) (A) (A) (A) (A) (A)
                 (A) (A) (A) (A) (A) (A) (A) (A) (A) (A) (A) (A)
                 (A) (A) (A) (A) (A) (A) (A) (A) (A) (A) (A) (A)
                 (A) (A) (A) (A) (A) (A) (A) (A) (A) (A) (A) (A)
                 (A) (A) (A) (A) (A) (A) (A) (A) (A) (A) (A) (A)
                 (A) (A) (A) (A) (A) (A) (A) (A) (A) (A) (A) (A)
                 (A) (A) (A) (A) (A) (A) (A) (A) (A) (A) (A) (A)
                 (A) (A) (A) (A) (A) (A) (A) (A) (A) (A) (A) (A)
                 (A) (A) (A) (A) (A) (A) (A) (A) (A) (A) (A) (A)
                 (A) (A) (A) (A) (A) (A) (A) (A) (A) (A) (A) (A)
                 (A) (A) (A) (A) (A) (A) (A) (A) (A) (A) (A) (A)
                 (A) (A) (A) (A) (A) (A) (A) (A) (A) (A) (A) (A)
                 (A) (A) (A) (A) (A) (A) (A) (A) (A) (A) (A) (A)
                 (A) (A)
 The electronic state is 1-A.
 Alpha  occ. eigenvalues -- -105.20026 -15.76554 -11.55028 -11.48485 -11.46915
 Alpha  occ. eigenvalues --  -11.44931 -11.43929 -11.43671 -11.39497  -2.77004
 Alpha  occ. eigenvalues --   -1.52860  -1.47564  -1.44799  -1.37965  -1.29266
 Alpha  occ. eigenvalues --   -1.13837  -1.11155  -0.92330  -0.88652  -0.78718
 Alpha  occ. eigenvalues --   -0.73712  -0.66998  -0.62695  -0.61505  -0.55644
 Alpha  occ. eigenvalues --   -0.54718  -0.51954  -0.48083  -0.46970  -0.44223
 Alpha  occ. eigenvalues --   -0.36663  -0.34401  -0.27201  -0.25761  -0.03917
 Alpha virt. eigenvalues --    0.02898   0.04608   0.04805   0.06394   0.06612
 Alpha virt. eigenvalues --    0.07466   0.07818   0.08554   0.09629   0.10625
 Alpha virt. eigenvalues --    0.10925   0.11858   0.12588   0.12820   0.12901
 Alpha virt. eigenvalues --    0.13151   0.13843   0.14514   0.15206   0.15580
 Alpha virt. eigenvalues --    0.16105   0.16325   0.16537   0.17735   0.17986
 Alpha virt. eigenvalues --    0.18693   0.18716   0.19547   0.20435   0.20904
 Alpha virt. eigenvalues --    0.21814   0.23023   0.23133   0.24069   0.24522
 Alpha virt. eigenvalues --    0.25121   0.25715   0.26221   0.28017   0.28652
 Alpha virt. eigenvalues --    0.29880   0.30371   0.31381   0.31523   0.32608
 Alpha virt. eigenvalues --    0.32825   0.33665   0.34032   0.34556   0.36873
 Alpha virt. eigenvalues --    0.38241   0.38420   0.38815   0.39096   0.39390
 Alpha virt. eigenvalues --    0.40963   0.41514   0.41735   0.43060   0.43977
 Alpha virt. eigenvalues --    0.44792   0.45530   0.46524   0.48093   0.48951
 Alpha virt. eigenvalues --    0.50039   0.51577   0.52736   0.53756   0.55191
 Alpha virt. eigenvalues --    0.56397   0.57012   0.57314   0.59568   0.59885
 Alpha virt. eigenvalues --    0.61095   0.61742   0.62328   0.62703   0.63647
 Alpha virt. eigenvalues --    0.64445   0.65382   0.65916   0.66645   0.67537
 Alpha virt. eigenvalues --    0.67694   0.69106   0.70626   0.70867   0.72167
 Alpha virt. eigenvalues --    0.72583   0.73360   0.73870   0.74799   0.75644
 Alpha virt. eigenvalues --    0.76248   0.76867   0.77578   0.78988   0.81151
 Alpha virt. eigenvalues --    0.83446   0.85871   0.87094   0.89489   0.90690
 Alpha virt. eigenvalues --    0.90997   0.92428   0.93739   0.94438   0.94905
 Alpha virt. eigenvalues --    0.96515   0.98333   0.99088   0.99197   1.00519
 Alpha virt. eigenvalues --    1.02752   1.04559   1.05760   1.07470   1.09908
 Alpha virt. eigenvalues --    1.11111   1.12400   1.13456   1.14402   1.15515
 Alpha virt. eigenvalues --    1.16066   1.16915   1.20826   1.24545   1.25424
 Alpha virt. eigenvalues --    1.27702   1.32032   1.33606   1.35206   1.38795
 Alpha virt. eigenvalues --    1.40413   1.42321   1.44498   1.46779   1.53516
 Alpha virt. eigenvalues --    1.54867   1.59646   1.65166   1.65809   1.66409
 Alpha virt. eigenvalues --    1.68640   1.69789   1.72786   1.73397   1.74078
 Alpha virt. eigenvalues --    1.76455   1.77336   1.80831   1.83700   1.85662
 Alpha virt. eigenvalues --    1.86301   1.86685   1.88489   1.88631   1.89868
 Alpha virt. eigenvalues --    1.91442   1.91757   1.93807   1.95117   1.96236
 Alpha virt. eigenvalues --    1.97239   2.00314   2.04322   2.06035   2.06638
 Alpha virt. eigenvalues --    2.07787   2.09928   2.11224   2.12504   2.13286
 Alpha virt. eigenvalues --    2.14575   2.16693   2.18075   2.19148   2.21288
 Alpha virt. eigenvalues --    2.21547   2.23158   2.23706   2.27588   2.28633
 Alpha virt. eigenvalues --    2.31449   2.35008   2.38277   2.38746   2.39390
 Alpha virt. eigenvalues --    2.41059   2.45126   2.48212   2.49248   2.50057
 Alpha virt. eigenvalues --    2.54267   2.54617   2.55367   2.59007   2.64095
 Alpha virt. eigenvalues --    2.64211   2.69792   2.75685   2.76702   2.80453
 Alpha virt. eigenvalues --    2.89270   2.94590   3.02655   3.02773   3.05276
 Alpha virt. eigenvalues --    3.07388   3.12746   3.28498   3.35994   3.36284
 Alpha virt. eigenvalues --    3.39076   3.48147   3.54363   3.58984   3.70553
 Alpha virt. eigenvalues --    3.75649   3.85979   3.87201   3.95627   4.01870
 Alpha virt. eigenvalues --    4.08586   4.21685   4.25173   4.36523   4.86885
          Condensed to atoms (all electrons):
 Mulliken charges:
               1
     1  C   -1.697172
     2  C   -2.961909
     3  C    0.726448
     4  C   -1.650223
     5  C   -1.996660
     6  C    4.344701
     7  H    1.540666
     8  H    1.847486
     9  P    1.148842
    10  H    1.711652
    11  H    1.509843
    12  C   -1.217306
    13  N   -2.137323
    14  H   -0.748574
    15  H   -0.420471
 Sum of Mulliken charges =   0.00000
 Mulliken charges with hydrogens summed into heavy atoms:
               1
     1  C   -0.156506
     2  C   -1.114423
     3  C    0.726448
     4  C   -0.140380
     5  C   -0.285008
     6  C    4.344701
     9  P   -0.020203
    12  C   -1.217306
    13  N   -2.137323
 Electronic spatial extent (au):  <R**2>=           1431.4259
 Charge=              0.0000 electrons
 Dipole moment (field-independent basis, Debye):
    X=             -1.4514    Y=             -2.0034    Z=             -3.1145  Tot=              3.9775

 Test job not archived.
 1\1\GINC-SE250\SP\RHF\Aug-CC-pVDZ\C7H6N1P1\OHZDE\08-Apr-2025\0\\#t hf 
 aug-cc-pvdz iop(5/13=1,5/36=2,99/5=2) pseudo=read geom=check guess=(re
 ad,tcheck) scf=(maxcycle=1)\\title\\0,1\C,0,-2.333722,-0.770309,0.0002
 07\C,0,-1.083765,-1.38291,0.009536\C,0,0.094272,-0.628857,0.016317\C,0
 ,-2.438158,0.619449,-0.000999\C,0,-1.285661,1.392599,0.001955\C,0,-0.0
 24789,0.778077,0.002207\H,0,-3.228837,-1.381835,0.000501\H,0,-1.024567
 ,-2.465247,0.019107\P,0,1.747676,-1.445981,-0.116607\H,0,-1.344667,2.4
 74075,0.002508\H,0,-3.410446,1.097005,-0.003615\C,0,1.145087,1.602533,
 -0.000718\N,0,2.093758,2.262618,-0.002083\H,0,1.366477,-2.649088,0.527
 054\H,0,2.33102,-0.887013,1.04711\\Version=ES64L-G16RevC.01\State=1-A\
 HF=-665.4718627\RMSD=5.117e+00\Dipole=-0.5710187,-0.7882025,-1.2253545
 \Quadrupole=3.4683366,0.4757922,-3.9441287,-5.3262585,-1.7049173,3.199
 4192\PG=C01 [X(C7H6N1P1)]\\@


 IN THE UNIVERSE THE DIFFICULT THINGS ARE DONE AS IF THEY WERE EASY.

                                                          -- LAO-TSU
 Job cpu time:       0 days  0 hours  1 minutes 29.5 seconds.
 Elapsed time:       0 days  0 hours  0 minutes  6.5 seconds.
 File lengths (MBytes):  RWF=     14 Int=      0 D2E=      0 Chk=     10 Scr=      1
 Normal termination of Gaussian 16 at Tue Apr  8 23:34:05 2025.
