 Entering Gaussian System, Link 0=g16
 Input=BDE49_nonexpt_2415_mol1.gjf
 Output=BDE49_nonexpt_2415_mol1.log
 Initial command:
 /arc/software/Gaussian/g16.c01/l1.exe "/tmp/slurm/4852230/Gau-1999213.inp" -scrdir="/tmp/slurm/4852230/"
 Entering Link 1 = /arc/software/Gaussian/g16.c01/l1.exe PID=   1999214.
  
 Copyright (c) 1988-2019, Gaussian, Inc.  All Rights Reserved.
  
 This is part of the Gaussian(R) 16 program.  It is based on
 the Gaussian(R) 09 system (copyright 2009, Gaussian, Inc.),
 the Gaussian(R) 03 system (copyright 2003, Gaussian, Inc.),
 the Gaussian(R) 98 system (copyright 1998, Gaussian, Inc.),
 the Gaussian(R) 94 system (copyright 1995, Gaussian, Inc.),
 the Gaussian 92(TM) system (copyright 1992, Gaussian, Inc.),
 the Gaussian 90(TM) system (copyright 1990, Gaussian, Inc.),
 the Gaussian 88(TM) system (copyright 1988, Gaussian, Inc.),
 the Gaussian 86(TM) system (copyright 1986, Carnegie Mellon
 University), and the Gaussian 82(TM) system (copyright 1983,
 Carnegie Mellon University). Gaussian is a federally registered
 trademark of Gaussian, Inc.
  
 This software contains proprietary and confidential information,
 including trade secrets, belonging to Gaussian, Inc.
  
 This software is provided under written license and may be
 used, copied, transmitted, or stored only in accord with that
 written license.
  
 The following legend is applicable only to US Government
 contracts under FAR:
  
                    RESTRICTED RIGHTS LEGEND
  
 Use, reproduction and disclosure by the US Government is
 subject to restrictions as set forth in subparagraphs (a)
 and (c) of the Commercial Computer Software - Restricted
 Rights clause in FAR 52.227-19.
  
 Gaussian, Inc.
 340 Quinnipiac St., Bldg. 40, Wallingford CT 06492
  
  
 ---------------------------------------------------------------
 Warning -- This program may not be used in any manner that
 competes with the business of Gaussian, Inc. or will provide
 assistance to any competitor of Gaussian, Inc.  The licensee
 of this program is prohibited from giving any competitor of
 Gaussian, Inc. access to this program.  By using this program,
 the user acknowledges that Gaussian, Inc. is engaged in the
 business of creating and licensing software in the field of
 computational chemistry and represents and warrants to the
 licensee that it is not a competitor of Gaussian, Inc. and that
 it will not use this program in any manner prohibited above.
 ---------------------------------------------------------------
  

 Cite this work as:
 Gaussian 16, Revision C.01,
 M. J. Frisch, G. W. Trucks, H. B. Schlegel, G. E. Scuseria, 
 M. A. Robb, J. R. Cheeseman, G. Scalmani, V. Barone, 
 G. A. Petersson, H. Nakatsuji, X. Li, M. Caricato, A. V. Marenich, 
 J. Bloino, B. G. Janesko, R. Gomperts, B. Mennucci, H. P. Hratchian, 
 J. V. Ortiz, A. F. Izmaylov, J. L. Sonnenberg, D. Williams-Young, 
 F. Ding, F. Lipparini, F. Egidi, J. Goings, B. Peng, A. Petrone, 
 T. Henderson, D. Ranasinghe, V. G. Zakrzewski, J. Gao, N. Rega, 
 G. Zheng, W. Liang, M. Hada, M. Ehara, K. Toyota, R. Fukuda, 
 J. Hasegawa, M. Ishida, T. Nakajima, Y. Honda, O. Kitao, H. Nakai, 
 T. Vreven, K. Throssell, J. A. Montgomery, Jr., J. E. Peralta, 
 F. Ogliaro, M. J. Bearpark, J. J. Heyd, E. N. Brothers, K. N. Kudin, 
 V. N. Staroverov, T. A. Keith, R. Kobayashi, J. Normand, 
 K. Raghavachari, A. P. Rendell, J. C. Burant, S. S. Iyengar, 
 J. Tomasi, M. Cossi, J. M. Millam, M. Klene, C. Adamo, R. Cammi, 
 J. W. Ochterski, R. L. Martin, K. Morokuma, O. Farkas, 
 J. B. Foresman, and D. J. Fox, Gaussian, Inc., Wallingford CT, 2019.
 
 ******************************************
 Gaussian 16:  ES64L-G16RevC.01  3-Jul-2019
                 9-Apr-2025 
 ******************************************
 %nprocs=16
 Will use up to   16 processors via shared memory.
 %mem=30GB
 %chk=BDE49_nonexpt_2415_mol1.chk
 ----------------------------------------------------------------------
 #t hf aug-cc-pvdz symm=none int=(grid=ultrafine) guess=(read,tcheck) s
 table=(opt,rrhf)
 ----------------------------------------------------------------------
 -----
 title
 -----
 Symbolic Z-matrix:
 Charge =  0 Multiplicity = 1
 Si                    1.13264   0.9394    0.33558 
 Si                   -1.13264   0.9394   -0.33558 
 S                    -2.11982  -0.91304   0.22514 
 H                    -1.23971   1.1617   -1.79684 
 H                    -1.8994    1.98587   0.37987 
 H                    -1.37935  -1.69061  -0.58648 
 S                     2.11982  -0.91304  -0.22514 
 H                     1.23971   1.1617    1.79684 
 H                     1.8994    1.98587  -0.37987 
 H                     1.37935  -1.69061   0.58648 
 
                    Distance matrix (angstroms):
                    1          2          3          4          5
     1  Si   0.000000
     2  Si   2.362606   0.000000
     3  S    3.744623   2.172664   0.000000
     4  H    3.197603   1.481954   3.027798   0.000000
     5  H    3.207853   1.481515   2.911393   2.419199   0.000000
     6  H    3.751960   2.653442   1.345969   3.101633   3.836765
     7  S    2.172664   3.744623   4.263483   4.249850   4.992380
     8  H    1.481954   3.197603   4.249850   4.366020   3.541344
     9  H    1.481515   3.207853   4.992380   3.541344   3.874030
    10  H    2.653442   3.751960   3.602688   4.547016   4.930456
                    6          7          8          9         10
     6  H    0.000000
     7  S    3.602688   0.000000
     8  H    4.547016   3.027798   0.000000
     9  H    4.930456   2.911393   2.419199   0.000000
    10  H    2.997710   1.345969   3.101633   3.836765   0.000000
 Symmetry turned off by external request.
 Rotational constants (GHZ):           3.7153711           1.2946425           1.0262855
   162 basis functions,   390 primitive gaussians,   170 cartesian basis functions
    33 alpha electrons       33 beta electrons
       nuclear repulsion energy       325.1872304055 Hartrees.
 NAtoms=   10 NActive=   10 NUniq=   10 SFac= 1.00D+00 NAtFMM=   60 NAOKFM=F Big=F
 ExpMin= 2.50D-02 ExpMax= 1.11D+05 ExpMxC= 2.69D+03 IAcc=3 IRadAn=         5 AccDes= 0.00D+00
 Harris functional with IExCor=  205 and IRadAn=       5 diagonalized for initial guess.
 HarFok:  IExCor=  205 AccDes= 0.00D+00 IRadAn=         5 IDoV= 1 UseB2=F ITyADJ=14
 ICtDFT=  3500011 ScaDFX=  1.000000  1.000000  1.000000  1.000000
 FoFCou: FMM=F IPFlag=           0 FMFlag=      100000 FMFlg1=           0
         NFxFlg=           0 DoJE=T BraDBF=F KetDBF=T FulRan=T
         wScrn=  0.000000 ICntrl=       500 IOpCl=  0 I1Cent=   200000004 NGrid=           0
         NMat0=    1 NMatS0=      1 NMatT0=    0 NMatD0=    1 NMtDS0=    0 NMtDT0=    0
 Symmetry not used in FoFCou.
 SCF Done:  E(RHF) =  -1376.48450536     A.U. after   12 cycles
            NFock= 12  Conv=0.20D-08     -V/T= 2.0001

 **********************************************************************

            Population analysis using the SCF Density.

 **********************************************************************

 Alpha  occ. eigenvalues --  -91.96150 -91.96150 -68.81719 -68.81719  -8.96464
 Alpha  occ. eigenvalues --   -8.96464  -6.64647  -6.64647  -6.64542  -6.64542
 Alpha  occ. eigenvalues --   -6.64339  -6.64339  -6.16322  -6.16312  -4.26953
 Alpha  occ. eigenvalues --   -4.26942  -4.26889  -4.26885  -4.26862  -4.26814
 Alpha  occ. eigenvalues --   -0.97957  -0.97086  -0.74751  -0.67594  -0.55842
 Alpha  occ. eigenvalues --   -0.55785  -0.49856  -0.49294  -0.47960  -0.44966
 Alpha  occ. eigenvalues --   -0.43243  -0.38646  -0.35928
 Alpha virt. eigenvalues --    0.03787   0.04114   0.04428   0.05900   0.06671
 Alpha virt. eigenvalues --    0.06719   0.07321   0.07883   0.08093   0.09627
 Alpha virt. eigenvalues --    0.10402   0.10675   0.11877   0.11924   0.12586
 Alpha virt. eigenvalues --    0.12922   0.14436   0.15027   0.15744   0.16068
 Alpha virt. eigenvalues --    0.17198   0.18040   0.18737   0.19361   0.20305
 Alpha virt. eigenvalues --    0.21045   0.21201   0.24027   0.24078   0.24443
 Alpha virt. eigenvalues --    0.26306   0.27111   0.29555   0.30305   0.32632
 Alpha virt. eigenvalues --    0.33960   0.34047   0.35744   0.36781   0.38366
 Alpha virt. eigenvalues --    0.39648   0.40098   0.41265   0.42142   0.43626
 Alpha virt. eigenvalues --    0.44020   0.45324   0.46516   0.46859   0.48745
 Alpha virt. eigenvalues --    0.49345   0.49873   0.50896   0.54051   0.54873
 Alpha virt. eigenvalues --    0.56259   0.56305   0.56640   0.56885   0.57955
 Alpha virt. eigenvalues --    0.58675   0.59053   0.61591   0.62844   0.63350
 Alpha virt. eigenvalues --    0.65185   0.65441   0.69019   0.69887   0.70985
 Alpha virt. eigenvalues --    0.72657   0.73643   0.76077   0.76978   0.77887
 Alpha virt. eigenvalues --    0.79399   0.81826   0.83739   0.85124   0.87909
 Alpha virt. eigenvalues --    0.89505   0.92857   0.93400   0.97246   0.98268
 Alpha virt. eigenvalues --    0.98541   0.99610   1.04758   1.05240   1.06004
 Alpha virt. eigenvalues --    1.11533   1.11798   1.21254   1.21730   1.23044
 Alpha virt. eigenvalues --    1.24536   1.27063   1.27130   1.29696   1.30373
 Alpha virt. eigenvalues --    1.32013   1.34008   1.35326   1.37352   1.42459
 Alpha virt. eigenvalues --    1.42692   1.44382   1.49112   1.50977   1.65188
 Alpha virt. eigenvalues --    1.72049   1.87355   1.89730   1.90803   1.94143
 Alpha virt. eigenvalues --    1.96563   1.99038   2.00978   2.01608   2.06967
 Alpha virt. eigenvalues --    2.09191   2.10637   2.10873   2.21573   2.26459
 Alpha virt. eigenvalues --    2.34604   2.34683   2.40512   2.41727
          Condensed to atoms (all electrons):
 Mulliken charges:
               1
     1  Si   0.361879
     2  Si   0.361879
     3  S   -0.586605
     4  H    0.059284
     5  H    0.030517
     6  H    0.134925
     7  S   -0.586605
     8  H    0.059284
     9  H    0.030517
    10  H    0.134925
 Sum of Mulliken charges =  -0.00000
 Mulliken charges with hydrogens summed into heavy atoms:
               1
     1  Si   0.451680
     2  Si   0.451680
     3  S   -0.451680
     7  S   -0.451680
 Electronic spatial extent (au):  <R**2>=           1109.8381
 Charge=             -0.0000 electrons
 Dipole moment (field-independent basis, Debye):
    X=              0.0000    Y=              0.8857    Z=             -0.0000  Tot=              0.8857
 NROrb=    162 NOA=    33 NOB=    33 NVA=   129 NVB=   129

 **** Warning!!: The largest alpha MO coefficient is  0.16165463D+02

    12 initial guesses have been made.
 Iteration     1 Dimension    12 NMult     0 NNew     12
 Iteration     2 Dimension    24 NMult    12 NNew     12
 Iteration     3 Dimension    27 NMult    24 NNew      3
 Iteration     4 Dimension    30 NMult    27 NNew      3
 Iteration     5 Dimension    33 NMult    30 NNew      3
 Iteration     6 Dimension    36 NMult    33 NNew      3
 Iteration     7 Dimension    39 NMult    36 NNew      3
 Iteration     8 Dimension    42 NMult    39 NNew      3
 ***********************************************************************
 Stability analysis using <AA,BB:AA,BB> singles matrix:
 ***********************************************************************
 Ground to excited state transition densities written to RWF  633

 Eigenvectors of the stability matrix:
 
 Excited state symmetry could not be determined.
 Eigenvector   1:      Singlet-?Sym  Eigenvalue= 0.2255645  <S**2>=0.000
      32 -> 48        -0.10077
      33 -> 34         0.35906
      33 -> 35        -0.28449
      33 -> 38         0.16491
      33 -> 40        -0.11627
      33 -> 45        -0.27224
      33 -> 46         0.27220
 The wavefunction is stable under the perturbations considered.
 The wavefunction is already stable.

 **********************************************************************

            Population analysis using the SCF Density.

 **********************************************************************

 Alpha  occ. eigenvalues --  -91.96150 -91.96150 -68.81719 -68.81719  -8.96464
 Alpha  occ. eigenvalues --   -8.96464  -6.64647  -6.64647  -6.64542  -6.64542
 Alpha  occ. eigenvalues --   -6.64339  -6.64339  -6.16322  -6.16312  -4.26953
 Alpha  occ. eigenvalues --   -4.26942  -4.26889  -4.26885  -4.26862  -4.26814
 Alpha  occ. eigenvalues --   -0.97957  -0.97086  -0.74751  -0.67594  -0.55842
 Alpha  occ. eigenvalues --   -0.55785  -0.49856  -0.49294  -0.47960  -0.44966
 Alpha  occ. eigenvalues --   -0.43243  -0.38646  -0.35928
 Alpha virt. eigenvalues --    0.03787   0.04114   0.04428   0.05900   0.06671
 Alpha virt. eigenvalues --    0.06719   0.07321   0.07883   0.08093   0.09627
 Alpha virt. eigenvalues --    0.10402   0.10675   0.11877   0.11924   0.12586
 Alpha virt. eigenvalues --    0.12922   0.14436   0.15027   0.15744   0.16068
 Alpha virt. eigenvalues --    0.17198   0.18040   0.18737   0.19361   0.20305
 Alpha virt. eigenvalues --    0.21045   0.21201   0.24027   0.24078   0.24443
 Alpha virt. eigenvalues --    0.26306   0.27111   0.29555   0.30305   0.32632
 Alpha virt. eigenvalues --    0.33960   0.34047   0.35744   0.36781   0.38366
 Alpha virt. eigenvalues --    0.39648   0.40098   0.41265   0.42142   0.43626
 Alpha virt. eigenvalues --    0.44020   0.45324   0.46516   0.46859   0.48745
 Alpha virt. eigenvalues --    0.49345   0.49873   0.50896   0.54051   0.54873
 Alpha virt. eigenvalues --    0.56259   0.56305   0.56640   0.56885   0.57955
 Alpha virt. eigenvalues --    0.58675   0.59053   0.61591   0.62844   0.63350
 Alpha virt. eigenvalues --    0.65185   0.65441   0.69019   0.69887   0.70985
 Alpha virt. eigenvalues --    0.72657   0.73643   0.76077   0.76978   0.77887
 Alpha virt. eigenvalues --    0.79399   0.81826   0.83739   0.85124   0.87909
 Alpha virt. eigenvalues --    0.89505   0.92857   0.93400   0.97246   0.98268
 Alpha virt. eigenvalues --    0.98541   0.99610   1.04758   1.05240   1.06004
 Alpha virt. eigenvalues --    1.11533   1.11798   1.21254   1.21730   1.23044
 Alpha virt. eigenvalues --    1.24536   1.27063   1.27130   1.29696   1.30373
 Alpha virt. eigenvalues --    1.32013   1.34008   1.35326   1.37352   1.42459
 Alpha virt. eigenvalues --    1.42692   1.44382   1.49112   1.50977   1.65188
 Alpha virt. eigenvalues --    1.72049   1.87355   1.89730   1.90803   1.94143
 Alpha virt. eigenvalues --    1.96563   1.99038   2.00978   2.01608   2.06967
 Alpha virt. eigenvalues --    2.09191   2.10637   2.10873   2.21573   2.26459
 Alpha virt. eigenvalues --    2.34604   2.34683   2.40512   2.41727
          Condensed to atoms (all electrons):
 Mulliken charges:
               1
     1  Si   0.361879
     2  Si   0.361879
     3  S   -0.586605
     4  H    0.059284
     5  H    0.030517
     6  H    0.134925
     7  S   -0.586605
     8  H    0.059284
     9  H    0.030517
    10  H    0.134925
 Sum of Mulliken charges =  -0.00000
 Mulliken charges with hydrogens summed into heavy atoms:
               1
     1  Si   0.451680
     2  Si   0.451680
     3  S   -0.451680
     7  S   -0.451680
 Electronic spatial extent (au):  <R**2>=           1109.8381
 Charge=             -0.0000 electrons
 Dipole moment (field-independent basis, Debye):
    X=              0.0000    Y=              0.8857    Z=             -0.0000  Tot=              0.8857
 Unable to Open any file for archive entry.
 1\1\GINC-SE402\Stability\RHF\Aug-CC-pVDZ\H6S2Si2\OHZDE\09-Apr-2025\0\\
 #t hf aug-cc-pvdz symm=none int=(grid=ultrafine) guess=(read,tcheck) s
 table=(opt,rrhf)\\title\\0,1\Si,0,1.132637,0.939402,0.335575\Si,0,-1.1
 32637,0.939402,-0.335575\S,0,-2.119819,-0.913038,0.225143\H,0,-1.23971
 1,1.1617,-1.796844\H,0,-1.899402,1.985873,0.379867\H,0,-1.379351,-1.69
 0605,-0.586478\S,0,2.119819,-0.913038,-0.225143\H,0,1.239711,1.1617,1.
 796844\H,0,1.899402,1.985873,-0.379867\H,0,1.379351,-1.690605,0.586478
 \\Version=ES64L-G16RevC.01\HF=-1376.4845054\RMSD=2.039e-09\Dipole=0.,0
 .3484746,0.\Quadrupole=-4.6681108,3.9797469,0.6883639,0.,0.6484011,0.\
 PG=Unknown\\@
 The archive entry for this job was punched.


 BULLDOZER: SOMEONE WHO SLEEPS THROUGH SPEECHES.
 Job cpu time:       0 days  0 hours  1 minutes  7.6 seconds.
 Elapsed time:       0 days  0 hours  0 minutes  7.3 seconds.
 File lengths (MBytes):  RWF=    197 Int=      0 D2E=      0 Chk=      5 Scr=      1
 Normal termination of Gaussian 16 at Wed Apr  9 00:12:36 2025.
 Initial command:
 /arc/software/Gaussian/g16.c01/l1.exe "/tmp/slurm/4852230/Gau-1999213.inp" -scrdir="/tmp/slurm/4852230/"
 Entering Link 1 = /arc/software/Gaussian/g16.c01/l1.exe PID=   1999546.
  
 Copyright (c) 1988-2019, Gaussian, Inc.  All Rights Reserved.
  
 This is part of the Gaussian(R) 16 program.  It is based on
 the Gaussian(R) 09 system (copyright 2009, Gaussian, Inc.),
 the Gaussian(R) 03 system (copyright 2003, Gaussian, Inc.),
 the Gaussian(R) 98 system (copyright 1998, Gaussian, Inc.),
 the Gaussian(R) 94 system (copyright 1995, Gaussian, Inc.),
 the Gaussian 92(TM) system (copyright 1992, Gaussian, Inc.),
 the Gaussian 90(TM) system (copyright 1990, Gaussian, Inc.),
 the Gaussian 88(TM) system (copyright 1988, Gaussian, Inc.),
 the Gaussian 86(TM) system (copyright 1986, Carnegie Mellon
 University), and the Gaussian 82(TM) system (copyright 1983,
 Carnegie Mellon University). Gaussian is a federally registered
 trademark of Gaussian, Inc.
  
 This software contains proprietary and confidential information,
 including trade secrets, belonging to Gaussian, Inc.
  
 This software is provided under written license and may be
 used, copied, transmitted, or stored only in accord with that
 written license.
  
 The following legend is applicable only to US Government
 contracts under FAR:
  
                    RESTRICTED RIGHTS LEGEND
  
 Use, reproduction and disclosure by the US Government is
 subject to restrictions as set forth in subparagraphs (a)
 and (c) of the Commercial Computer Software - Restricted
 Rights clause in FAR 52.227-19.
  
 Gaussian, Inc.
 340 Quinnipiac St., Bldg. 40, Wallingford CT 06492
  
  
 ---------------------------------------------------------------
 Warning -- This program may not be used in any manner that
 competes with the business of Gaussian, Inc. or will provide
 assistance to any competitor of Gaussian, Inc.  The licensee
 of this program is prohibited from giving any competitor of
 Gaussian, Inc. access to this program.  By using this program,
 the user acknowledges that Gaussian, Inc. is engaged in the
 business of creating and licensing software in the field of
 computational chemistry and represents and warrants to the
 licensee that it is not a competitor of Gaussian, Inc. and that
 it will not use this program in any manner prohibited above.
 ---------------------------------------------------------------
  

 Cite this work as:
 Gaussian 16, Revision C.01,
 M. J. Frisch, G. W. Trucks, H. B. Schlegel, G. E. Scuseria, 
 M. A. Robb, J. R. Cheeseman, G. Scalmani, V. Barone, 
 G. A. Petersson, H. Nakatsuji, X. Li, M. Caricato, A. V. Marenich, 
 J. Bloino, B. G. Janesko, R. Gomperts, B. Mennucci, H. P. Hratchian, 
 J. V. Ortiz, A. F. Izmaylov, J. L. Sonnenberg, D. Williams-Young, 
 F. Ding, F. Lipparini, F. Egidi, J. Goings, B. Peng, A. Petrone, 
 T. Henderson, D. Ranasinghe, V. G. Zakrzewski, J. Gao, N. Rega, 
 G. Zheng, W. Liang, M. Hada, M. Ehara, K. Toyota, R. Fukuda, 
 J. Hasegawa, M. Ishida, T. Nakajima, Y. Honda, O. Kitao, H. Nakai, 
 T. Vreven, K. Throssell, J. A. Montgomery, Jr., J. E. Peralta, 
 F. Ogliaro, M. J. Bearpark, J. J. Heyd, E. N. Brothers, K. N. Kudin, 
 V. N. Staroverov, T. A. Keith, R. Kobayashi, J. Normand, 
 K. Raghavachari, A. P. Rendell, J. C. Burant, S. S. Iyengar, 
 J. Tomasi, M. Cossi, J. M. Millam, M. Klene, C. Adamo, R. Cammi, 
 J. W. Ochterski, R. L. Martin, K. Morokuma, O. Farkas, 
 J. B. Foresman, and D. J. Fox, Gaussian, Inc., Wallingford CT, 2019.
 
 ******************************************
 Gaussian 16:  ES64L-G16RevC.01  3-Jul-2019
                 9-Apr-2025 
 ******************************************
 %nprocs=16
 Will use up to   16 processors via shared memory.
 %mem=30GB
 %chk=BDE49_nonexpt_2415_mol1.chk
 ----------------------------------------------------------------------
 #t hf aug-cc-pvdz iop(5/13=1,5/36=2,99/5=2) pseudo=read geom=check gue
 ss=(read,tcheck) scf=(maxcycle=1)
 ----------------------------------------------------------------------
 -----
 title
 -----
 Structure from the checkpoint file:  "BDE49_nonexpt_2415_mol1.chk"
 Charge =  0 Multiplicity = 1
 Z-Matrix found in chk file.
 Si,0,1.132637,0.939402,0.335575
 Si,0,-1.132637,0.939402,-0.335575
 S,0,-2.119819,-0.913038,0.225143
 H,0,-1.239711,1.1617,-1.796844
 H,0,-1.899402,1.985873,0.379867
 H,0,-1.379351,-1.690605,-0.586478
 S,0,2.119819,-0.913038,-0.225143
 H,0,1.239711,1.1617,1.796844
 H,0,1.899402,1.985873,-0.379867
 H,0,1.379351,-1.690605,0.586478
 Recover connectivity data from disk.
                    Distance matrix (angstroms):
                    1          2          3          4          5
     1  Si   0.000000
     2  Si   2.362606   0.000000
     3  S    3.744623   2.172664   0.000000
     4  H    3.197603   1.481954   3.027798   0.000000
     5  H    3.207853   1.481515   2.911393   2.419199   0.000000
     6  H    3.751960   2.653442   1.345969   3.101633   3.836765
     7  S    2.172664   3.744623   4.263483   4.249850   4.992380
     8  H    1.481954   3.197603   4.249850   4.366020   3.541344
     9  H    1.481515   3.207853   4.992380   3.541344   3.874030
    10  H    2.653442   3.751960   3.602688   4.547016   4.930456
                    6          7          8          9         10
     6  H    0.000000
     7  S    3.602688   0.000000
     8  H    4.547016   3.027798   0.000000
     9  H    4.930456   2.911393   2.419199   0.000000
    10  H    2.997710   1.345969   3.101633   3.836765   0.000000
 Framework group  C2[X(H6S2Si2)]
 Deg. of freedom    13
                         Standard orientation:                         
 ---------------------------------------------------------------------
 Center     Atomic      Atomic             Coordinates (Angstroms)
 Number     Number       Type             X           Y           Z
 ---------------------------------------------------------------------
      1         14           0       -0.851188   -0.819119    0.939402
      2         14           0        0.851188    0.819119    0.939402
      3         16           0        0.851188    1.954431   -0.913038
      4          1           0        2.174680    0.190518    1.161700
      5          1           0        0.607790    1.839190    1.985873
      6          1           0        1.191204    0.909725   -1.690605
      7         16           0       -0.851188   -1.954431   -0.913038
      8          1           0       -2.174680   -0.190518    1.161700
      9          1           0       -0.607790   -1.839190    1.985873
     10          1           0       -1.191204   -0.909725   -1.690605
 ---------------------------------------------------------------------
 Rotational constants (GHZ):           3.7153711           1.2946425           1.0262855
 ======================================================================================================
                                       Pseudopotential Parameters
 ======================================================================================================
  Center     Atomic      Valence      Angular      Power
  Number     Number     Electrons     Momentum     of R      Exponent        Coefficient   SO-Coeffient
 ======================================================================================================
    1         14           14
                                      G and up 
                                                     0        0.0000010        0.00318584    0.00000000
                                                     2        0.1200000        0.01495489    0.00000000
                                                     2        0.1400000        0.00226724    0.00000000
                                                     2        0.2400000        0.19400623    0.00000000
                                                     2        0.4000000       -1.10589618    0.00000000
                                                     2        0.5000000       -0.33441440    0.00000000
                                                     2        1.1000000        1.54014497    0.00000000
                                      S - G
                                                     0        0.0000010       -0.02754341    0.00000000
                                                     2        0.1400000       -0.27210261    0.00000000
                                                     2        0.5000000        1.68277205    0.00000000
                                      P - G
                                                     0        0.0000010        0.23409914    0.00000000
                                                     2        0.1400000       -0.38285789    0.00000000
                                                     2        0.3000000        0.63427704    0.00000000
                                      D - G
                                                     0        0.0000010        0.33783735    0.00000000
                                                     2        0.1200000        0.22636357    0.00000000
                                                     2        0.1600000       -1.50396781    0.00000000
                                                     2        0.2800000        2.43578453    0.00000000
                                      F - G
                                                     0        0.0000010       -0.32072413    0.00000000
                                                     2        0.1200000        0.11095462    0.00000000
                                                     2        0.1600000       -0.09560586    0.00000000
    2         14           14
                                      G and up 
                                                     0        0.0000010        0.00318584    0.00000000
                                                     2        0.1200000        0.01495489    0.00000000
                                                     2        0.1400000        0.00226724    0.00000000
                                                     2        0.2400000        0.19400623    0.00000000
                                                     2        0.4000000       -1.10589618    0.00000000
                                                     2        0.5000000       -0.33441440    0.00000000
                                                     2        1.1000000        1.54014497    0.00000000
                                      S - G
                                                     0        0.0000010       -0.02754341    0.00000000
                                                     2        0.1400000       -0.27210261    0.00000000
                                                     2        0.5000000        1.68277205    0.00000000
                                      P - G
                                                     0        0.0000010        0.23409914    0.00000000
                                                     2        0.1400000       -0.38285789    0.00000000
                                                     2        0.3000000        0.63427704    0.00000000
                                      D - G
                                                     0        0.0000010        0.33783735    0.00000000
                                                     2        0.1200000        0.22636357    0.00000000
                                                     2        0.1600000       -1.50396781    0.00000000
                                                     2        0.2800000        2.43578453    0.00000000
                                      F - G
                                                     0        0.0000010       -0.32072413    0.00000000
                                                     2        0.1200000        0.11095462    0.00000000
                                                     2        0.1600000       -0.09560586    0.00000000
    3         16           16
                                      G and up 
                                                     0        0.0000010       -0.00444167    0.00000000
                                                     2        0.1200000        0.11677988    0.00000000
                                                     2        0.1400000       -0.22050378    0.00000000
                                                     2        0.1800000        0.26452031    0.00000000
                                                     2        0.2800000       -0.04353316    0.00000000
                                                     2        0.5000000       -1.18567514    0.00000000
                                      S - G
                                                     0        0.0000010        0.03992419    0.00000000
                                                     2        0.1200000       -0.56926432    0.00000000
                                                     2        0.3000000        0.88393965    0.00000000
                                      P - G
                                                     0        0.0000010       -0.92181603    0.00000000
                                                     2        0.1200000        1.30681810    0.00000000
                                                     2        0.2000000       -1.50828653    0.00000000
                                                     2        0.2400000       -2.25148793    0.00000000
                                                     2        0.6000000       10.10218731    0.00000000
                                      D - G
                                                     0        0.0000010        0.72039481    0.00000000
                                                     2        0.1200000       -0.56105075    0.00000000
                                                     2        0.2000000        0.42910414    0.00000000
                                                     2        0.8000000        0.44203418    0.00000000
                                      F - G
                                                     2        0.1200000       -0.62623060    0.00000000
                                                     2        0.1800000        0.89777932    0.00000000
                                                     2        0.5000000       -1.32991832    0.00000000
    4          1            1
                                      F and up 
                                                     0        0.0000010        0.00072061    0.00000000
                                                     2        0.1200000        0.03832357    0.00000000
                                                     2        0.1400000       -0.08683256    0.00000000
                                                     2        0.1800000        0.09312970    0.00000000
                                                     2        0.2800000       -0.02532572    0.00000000
                                                     2        0.4000000       -0.09430787    0.00000000
                                                     2        0.7000000        0.42710831    0.00000000
                                                     2        1.2000000       -2.11746981    0.00000000
                                      S - F
                                                     0        0.0000010        0.14449603    0.00000000
                                                     2        0.1200000       -0.56378993    0.00000000
                                                     2        0.1400000        0.63941249    0.00000000
                                                     2        0.2600000       -0.58461015    0.00000000
                                                     2        0.5000000        1.00157293    0.00000000
                                                     2        1.8000000       -0.14135838    0.00000000
                                      P - F
                                                     0        0.0000010       -0.09353646    0.00000000
                                                     2        0.1200000        0.31768975    0.00000000
                                                     2        0.2000000       -0.71747951    0.00000000
                                                     2        0.4000000        0.65752308    0.00000000
                                                     2        1.7000000        2.94052587    0.00000000
                                      D - F
                                                     0        0.0000010       -0.04491202    0.00000000
                                                     2        0.1200000       -0.02862031    0.00000000
                                                     2        0.1800000       -0.21515263    0.00000000
                                                     2        0.3000000        0.80560647    0.00000000
                                                     2        0.4000000        0.47351754    0.00000000
                                                     2        0.7000000       -4.57051794    0.00000000
                                                     2        1.6000000       18.53737826    0.00000000
    5          1            1
                                      F and up 
                                                     0        0.0000010        0.00072061    0.00000000
                                                     2        0.1200000        0.03832357    0.00000000
                                                     2        0.1400000       -0.08683256    0.00000000
                                                     2        0.1800000        0.09312970    0.00000000
                                                     2        0.2800000       -0.02532572    0.00000000
                                                     2        0.4000000       -0.09430787    0.00000000
                                                     2        0.7000000        0.42710831    0.00000000
                                                     2        1.2000000       -2.11746981    0.00000000
                                      S - F
                                                     0        0.0000010        0.14449603    0.00000000
                                                     2        0.1200000       -0.56378993    0.00000000
                                                     2        0.1400000        0.63941249    0.00000000
                                                     2        0.2600000       -0.58461015    0.00000000
                                                     2        0.5000000        1.00157293    0.00000000
                                                     2        1.8000000       -0.14135838    0.00000000
                                      P - F
                                                     0        0.0000010       -0.09353646    0.00000000
                                                     2        0.1200000        0.31768975    0.00000000
                                                     2        0.2000000       -0.71747951    0.00000000
                                                     2        0.4000000        0.65752308    0.00000000
                                                     2        1.7000000        2.94052587    0.00000000
                                      D - F
                                                     0        0.0000010       -0.04491202    0.00000000
                                                     2        0.1200000       -0.02862031    0.00000000
                                                     2        0.1800000       -0.21515263    0.00000000
                                                     2        0.3000000        0.80560647    0.00000000
                                                     2        0.4000000        0.47351754    0.00000000
                                                     2        0.7000000       -4.57051794    0.00000000
                                                     2        1.6000000       18.53737826    0.00000000
    6          1            1
                                      F and up 
                                                     0        0.0000010        0.00072061    0.00000000
                                                     2        0.1200000        0.03832357    0.00000000
                                                     2        0.1400000       -0.08683256    0.00000000
                                                     2        0.1800000        0.09312970    0.00000000
                                                     2        0.2800000       -0.02532572    0.00000000
                                                     2        0.4000000       -0.09430787    0.00000000
                                                     2        0.7000000        0.42710831    0.00000000
                                                     2        1.2000000       -2.11746981    0.00000000
                                      S - F
                                                     0        0.0000010        0.14449603    0.00000000
                                                     2        0.1200000       -0.56378993    0.00000000
                                                     2        0.1400000        0.63941249    0.00000000
                                                     2        0.2600000       -0.58461015    0.00000000
                                                     2        0.5000000        1.00157293    0.00000000
                                                     2        1.8000000       -0.14135838    0.00000000
                                      P - F
                                                     0        0.0000010       -0.09353646    0.00000000
                                                     2        0.1200000        0.31768975    0.00000000
                                                     2        0.2000000       -0.71747951    0.00000000
                                                     2        0.4000000        0.65752308    0.00000000
                                                     2        1.7000000        2.94052587    0.00000000
                                      D - F
                                                     0        0.0000010       -0.04491202    0.00000000
                                                     2        0.1200000       -0.02862031    0.00000000
                                                     2        0.1800000       -0.21515263    0.00000000
                                                     2        0.3000000        0.80560647    0.00000000
                                                     2        0.4000000        0.47351754    0.00000000
                                                     2        0.7000000       -4.57051794    0.00000000
                                                     2        1.6000000       18.53737826    0.00000000
    7         16           16
                                      G and up 
                                                     0        0.0000010       -0.00444167    0.00000000
                                                     2        0.1200000        0.11677988    0.00000000
                                                     2        0.1400000       -0.22050378    0.00000000
                                                     2        0.1800000        0.26452031    0.00000000
                                                     2        0.2800000       -0.04353316    0.00000000
                                                     2        0.5000000       -1.18567514    0.00000000
                                      S - G
                                                     0        0.0000010        0.03992419    0.00000000
                                                     2        0.1200000       -0.56926432    0.00000000
                                                     2        0.3000000        0.88393965    0.00000000
                                      P - G
                                                     0        0.0000010       -0.92181603    0.00000000
                                                     2        0.1200000        1.30681810    0.00000000
                                                     2        0.2000000       -1.50828653    0.00000000
                                                     2        0.2400000       -2.25148793    0.00000000
                                                     2        0.6000000       10.10218731    0.00000000
                                      D - G
                                                     0        0.0000010        0.72039481    0.00000000
                                                     2        0.1200000       -0.56105075    0.00000000
                                                     2        0.2000000        0.42910414    0.00000000
                                                     2        0.8000000        0.44203418    0.00000000
                                      F - G
                                                     2        0.1200000       -0.62623060    0.00000000
                                                     2        0.1800000        0.89777932    0.00000000
                                                     2        0.5000000       -1.32991832    0.00000000
    8          1            1
                                      F and up 
                                                     0        0.0000010        0.00072061    0.00000000
                                                     2        0.1200000        0.03832357    0.00000000
                                                     2        0.1400000       -0.08683256    0.00000000
                                                     2        0.1800000        0.09312970    0.00000000
                                                     2        0.2800000       -0.02532572    0.00000000
                                                     2        0.4000000       -0.09430787    0.00000000
                                                     2        0.7000000        0.42710831    0.00000000
                                                     2        1.2000000       -2.11746981    0.00000000
                                      S - F
                                                     0        0.0000010        0.14449603    0.00000000
                                                     2        0.1200000       -0.56378993    0.00000000
                                                     2        0.1400000        0.63941249    0.00000000
                                                     2        0.2600000       -0.58461015    0.00000000
                                                     2        0.5000000        1.00157293    0.00000000
                                                     2        1.8000000       -0.14135838    0.00000000
                                      P - F
                                                     0        0.0000010       -0.09353646    0.00000000
                                                     2        0.1200000        0.31768975    0.00000000
                                                     2        0.2000000       -0.71747951    0.00000000
                                                     2        0.4000000        0.65752308    0.00000000
                                                     2        1.7000000        2.94052587    0.00000000
                                      D - F
                                                     0        0.0000010       -0.04491202    0.00000000
                                                     2        0.1200000       -0.02862031    0.00000000
                                                     2        0.1800000       -0.21515263    0.00000000
                                                     2        0.3000000        0.80560647    0.00000000
                                                     2        0.4000000        0.47351754    0.00000000
                                                     2        0.7000000       -4.57051794    0.00000000
                                                     2        1.6000000       18.53737826    0.00000000
    9          1            1
                                      F and up 
                                                     0        0.0000010        0.00072061    0.00000000
                                                     2        0.1200000        0.03832357    0.00000000
                                                     2        0.1400000       -0.08683256    0.00000000
                                                     2        0.1800000        0.09312970    0.00000000
                                                     2        0.2800000       -0.02532572    0.00000000
                                                     2        0.4000000       -0.09430787    0.00000000
                                                     2        0.7000000        0.42710831    0.00000000
                                                     2        1.2000000       -2.11746981    0.00000000
                                      S - F
                                                     0        0.0000010        0.14449603    0.00000000
                                                     2        0.1200000       -0.56378993    0.00000000
                                                     2        0.1400000        0.63941249    0.00000000
                                                     2        0.2600000       -0.58461015    0.00000000
                                                     2        0.5000000        1.00157293    0.00000000
                                                     2        1.8000000       -0.14135838    0.00000000
                                      P - F
                                                     0        0.0000010       -0.09353646    0.00000000
                                                     2        0.1200000        0.31768975    0.00000000
                                                     2        0.2000000       -0.71747951    0.00000000
                                                     2        0.4000000        0.65752308    0.00000000
                                                     2        1.7000000        2.94052587    0.00000000
                                      D - F
                                                     0        0.0000010       -0.04491202    0.00000000
                                                     2        0.1200000       -0.02862031    0.00000000
                                                     2        0.1800000       -0.21515263    0.00000000
                                                     2        0.3000000        0.80560647    0.00000000
                                                     2        0.4000000        0.47351754    0.00000000
                                                     2        0.7000000       -4.57051794    0.00000000
                                                     2        1.6000000       18.53737826    0.00000000
   10          1            1
                                      F and up 
                                                     0        0.0000010        0.00072061    0.00000000
                                                     2        0.1200000        0.03832357    0.00000000
                                                     2        0.1400000       -0.08683256    0.00000000
                                                     2        0.1800000        0.09312970    0.00000000
                                                     2        0.2800000       -0.02532572    0.00000000
                                                     2        0.4000000       -0.09430787    0.00000000
                                                     2        0.7000000        0.42710831    0.00000000
                                                     2        1.2000000       -2.11746981    0.00000000
                                      S - F
                                                     0        0.0000010        0.14449603    0.00000000
                                                     2        0.1200000       -0.56378993    0.00000000
                                                     2        0.1400000        0.63941249    0.00000000
                                                     2        0.2600000       -0.58461015    0.00000000
                                                     2        0.5000000        1.00157293    0.00000000
                                                     2        1.8000000       -0.14135838    0.00000000
                                      P - F
                                                     0        0.0000010       -0.09353646    0.00000000
                                                     2        0.1200000        0.31768975    0.00000000
                                                     2        0.2000000       -0.71747951    0.00000000
                                                     2        0.4000000        0.65752308    0.00000000
                                                     2        1.7000000        2.94052587    0.00000000
                                      D - F
                                                     0        0.0000010       -0.04491202    0.00000000
                                                     2        0.1200000       -0.02862031    0.00000000
                                                     2        0.1800000       -0.21515263    0.00000000
                                                     2        0.3000000        0.80560647    0.00000000
                                                     2        0.4000000        0.47351754    0.00000000
                                                     2        0.7000000       -4.57051794    0.00000000
                                                     2        1.6000000       18.53737826    0.00000000
 ======================================================================================================
   162 basis functions,   390 primitive gaussians,   170 cartesian basis functions
    33 alpha electrons       33 beta electrons
       nuclear repulsion energy       325.1872304055 Hartrees.
 NAtoms=   10 NActive=   10 NUniq=    5 SFac= 4.00D+00 NAtFMM=   60 NAOKFM=F Big=F
   2 Symmetry operations used in ECPInt.
 ECPInt:  NShTT=    2775 NPrTT=   23511 LenC2=    2758 LenP2D=   15908.
 LDataN:  DoStor=T MaxTD1= 6 Len=  172
 Initial guess from the checkpoint file:  "BDE49_nonexpt_2415_mol1.chk"
 B after Tr=    -0.000000   -0.000000    0.000001
         Rot=    0.355707   -0.355707    0.611124    0.611124 Ang=-138.33 deg.
 Initial guess orbital symmetries:
       Occupied  (A) (B) (A) (B) (A) (B) (A) (B) (B) (A) (B) (A)
                 (A) (B) (A) (B) (A) (B) (A) (B) (A) (B) (A) (B)
                 (A) (B) (B) (A) (A) (B) (A) (B) (A)
       Virtual   (A) (A) (B) (B) (A) (B) (A) (A) (B) (B) (B) (A)
                 (A) (B) (B) (A) (B) (A) (A) (B) (B) (A) (B) (A)
                 (A) (B) (B) (B) (A) (A) (B) (B) (A) (A) (A) (A)
                 (B) (B) (A) (B) (B) (A) (B) (A) (A) (B) (B) (A)
                 (A) (B) (A) (B) (B) (B) (A) (B) (A) (A) (B) (A)
                 (A) (B) (B) (A) (B) (B) (A) (B) (A) (B) (B) (A)
                 (A) (A) (B) (A) (A) (B) (A) (A) (B) (B) (A) (B)
                 (A) (B) (A) (B) (A) (B) (A) (B) (B) (A) (B) (A)
                 (B) (A) (B) (A) (A) (B) (B) (A) (B) (A) (B) (B)
                 (A) (B) (A) (B) (A) (A) (B) (A) (B) (A) (B) (A)
                 (B) (A) (B) (A) (B) (A) (B) (A) (B)
 >>>>>>>>>> Convergence criterion not met.
 SCF Done:  E(RHF) =  -1377.25779624     A.U. after    2 cycles
            NFock=  1  Conv=0.12D+00     -V/T= 2.0156

 **********************************************************************

            Population analysis using the SCF Density.

 **********************************************************************

 Orbital symmetries:
       Occupied  (B) (A) (A) (B) (A) (B) (A) (B) (A) (B) (A) (B)
                 (A) (B) (B) (B) (A) (A) (A) (B) (A) (B) (A) (B)
                 (B) (A) (B) (A) (A) (B) (A) (B) (A)
       Virtual   (A) (A) (B) (B) (A) (B) (A) (A) (B) (B) (B) (A)
                 (B) (A) (B) (A) (A) (B) (B) (A) (B) (A) (A) (B)
                 (A) (B) (B) (B) (A) (A) (B) (A) (B) (A) (B) (A)
                 (A) (B) (B) (A) (B) (A) (B) (A) (A) (B) (B) (A)
                 (A) (B) (A) (B) (B) (B) (A) (A) (B) (A) (B) (A)
                 (A) (B) (B) (A) (B) (A) (B) (B) (A) (B) (A) (B)
                 (A) (A) (B) (A) (A) (B) (A) (B) (A) (A) (B) (A)
                 (B) (B) (A) (B) (A) (B) (A) (A) (B) (B) (A) (B)
                 (A) (B) (B) (B) (A) (A) (B) (B) (A) (B) (A) (B)
                 (A) (B) (A) (B) (A) (A) (B) (A) (B) (A) (B) (A)
                 (B) (A) (B) (A) (B) (A) (B) (A) (B)
 The electronic state is 1-A.
 Alpha  occ. eigenvalues --  -76.25136 -76.25089 -75.69292 -75.69273 -13.13958
 Alpha  occ. eigenvalues --  -13.13811 -13.07629 -13.07036 -13.03555 -13.03202
 Alpha  occ. eigenvalues --   -8.03220  -8.03199  -5.58497  -5.58488  -2.20515
 Alpha  occ. eigenvalues --   -2.20375  -2.20276  -2.20200  -2.19763  -2.18831
 Alpha  occ. eigenvalues --   -1.11600  -1.10512  -0.79895  -0.70599  -0.52875
 Alpha  occ. eigenvalues --   -0.52465  -0.47387  -0.47241  -0.43061  -0.35793
 Alpha  occ. eigenvalues --   -0.33445  -0.28185  -0.26081
 Alpha virt. eigenvalues --    0.02214   0.03950   0.04008   0.05009   0.06633
 Alpha virt. eigenvalues --    0.06758   0.07875   0.08821   0.08884   0.09694
 Alpha virt. eigenvalues --    0.10323   0.10890   0.11675   0.11903   0.11992
 Alpha virt. eigenvalues --    0.13336   0.13934   0.14689   0.15318   0.15362
 Alpha virt. eigenvalues --    0.16904   0.17581   0.18489   0.19032   0.19520
 Alpha virt. eigenvalues --    0.19890   0.22261   0.23326   0.23333   0.25343
 Alpha virt. eigenvalues --    0.26598   0.27704   0.29806   0.31650   0.33935
 Alpha virt. eigenvalues --    0.34011   0.35794   0.36050   0.37615   0.37866
 Alpha virt. eigenvalues --    0.40012   0.40132   0.40759   0.40915   0.42117
 Alpha virt. eigenvalues --    0.43935   0.44487   0.44782   0.46214   0.48064
 Alpha virt. eigenvalues --    0.48808   0.49300   0.50846   0.53506   0.54054
 Alpha virt. eigenvalues --    0.55786   0.56307   0.56511   0.57504   0.58811
 Alpha virt. eigenvalues --    0.60580   0.61543   0.61861   0.64596   0.64919
 Alpha virt. eigenvalues --    0.66356   0.68306   0.70677   0.71345   0.75573
 Alpha virt. eigenvalues --    0.75793   0.81553   0.82994   0.86110   0.88670
 Alpha virt. eigenvalues --    0.89238   0.94864   0.95611   0.97350   0.97684
 Alpha virt. eigenvalues --    1.04239   1.07907   1.10335   1.11186   1.15641
 Alpha virt. eigenvalues --    1.18827   1.18952   1.19784   1.20207   1.21451
 Alpha virt. eigenvalues --    1.21830   1.22495   1.23833   1.25357   1.31127
 Alpha virt. eigenvalues --    1.32294   1.37249   1.38100   1.40326   1.42607
 Alpha virt. eigenvalues --    1.44328   1.47022   1.53707   1.57630   1.57779
 Alpha virt. eigenvalues --    1.61846   1.65656   1.69582   1.71674   1.74906
 Alpha virt. eigenvalues --    1.80213   1.94518   1.97384   1.98726   2.01573
 Alpha virt. eigenvalues --    2.04729   2.06732   2.09168   2.09357   2.15259
 Alpha virt. eigenvalues --    2.17469   2.18979   2.19958   2.30720   2.36920
 Alpha virt. eigenvalues --    2.51855   2.52041   2.52615   2.54197
          Condensed to atoms (all electrons):
 Mulliken charges:
               1
     1  Si   4.685585
     2  Si   4.685585
     3  S   -2.352246
     4  H   -1.630056
     5  H   -1.754459
     6  H    1.051175
     7  S   -2.352246
     8  H   -1.630056
     9  H   -1.754459
    10  H    1.051175
 Sum of Mulliken charges =  -0.00000
 Mulliken charges with hydrogens summed into heavy atoms:
               1
     1  Si   1.301070
     2  Si   1.301070
     3  S   -1.301070
     7  S   -1.301070
 Electronic spatial extent (au):  <R**2>=           1135.7775
 Charge=             -0.0000 electrons
 Dipole moment (field-independent basis, Debye):
    X=             -0.0000    Y=              0.0000    Z=             -1.4323  Tot=              1.4323

 Test job not archived.
 1\1\GINC-SE402\SP\RHF\Aug-CC-pVDZ\H6S2Si2\OHZDE\09-Apr-2025\0\\#t hf a
 ug-cc-pvdz iop(5/13=1,5/36=2,99/5=2) pseudo=read geom=check guess=(rea
 d,tcheck) scf=(maxcycle=1)\\title\\0,1\Si,0,1.132637,0.939402,0.335575
 \Si,0,-1.132637,0.939402,-0.335575\S,0,-2.119819,-0.913038,0.225143\H,
 0,-1.239711,1.1617,-1.796844\H,0,-1.899402,1.985873,0.379867\H,0,-1.37
 9351,-1.690605,-0.586478\S,0,2.119819,-0.913038,-0.225143\H,0,1.239711
 ,1.1617,1.796844\H,0,1.899402,1.985873,-0.379867\H,0,1.379351,-1.69060
 5,0.586478\\Version=ES64L-G16RevC.01\State=1-A\HF=-1377.2577962\RMSD=1
 .234e-01\Dipole=0.,-0.5635105,0.\Quadrupole=2.7869963,0.4325509,-3.219
 5472,0.,-4.7512368,0.\PG=C02 [X(H6S2Si2)]\\@


 THE PROMISED LAND ALWAYS LIES ON THE OTHER SIDE OF A WILDERNESS.

                         -- HAVELOCK ELLIS
 Job cpu time:       0 days  0 hours  0 minutes 32.6 seconds.
 Elapsed time:       0 days  0 hours  0 minutes  3.0 seconds.
 File lengths (MBytes):  RWF=     10 Int=      0 D2E=      0 Chk=      5 Scr=      1
 Normal termination of Gaussian 16 at Wed Apr  9 00:12:40 2025.
