 Entering Gaussian System, Link 0=g16
 Input=BDE49_nonexpt_918_mol1.gjf
 Output=BDE49_nonexpt_918_mol1.log
 Initial command:
 /arc/software/Gaussian/g16.c01/l1.exe "/tmp/slurm/4855490/Gau-952846.inp" -scrdir="/tmp/slurm/4855490/"
 Entering Link 1 = /arc/software/Gaussian/g16.c01/l1.exe PID=    952847.
  
 Copyright (c) 1988-2019, Gaussian, Inc.  All Rights Reserved.
  
 This is part of the Gaussian(R) 16 program.  It is based on
 the Gaussian(R) 09 system (copyright 2009, Gaussian, Inc.),
 the Gaussian(R) 03 system (copyright 2003, Gaussian, Inc.),
 the Gaussian(R) 98 system (copyright 1998, Gaussian, Inc.),
 the Gaussian(R) 94 system (copyright 1995, Gaussian, Inc.),
 the Gaussian 92(TM) system (copyright 1992, Gaussian, Inc.),
 the Gaussian 90(TM) system (copyright 1990, Gaussian, Inc.),
 the Gaussian 88(TM) system (copyright 1988, Gaussian, Inc.),
 the Gaussian 86(TM) system (copyright 1986, Carnegie Mellon
 University), and the Gaussian 82(TM) system (copyright 1983,
 Carnegie Mellon University). Gaussian is a federally registered
 trademark of Gaussian, Inc.
  
 This software contains proprietary and confidential information,
 including trade secrets, belonging to Gaussian, Inc.
  
 This software is provided under written license and may be
 used, copied, transmitted, or stored only in accord with that
 written license.
  
 The following legend is applicable only to US Government
 contracts under FAR:
  
                    RESTRICTED RIGHTS LEGEND
  
 Use, reproduction and disclosure by the US Government is
 subject to restrictions as set forth in subparagraphs (a)
 and (c) of the Commercial Computer Software - Restricted
 Rights clause in FAR 52.227-19.
  
 Gaussian, Inc.
 340 Quinnipiac St., Bldg. 40, Wallingford CT 06492
  
  
 ---------------------------------------------------------------
 Warning -- This program may not be used in any manner that
 competes with the business of Gaussian, Inc. or will provide
 assistance to any competitor of Gaussian, Inc.  The licensee
 of this program is prohibited from giving any competitor of
 Gaussian, Inc. access to this program.  By using this program,
 the user acknowledges that Gaussian, Inc. is engaged in the
 business of creating and licensing software in the field of
 computational chemistry and represents and warrants to the
 licensee that it is not a competitor of Gaussian, Inc. and that
 it will not use this program in any manner prohibited above.
 ---------------------------------------------------------------
  

 Cite this work as:
 Gaussian 16, Revision C.01,
 M. J. Frisch, G. W. Trucks, H. B. Schlegel, G. E. Scuseria, 
 M. A. Robb, J. R. Cheeseman, G. Scalmani, V. Barone, 
 G. A. Petersson, H. Nakatsuji, X. Li, M. Caricato, A. V. Marenich, 
 J. Bloino, B. G. Janesko, R. Gomperts, B. Mennucci, H. P. Hratchian, 
 J. V. Ortiz, A. F. Izmaylov, J. L. Sonnenberg, D. Williams-Young, 
 F. Ding, F. Lipparini, F. Egidi, J. Goings, B. Peng, A. Petrone, 
 T. Henderson, D. Ranasinghe, V. G. Zakrzewski, J. Gao, N. Rega, 
 G. Zheng, W. Liang, M. Hada, M. Ehara, K. Toyota, R. Fukuda, 
 J. Hasegawa, M. Ishida, T. Nakajima, Y. Honda, O. Kitao, H. Nakai, 
 T. Vreven, K. Throssell, J. A. Montgomery, Jr., J. E. Peralta, 
 F. Ogliaro, M. J. Bearpark, J. J. Heyd, E. N. Brothers, K. N. Kudin, 
 V. N. Staroverov, T. A. Keith, R. Kobayashi, J. Normand, 
 K. Raghavachari, A. P. Rendell, J. C. Burant, S. S. Iyengar, 
 J. Tomasi, M. Cossi, J. M. Millam, M. Klene, C. Adamo, R. Cammi, 
 J. W. Ochterski, R. L. Martin, K. Morokuma, O. Farkas, 
 J. B. Foresman, and D. J. Fox, Gaussian, Inc., Wallingford CT, 2019.
 
 ******************************************
 Gaussian 16:  ES64L-G16RevC.01  3-Jul-2019
                 9-Apr-2025 
 ******************************************
 %nprocs=16
 Will use up to   16 processors via shared memory.
 %mem=30GB
 %chk=BDE49_nonexpt_918_mol1.chk
 ----------------------------------------------------------------------
 #t hf aug-cc-pvdz symm=none int=(grid=ultrafine) guess=(read,tcheck) s
 table=(opt,rrhf)
 ----------------------------------------------------------------------
 -----
 title
 -----
 Symbolic Z-matrix:
 Charge =  0 Multiplicity = 1
 B                    -1.72329   0.18323  -0.11109 
 S                    -0.6065   -1.18637   0.23745 
 F                    -1.46744   1.43619   0.25116 
 F                    -2.86797  -0.05944  -0.73566 
 C                     0.82735  -0.29106   1.02502 
 C                     1.80594   0.26632   0.02634 
 C                     1.93343   1.58457  -0.13198 
 C                     2.62424  -0.73358  -0.7473 
 H                     2.64451   2.00236  -0.83619 
 H                     1.32993   2.28677   0.43167 
 H                     3.29726  -0.23922  -1.44909 
 H                     3.22669  -1.35123  -0.07121 
 H                     1.97996  -1.41507  -1.31191 
 H                     1.29492  -1.05239   1.65362 
 H                     0.42014   0.48626   1.66736 
 
                    Distance matrix (angstroms):
                    1          2          3          4          5
     1  B    0.000000
     2  S    1.801254   0.000000
     3  F    1.329130   2.760292   0.000000
     4  F    1.326367   2.707607   2.274244   0.000000
     5  C    2.832227   1.864885   2.974613   4.099883   0.000000
     6  C    3.532890   2.823965   3.483414   4.746811   1.505221
     7  C    3.916092   3.777012   3.425593   5.110829   2.465775
     8  C    4.488469   3.407703   4.737788   5.533440   2.562372
     9  H    4.786721   4.678650   4.290805   5.886301   3.467844
    10  H    3.747214   3.981228   2.929392   4.948704   2.692555
    11  H    5.212933   4.356703   5.329184   6.208975   3.496336
    12  H    5.182523   3.849135   5.468867   6.265391   2.842980
    13  H    4.208394   3.023669   4.738921   5.066772   2.837803
    14  H    3.708185   2.374644   3.973738   4.901459   1.092422
    15  H    2.801613   2.428238   2.543806   4.109007   1.087494
                    6          7          8          9         10
     6  C    0.000000
     7  C    1.333829   0.000000
     8  C    1.505959   2.495926   0.000000
     9  H    2.112100   1.084482   2.737452   0.000000
    10  H    2.114967   1.083967   3.491085   1.848370   0.000000
    11  H    2.157887   2.630786   1.090804   2.413792   3.713252
    12  H    2.155114   3.208608   1.096146   3.488648   4.133476
    13  H    2.155977   3.223695   1.094674   3.513789   4.143205
    14  H    2.155969   3.248019   2.762815   4.165578   3.555895
    15  H    2.159115   2.594984   3.489502   3.676158   2.365689
                   11         12         13         14         15
    11  H    0.000000
    12  H    1.772028   0.000000
    13  H    1.771079   1.760041   0.000000
    14  H    3.781192   2.606933   3.065154   0.000000
    15  H    4.303067   3.778325   3.863172   1.769995   0.000000
 Symmetry turned off by external request.
 Rotational constants (GHZ):           2.7962873           1.0254115           0.8603346
   251 basis functions,   459 primitive gaussians,   267 cartesian basis functions
    35 alpha electrons       35 beta electrons
       nuclear repulsion energy       430.4652415165 Hartrees.
 NAtoms=   15 NActive=   15 NUniq=   15 SFac= 1.00D+00 NAtFMM=   60 NAOKFM=F Big=F
 ExpMin= 2.38D-02 ExpMax= 1.11D+05 ExpMxC= 1.07D+03 IAcc=3 IRadAn=         5 AccDes= 0.00D+00
 Harris functional with IExCor=  205 and IRadAn=       5 diagonalized for initial guess.
 HarFok:  IExCor=  205 AccDes= 0.00D+00 IRadAn=         5 IDoV= 1 UseB2=F ITyADJ=14
 ICtDFT=  3500011 ScaDFX=  1.000000  1.000000  1.000000  1.000000
 FoFCou: FMM=F IPFlag=           0 FMFlag=      100000 FMFlg1=           0
         NFxFlg=           0 DoJE=T BraDBF=F KetDBF=T FulRan=T
         wScrn=  0.000000 ICntrl=       500 IOpCl=  0 I1Cent=   200000004 NGrid=           0
         NMat0=    1 NMatS0=      1 NMatT0=    0 NMatD0=    1 NMtDS0=    0 NMtDT0=    0
 Symmetry not used in FoFCou.
 SCF Done:  E(RHF) =  -776.819422554     A.U. after   13 cycles
            NFock= 13  Conv=0.72D-08     -V/T= 2.0004

 **********************************************************************

            Population analysis using the SCF Density.

 **********************************************************************

 Alpha  occ. eigenvalues --  -91.96695 -26.33271 -26.32859 -11.28820 -11.26146
 Alpha  occ. eigenvalues --  -11.23784 -11.23554  -8.97062  -7.75590  -6.65248
 Alpha  occ. eigenvalues --   -6.65113  -6.64982  -1.65490  -1.62396  -1.12160
 Alpha  occ. eigenvalues --   -1.02548  -0.94861  -0.90224  -0.81995  -0.76857
 Alpha  occ. eigenvalues --   -0.73949  -0.72179  -0.71842  -0.66541  -0.66103
 Alpha  occ. eigenvalues --   -0.64059  -0.63659  -0.58732  -0.56217  -0.53512
 Alpha  occ. eigenvalues --   -0.52646  -0.50519  -0.46111  -0.38964  -0.36092
 Alpha virt. eigenvalues --    0.03309   0.04259   0.04555   0.05122   0.06132
 Alpha virt. eigenvalues --    0.06330   0.06747   0.07042   0.07937   0.09063
 Alpha virt. eigenvalues --    0.10033   0.11058   0.11909   0.12796   0.13702
 Alpha virt. eigenvalues --    0.14487   0.14832   0.15372   0.16164   0.16496
 Alpha virt. eigenvalues --    0.17257   0.17466   0.18347   0.18883   0.19590
 Alpha virt. eigenvalues --    0.20045   0.20591   0.21423   0.22107   0.23376
 Alpha virt. eigenvalues --    0.23685   0.25486   0.26097   0.27377   0.28077
 Alpha virt. eigenvalues --    0.29277   0.29765   0.30455   0.30666   0.31638
 Alpha virt. eigenvalues --    0.31899   0.32719   0.33667   0.34020   0.34822
 Alpha virt. eigenvalues --    0.36930   0.38707   0.39866   0.39959   0.41250
 Alpha virt. eigenvalues --    0.41409   0.43014   0.43521   0.44510   0.44770
 Alpha virt. eigenvalues --    0.45606   0.46251   0.46860   0.48208   0.48778
 Alpha virt. eigenvalues --    0.50334   0.51680   0.51899   0.52721   0.53352
 Alpha virt. eigenvalues --    0.54074   0.54521   0.55298   0.56816   0.57128
 Alpha virt. eigenvalues --    0.58129   0.58268   0.59998   0.60183   0.61229
 Alpha virt. eigenvalues --    0.61698   0.63031   0.64603   0.65369   0.66615
 Alpha virt. eigenvalues --    0.66963   0.67339   0.68025   0.68689   0.70353
 Alpha virt. eigenvalues --    0.71411   0.71766   0.72905   0.73787   0.74365
 Alpha virt. eigenvalues --    0.75799   0.77093   0.77579   0.79361   0.80470
 Alpha virt. eigenvalues --    0.82295   0.82861   0.84203   0.84954   0.86162
 Alpha virt. eigenvalues --    0.87052   0.89325   0.90102   0.90520   0.92979
 Alpha virt. eigenvalues --    0.95323   0.96842   1.00312   1.04188   1.05491
 Alpha virt. eigenvalues --    1.07584   1.09060   1.10010   1.11748   1.12694
 Alpha virt. eigenvalues --    1.14108   1.15704   1.17194   1.18599   1.18790
 Alpha virt. eigenvalues --    1.21422   1.21757   1.25112   1.27005   1.29306
 Alpha virt. eigenvalues --    1.33208   1.33815   1.34461   1.35897   1.36873
 Alpha virt. eigenvalues --    1.37529   1.43451   1.48055   1.49053   1.51305
 Alpha virt. eigenvalues --    1.54454   1.55614   1.56579   1.58519   1.61533
 Alpha virt. eigenvalues --    1.62621   1.64106   1.65392   1.66682   1.68832
 Alpha virt. eigenvalues --    1.70081   1.71114   1.72245   1.74244   1.77049
 Alpha virt. eigenvalues --    1.77996   1.80234   1.81202   1.83268   1.84130
 Alpha virt. eigenvalues --    1.85533   1.88218   1.89832   1.91533   1.94147
 Alpha virt. eigenvalues --    1.96671   1.97800   2.00864   2.02909   2.04312
 Alpha virt. eigenvalues --    2.07001   2.07705   2.09111   2.10954   2.16541
 Alpha virt. eigenvalues --    2.17307   2.18907   2.22021   2.24422   2.27137
 Alpha virt. eigenvalues --    2.29105   2.31469   2.34212   2.35855   2.37131
 Alpha virt. eigenvalues --    2.40174   2.42570   2.45534   2.47025   2.50798
 Alpha virt. eigenvalues --    2.51913   2.55642   2.59746   2.62938   2.66283
 Alpha virt. eigenvalues --    2.68713   2.70624   2.74481   2.80087   2.82387
 Alpha virt. eigenvalues --    2.84769   2.88954   2.91642   2.96984   3.03694
 Alpha virt. eigenvalues --    3.13020   3.23543   3.29108   3.36198   3.53575
 Alpha virt. eigenvalues --    3.90885   4.91997   4.92206   4.96851   4.97138
 Alpha virt. eigenvalues --    4.98707   5.02651   5.05082   5.07899   5.12631
 Alpha virt. eigenvalues --    5.17714
          Condensed to atoms (all electrons):
 Mulliken charges:
               1
     1  B    1.388961
     2  S   -0.034306
     3  F   -0.447319
     4  F   -0.666430
     5  C    0.176276
     6  C   -0.409302
     7  C    1.125039
     8  C    0.115011
     9  H   -0.391665
    10  H   -0.410869
    11  H   -0.150519
    12  H    0.047920
    13  H    0.043850
    14  H   -0.084179
    15  H   -0.302466
 Sum of Mulliken charges =   0.00000
 Mulliken charges with hydrogens summed into heavy atoms:
               1
     1  B    1.388961
     2  S   -0.034306
     3  F   -0.447319
     4  F   -0.666430
     5  C   -0.210370
     6  C   -0.409302
     7  C    0.322504
     8  C    0.056262
 Electronic spatial extent (au):  <R**2>=           1333.4412
 Charge=              0.0000 electrons
 Dipole moment (field-independent basis, Debye):
    X=              2.2702    Y=             -0.0256    Z=              0.7718  Tot=              2.3980
 NROrb=    251 NOA=    35 NOB=    35 NVA=   216 NVB=   216

 **** Warning!!: The largest alpha MO coefficient is  0.61904907D+02

    12 initial guesses have been made.
 Iteration     1 Dimension    12 NMult     0 NNew     12
 New state      1 was old state      2
 Iteration     2 Dimension    24 NMult    12 NNew     12
 Iteration     3 Dimension    27 NMult    24 NNew      3
 New state      1 was old state      2
 Iteration     4 Dimension    30 NMult    27 NNew      3
 Iteration     5 Dimension    33 NMult    30 NNew      3
 Iteration     6 Dimension    36 NMult    33 NNew      3
 Iteration     7 Dimension    39 NMult    36 NNew      3
 Iteration     8 Dimension    42 NMult    39 NNew      3
 ***********************************************************************
 Stability analysis using <AA,BB:AA,BB> singles matrix:
 ***********************************************************************
 Ground to excited state transition densities written to RWF  633

 Eigenvectors of the stability matrix:
 
 Excited state symmetry could not be determined.
 Eigenvector   1:      Singlet-?Sym  Eigenvalue= 0.2532357  <S**2>=0.000
      34 -> 36        -0.11152
      34 -> 42         0.15172
      34 -> 47         0.18010
      34 -> 50        -0.36079
      34 -> 66         0.11795
      34 -> 69        -0.12732
      35 -> 42        -0.14256
      35 -> 47        -0.24675
      35 -> 50         0.13938
 The wavefunction is stable under the perturbations considered.
 The wavefunction is already stable.

 **********************************************************************

            Population analysis using the SCF Density.

 **********************************************************************

 Alpha  occ. eigenvalues --  -91.96695 -26.33271 -26.32859 -11.28820 -11.26146
 Alpha  occ. eigenvalues --  -11.23784 -11.23554  -8.97062  -7.75590  -6.65248
 Alpha  occ. eigenvalues --   -6.65113  -6.64982  -1.65490  -1.62396  -1.12160
 Alpha  occ. eigenvalues --   -1.02548  -0.94861  -0.90224  -0.81995  -0.76857
 Alpha  occ. eigenvalues --   -0.73949  -0.72179  -0.71842  -0.66541  -0.66103
 Alpha  occ. eigenvalues --   -0.64059  -0.63659  -0.58732  -0.56217  -0.53512
 Alpha  occ. eigenvalues --   -0.52646  -0.50519  -0.46111  -0.38964  -0.36092
 Alpha virt. eigenvalues --    0.03309   0.04259   0.04555   0.05122   0.06132
 Alpha virt. eigenvalues --    0.06330   0.06747   0.07042   0.07937   0.09063
 Alpha virt. eigenvalues --    0.10033   0.11058   0.11909   0.12796   0.13702
 Alpha virt. eigenvalues --    0.14487   0.14832   0.15372   0.16164   0.16496
 Alpha virt. eigenvalues --    0.17257   0.17466   0.18347   0.18883   0.19590
 Alpha virt. eigenvalues --    0.20045   0.20591   0.21423   0.22107   0.23376
 Alpha virt. eigenvalues --    0.23685   0.25486   0.26097   0.27377   0.28077
 Alpha virt. eigenvalues --    0.29277   0.29765   0.30455   0.30666   0.31638
 Alpha virt. eigenvalues --    0.31899   0.32719   0.33667   0.34020   0.34822
 Alpha virt. eigenvalues --    0.36930   0.38707   0.39866   0.39959   0.41250
 Alpha virt. eigenvalues --    0.41409   0.43014   0.43521   0.44510   0.44770
 Alpha virt. eigenvalues --    0.45606   0.46251   0.46860   0.48208   0.48778
 Alpha virt. eigenvalues --    0.50334   0.51680   0.51899   0.52721   0.53352
 Alpha virt. eigenvalues --    0.54074   0.54521   0.55298   0.56816   0.57128
 Alpha virt. eigenvalues --    0.58129   0.58268   0.59998   0.60183   0.61229
 Alpha virt. eigenvalues --    0.61698   0.63031   0.64603   0.65369   0.66615
 Alpha virt. eigenvalues --    0.66963   0.67339   0.68025   0.68689   0.70353
 Alpha virt. eigenvalues --    0.71411   0.71766   0.72905   0.73787   0.74365
 Alpha virt. eigenvalues --    0.75799   0.77093   0.77579   0.79361   0.80470
 Alpha virt. eigenvalues --    0.82295   0.82861   0.84203   0.84954   0.86162
 Alpha virt. eigenvalues --    0.87052   0.89325   0.90102   0.90520   0.92979
 Alpha virt. eigenvalues --    0.95323   0.96842   1.00312   1.04188   1.05491
 Alpha virt. eigenvalues --    1.07584   1.09060   1.10010   1.11748   1.12694
 Alpha virt. eigenvalues --    1.14108   1.15704   1.17194   1.18599   1.18790
 Alpha virt. eigenvalues --    1.21422   1.21757   1.25112   1.27005   1.29306
 Alpha virt. eigenvalues --    1.33208   1.33815   1.34461   1.35897   1.36873
 Alpha virt. eigenvalues --    1.37529   1.43451   1.48055   1.49053   1.51305
 Alpha virt. eigenvalues --    1.54454   1.55614   1.56579   1.58519   1.61533
 Alpha virt. eigenvalues --    1.62621   1.64106   1.65392   1.66682   1.68832
 Alpha virt. eigenvalues --    1.70081   1.71114   1.72245   1.74244   1.77049
 Alpha virt. eigenvalues --    1.77996   1.80234   1.81202   1.83268   1.84130
 Alpha virt. eigenvalues --    1.85533   1.88218   1.89832   1.91533   1.94147
 Alpha virt. eigenvalues --    1.96671   1.97800   2.00864   2.02909   2.04312
 Alpha virt. eigenvalues --    2.07001   2.07705   2.09111   2.10954   2.16541
 Alpha virt. eigenvalues --    2.17307   2.18907   2.22021   2.24422   2.27137
 Alpha virt. eigenvalues --    2.29105   2.31469   2.34212   2.35855   2.37131
 Alpha virt. eigenvalues --    2.40174   2.42570   2.45534   2.47025   2.50798
 Alpha virt. eigenvalues --    2.51913   2.55642   2.59746   2.62938   2.66283
 Alpha virt. eigenvalues --    2.68713   2.70624   2.74481   2.80087   2.82387
 Alpha virt. eigenvalues --    2.84769   2.88954   2.91642   2.96984   3.03694
 Alpha virt. eigenvalues --    3.13020   3.23543   3.29108   3.36198   3.53575
 Alpha virt. eigenvalues --    3.90885   4.91997   4.92206   4.96851   4.97138
 Alpha virt. eigenvalues --    4.98707   5.02651   5.05082   5.07899   5.12631
 Alpha virt. eigenvalues --    5.17714
          Condensed to atoms (all electrons):
 Mulliken charges:
               1
     1  B    1.388961
     2  S   -0.034306
     3  F   -0.447319
     4  F   -0.666430
     5  C    0.176276
     6  C   -0.409302
     7  C    1.125039
     8  C    0.115011
     9  H   -0.391665
    10  H   -0.410869
    11  H   -0.150519
    12  H    0.047920
    13  H    0.043850
    14  H   -0.084179
    15  H   -0.302466
 Sum of Mulliken charges =   0.00000
 Mulliken charges with hydrogens summed into heavy atoms:
               1
     1  B    1.388961
     2  S   -0.034306
     3  F   -0.447319
     4  F   -0.666430
     5  C   -0.210370
     6  C   -0.409302
     7  C    0.322504
     8  C    0.056262
 Electronic spatial extent (au):  <R**2>=           1333.4412
 Charge=              0.0000 electrons
 Dipole moment (field-independent basis, Debye):
    X=              2.2702    Y=             -0.0256    Z=              0.7718  Tot=              2.3980
 Unable to Open any file for archive entry.
 1\1\GINC-SE069\Stability\RHF\Aug-CC-pVDZ\C4H7B1F2S1\OHZDE\09-Apr-2025\
 0\\#t hf aug-cc-pvdz symm=none int=(grid=ultrafine) guess=(read,tcheck
 ) stable=(opt,rrhf)\\title\\0,1\B,0,-1.723294,0.183234,-0.111093\S,0,-
 0.606503,-1.18637,0.237447\F,0,-1.467439,1.436189,0.25116\F,0,-2.86796
 9,-0.059437,-0.735656\C,0,0.827352,-0.291061,1.025024\C,0,1.805944,0.2
 6632,0.026338\C,0,1.933425,1.58457,-0.131979\C,0,2.62424,-0.733577,-0.
 747297\H,0,2.644512,2.002356,-0.836188\H,0,1.32993,2.286767,0.431667\H
 ,0,3.297261,-0.239221,-1.449087\H,0,3.226693,-1.351231,-0.071213\H,0,1
 .979957,-1.415066,-1.311906\H,0,1.294924,-1.052392,1.653624\H,0,0.4201
 41,0.486259,1.667361\\Version=ES64L-G16RevC.01\HF=-776.8194226\RMSD=7.
 161e-09\Dipole=0.8931768,-0.0100907,0.3036442\Quadrupole=-1.0658261,-0
 .5838757,1.6497018,-0.7733277,-1.5231441,-0.550508\PG=Unknown\\@
 The archive entry for this job was punched.


 YOU KNOW YOU'VE SPOKEN TOO LONG WHEN THE AUDIENCE STOPS LOOKING AT
 THEIR WATCHES AND STARTS SHAKING THEM.
 Job cpu time:       0 days  0 hours  9 minutes 51.6 seconds.
 Elapsed time:       0 days  0 hours  0 minutes 41.3 seconds.
 File lengths (MBytes):  RWF=    325 Int=      0 D2E=      0 Chk=      9 Scr=      1
 Normal termination of Gaussian 16 at Wed Apr  9 00:51:35 2025.
 Initial command:
 /arc/software/Gaussian/g16.c01/l1.exe "/tmp/slurm/4855490/Gau-952846.inp" -scrdir="/tmp/slurm/4855490/"
 Entering Link 1 = /arc/software/Gaussian/g16.c01/l1.exe PID=    953275.
  
 Copyright (c) 1988-2019, Gaussian, Inc.  All Rights Reserved.
  
 This is part of the Gaussian(R) 16 program.  It is based on
 the Gaussian(R) 09 system (copyright 2009, Gaussian, Inc.),
 the Gaussian(R) 03 system (copyright 2003, Gaussian, Inc.),
 the Gaussian(R) 98 system (copyright 1998, Gaussian, Inc.),
 the Gaussian(R) 94 system (copyright 1995, Gaussian, Inc.),
 the Gaussian 92(TM) system (copyright 1992, Gaussian, Inc.),
 the Gaussian 90(TM) system (copyright 1990, Gaussian, Inc.),
 the Gaussian 88(TM) system (copyright 1988, Gaussian, Inc.),
 the Gaussian 86(TM) system (copyright 1986, Carnegie Mellon
 University), and the Gaussian 82(TM) system (copyright 1983,
 Carnegie Mellon University). Gaussian is a federally registered
 trademark of Gaussian, Inc.
  
 This software contains proprietary and confidential information,
 including trade secrets, belonging to Gaussian, Inc.
  
 This software is provided under written license and may be
 used, copied, transmitted, or stored only in accord with that
 written license.
  
 The following legend is applicable only to US Government
 contracts under FAR:
  
                    RESTRICTED RIGHTS LEGEND
  
 Use, reproduction and disclosure by the US Government is
 subject to restrictions as set forth in subparagraphs (a)
 and (c) of the Commercial Computer Software - Restricted
 Rights clause in FAR 52.227-19.
  
 Gaussian, Inc.
 340 Quinnipiac St., Bldg. 40, Wallingford CT 06492
  
  
 ---------------------------------------------------------------
 Warning -- This program may not be used in any manner that
 competes with the business of Gaussian, Inc. or will provide
 assistance to any competitor of Gaussian, Inc.  The licensee
 of this program is prohibited from giving any competitor of
 Gaussian, Inc. access to this program.  By using this program,
 the user acknowledges that Gaussian, Inc. is engaged in the
 business of creating and licensing software in the field of
 computational chemistry and represents and warrants to the
 licensee that it is not a competitor of Gaussian, Inc. and that
 it will not use this program in any manner prohibited above.
 ---------------------------------------------------------------
  

 Cite this work as:
 Gaussian 16, Revision C.01,
 M. J. Frisch, G. W. Trucks, H. B. Schlegel, G. E. Scuseria, 
 M. A. Robb, J. R. Cheeseman, G. Scalmani, V. Barone, 
 G. A. Petersson, H. Nakatsuji, X. Li, M. Caricato, A. V. Marenich, 
 J. Bloino, B. G. Janesko, R. Gomperts, B. Mennucci, H. P. Hratchian, 
 J. V. Ortiz, A. F. Izmaylov, J. L. Sonnenberg, D. Williams-Young, 
 F. Ding, F. Lipparini, F. Egidi, J. Goings, B. Peng, A. Petrone, 
 T. Henderson, D. Ranasinghe, V. G. Zakrzewski, J. Gao, N. Rega, 
 G. Zheng, W. Liang, M. Hada, M. Ehara, K. Toyota, R. Fukuda, 
 J. Hasegawa, M. Ishida, T. Nakajima, Y. Honda, O. Kitao, H. Nakai, 
 T. Vreven, K. Throssell, J. A. Montgomery, Jr., J. E. Peralta, 
 F. Ogliaro, M. J. Bearpark, J. J. Heyd, E. N. Brothers, K. N. Kudin, 
 V. N. Staroverov, T. A. Keith, R. Kobayashi, J. Normand, 
 K. Raghavachari, A. P. Rendell, J. C. Burant, S. S. Iyengar, 
 J. Tomasi, M. Cossi, J. M. Millam, M. Klene, C. Adamo, R. Cammi, 
 J. W. Ochterski, R. L. Martin, K. Morokuma, O. Farkas, 
 J. B. Foresman, and D. J. Fox, Gaussian, Inc., Wallingford CT, 2019.
 
 ******************************************
 Gaussian 16:  ES64L-G16RevC.01  3-Jul-2019
                 9-Apr-2025 
 ******************************************
 %nprocs=16
 Will use up to   16 processors via shared memory.
 %mem=30GB
 %chk=BDE49_nonexpt_918_mol1.chk
 ----------------------------------------------------------------------
 #t hf aug-cc-pvdz iop(5/13=1,5/36=2,99/5=2) pseudo=read geom=check gue
 ss=(read,tcheck) scf=(maxcycle=1)
 ----------------------------------------------------------------------
 -----
 title
 -----
 Structure from the checkpoint file:  "BDE49_nonexpt_918_mol1.chk"
 Charge =  0 Multiplicity = 1
 Z-Matrix found in chk file.
 B,0,-1.723294,0.183234,-0.111093
 S,0,-0.606503,-1.18637,0.237447
 F,0,-1.467439,1.436189,0.25116
 F,0,-2.867969,-0.059437,-0.735656
 C,0,0.827352,-0.291061,1.025024
 C,0,1.805944,0.26632,0.026338
 C,0,1.933425,1.58457,-0.131979
 C,0,2.62424,-0.733577,-0.747297
 H,0,2.644512,2.002356,-0.836188
 H,0,1.32993,2.286767,0.431667
 H,0,3.297261,-0.239221,-1.449087
 H,0,3.226693,-1.351231,-0.071213
 H,0,1.979957,-1.415066,-1.311906
 H,0,1.294924,-1.052392,1.653624
 H,0,0.420141,0.486259,1.667361
 Recover connectivity data from disk.
                    Distance matrix (angstroms):
                    1          2          3          4          5
     1  B    0.000000
     2  S    1.801254   0.000000
     3  F    1.329130   2.760292   0.000000
     4  F    1.326367   2.707607   2.274244   0.000000
     5  C    2.832227   1.864885   2.974613   4.099883   0.000000
     6  C    3.532890   2.823965   3.483414   4.746811   1.505221
     7  C    3.916092   3.777012   3.425593   5.110829   2.465775
     8  C    4.488469   3.407703   4.737788   5.533440   2.562372
     9  H    4.786721   4.678650   4.290805   5.886301   3.467844
    10  H    3.747214   3.981228   2.929392   4.948704   2.692555
    11  H    5.212933   4.356703   5.329184   6.208975   3.496336
    12  H    5.182523   3.849135   5.468867   6.265391   2.842980
    13  H    4.208394   3.023669   4.738921   5.066772   2.837803
    14  H    3.708185   2.374644   3.973738   4.901459   1.092422
    15  H    2.801613   2.428238   2.543806   4.109007   1.087494
                    6          7          8          9         10
     6  C    0.000000
     7  C    1.333829   0.000000
     8  C    1.505959   2.495926   0.000000
     9  H    2.112100   1.084482   2.737452   0.000000
    10  H    2.114967   1.083967   3.491085   1.848370   0.000000
    11  H    2.157887   2.630786   1.090804   2.413792   3.713252
    12  H    2.155114   3.208608   1.096146   3.488648   4.133476
    13  H    2.155977   3.223695   1.094674   3.513789   4.143205
    14  H    2.155969   3.248019   2.762815   4.165578   3.555895
    15  H    2.159115   2.594984   3.489502   3.676158   2.365689
                   11         12         13         14         15
    11  H    0.000000
    12  H    1.772028   0.000000
    13  H    1.771079   1.760041   0.000000
    14  H    3.781192   2.606933   3.065154   0.000000
    15  H    4.303067   3.778325   3.863172   1.769995   0.000000
 Framework group  C1[X(C4H7BF2S)]
 Deg. of freedom    39
                         Standard orientation:                         
 ---------------------------------------------------------------------
 Center     Atomic      Atomic             Coordinates (Angstroms)
 Number     Number       Type             X           Y           Z
 ---------------------------------------------------------------------
      1          5           0       -1.723294    0.183234   -0.111093
      2         16           0       -0.606503   -1.186370    0.237447
      3          9           0       -1.467439    1.436189    0.251160
      4          9           0       -2.867969   -0.059437   -0.735656
      5          6           0        0.827352   -0.291061    1.025024
      6          6           0        1.805944    0.266320    0.026338
      7          6           0        1.933425    1.584570   -0.131979
      8          6           0        2.624240   -0.733577   -0.747297
      9          1           0        2.644512    2.002356   -0.836188
     10          1           0        1.329930    2.286767    0.431667
     11          1           0        3.297261   -0.239221   -1.449087
     12          1           0        3.226693   -1.351231   -0.071213
     13          1           0        1.979957   -1.415066   -1.311906
     14          1           0        1.294924   -1.052392    1.653624
     15          1           0        0.420141    0.486259    1.667361
 ---------------------------------------------------------------------
 Rotational constants (GHZ):           2.7962873           1.0254115           0.8603346
 ======================================================================================================
                                       Pseudopotential Parameters
 ======================================================================================================
  Center     Atomic      Valence      Angular      Power
  Number     Number     Electrons     Momentum     of R      Exponent        Coefficient   SO-Coeffient
 ======================================================================================================
    1          5            5
                                      G and up 
                                                     0        0.0000010        0.00322401    0.00000000
                                                     2        0.1200000        0.00498000    0.00000000
                                                     2        0.2000000        0.09485229    0.00000000
                                                     2        0.2400000        0.01359109    0.00000000
                                                     2        0.4000000       -0.77574495    0.00000000
                                                     2        0.7000000        4.88158264    0.00000000
                                                     2        3.0000000       -1.47570482    0.00000000
                                      S - G
                                                     0        0.0000010       -0.03355475    0.00000000
                                                     2        0.1200000        0.61074044    0.00000000
                                                     2        0.2000000       -2.07118504    0.00000000
                                      P - G
                                                     0        0.0000010       -1.02759347    0.00000000
                                                     2        0.1200000        0.64674346    0.00000000
                                                     2        0.2000000       -0.92012472    0.00000000
                                      D - G
                                                     0        0.0000010        1.26102689    0.00000000
                                                     2        0.1200000       -0.86577517    0.00000000
                                                     2        0.4000000        3.34267170    0.00000000
                                                     2        0.9000000      -12.60945446    0.00000000
                                      F - G
                                                     0        0.0000010       -0.36092963    0.00000000
                                                     2        0.1200000       -0.17118798    0.00000000
                                                     2        0.1600000        0.78727920    0.00000000
                                                     2        0.8000000       -6.62088660    0.00000000
                                                     2        1.0000000      -57.27416670    0.00000000
    2         16           16
                                      G and up 
                                                     0        0.0000010       -0.00444167    0.00000000
                                                     2        0.1200000        0.11677988    0.00000000
                                                     2        0.1400000       -0.22050378    0.00000000
                                                     2        0.1800000        0.26452031    0.00000000
                                                     2        0.2800000       -0.04353316    0.00000000
                                                     2        0.5000000       -1.18567514    0.00000000
                                      S - G
                                                     0        0.0000010        0.03992419    0.00000000
                                                     2        0.1200000       -0.56926432    0.00000000
                                                     2        0.3000000        0.88393965    0.00000000
                                      P - G
                                                     0        0.0000010       -0.92181603    0.00000000
                                                     2        0.1200000        1.30681810    0.00000000
                                                     2        0.2000000       -1.50828653    0.00000000
                                                     2        0.2400000       -2.25148793    0.00000000
                                                     2        0.6000000       10.10218731    0.00000000
                                      D - G
                                                     0        0.0000010        0.72039481    0.00000000
                                                     2        0.1200000       -0.56105075    0.00000000
                                                     2        0.2000000        0.42910414    0.00000000
                                                     2        0.8000000        0.44203418    0.00000000
                                      F - G
                                                     2        0.1200000       -0.62623060    0.00000000
                                                     2        0.1800000        0.89777932    0.00000000
                                                     2        0.5000000       -1.32991832    0.00000000
    3          9            9
                                      G and up 
                                                     0        0.0000010       -0.00152163    0.00000000
                                                     2        0.1200000       -0.09043016    0.00000000
                                                     2        0.1400000        0.25628512    0.00000000
                                                     2        0.2000000       -0.31987377    0.00000000
                                                     2        0.3000000        0.48912429    0.00000000
                                                     2        0.4000000        0.12183688    0.00000000
                                                     2        0.6000000       -0.79963093    0.00000000
                                                     2        1.3000000        1.98943307    0.00000000
                                      S - G
                                                     0        0.0000010       -0.05404402    0.00000000
                                                     2        0.1200000        1.31674577    0.00000000
                                                     2        0.2400000       -4.28550771    0.00000000
                                                     2        0.8000000        7.13027769    0.00000000
                                      P - G
                                                     0        0.0000010       -0.03280113    0.00000000
                                                     2        0.1200000       -0.11684768    0.00000000
                                                     2        0.2200000       -0.54710751    0.00000000
                                                     2        0.6000000        1.00412264    0.00000000
                                      D - G
                                                     0        0.0000010       -0.09872413    0.00000000
                                                     2        0.1600000        0.32020158    0.00000000
                                                     2        0.5000000       -3.54424892    0.00000000
                                      F - G
                                                     0        0.0000010        0.17152509    0.00000000
                                                     2        0.1200000       -0.51731546    0.00000000
                                                     2        0.4000000        2.52461867    0.00000000
    4          9            9
                                      G and up 
                                                     0        0.0000010       -0.00152163    0.00000000
                                                     2        0.1200000       -0.09043016    0.00000000
                                                     2        0.1400000        0.25628512    0.00000000
                                                     2        0.2000000       -0.31987377    0.00000000
                                                     2        0.3000000        0.48912429    0.00000000
                                                     2        0.4000000        0.12183688    0.00000000
                                                     2        0.6000000       -0.79963093    0.00000000
                                                     2        1.3000000        1.98943307    0.00000000
                                      S - G
                                                     0        0.0000010       -0.05404402    0.00000000
                                                     2        0.1200000        1.31674577    0.00000000
                                                     2        0.2400000       -4.28550771    0.00000000
                                                     2        0.8000000        7.13027769    0.00000000
                                      P - G
                                                     0        0.0000010       -0.03280113    0.00000000
                                                     2        0.1200000       -0.11684768    0.00000000
                                                     2        0.2200000       -0.54710751    0.00000000
                                                     2        0.6000000        1.00412264    0.00000000
                                      D - G
                                                     0        0.0000010       -0.09872413    0.00000000
                                                     2        0.1600000        0.32020158    0.00000000
                                                     2        0.5000000       -3.54424892    0.00000000
                                      F - G
                                                     0        0.0000010        0.17152509    0.00000000
                                                     2        0.1200000       -0.51731546    0.00000000
                                                     2        0.4000000        2.52461867    0.00000000
    5          6            6
                                      G and up 
                                                     0        0.0000010       -0.00286759    0.00000000
                                                     2        0.1200000        0.03193960    0.00000000
                                                     2        0.1600000       -0.04027782    0.00000000
                                                     2        0.2600000        0.24782456    0.00000000
                                                     2        0.4000000       -0.62266671    0.00000000
                                                     2        0.7000000        0.35695227    0.00000000
                                      S - G
                                                     0        0.0000010       -0.06602313    0.00000000
                                                     2        0.1200000        1.47277455    0.00000000
                                                     2        0.1600000       -4.06924166    0.00000000
                                                     2        0.3000000        5.02952802    0.00000000
                                                     2        0.7000000       -5.65856978    0.00000000
                                                     2        1.7000000        8.57604414    0.00000000
                                      P - G
                                                     0        0.0000010        0.49434425    0.00000000
                                                     2        0.1200000       -1.37391547    0.00000000
                                                     2        0.1600000        3.65411806    0.00000000
                                                     2        0.2800000       -7.36479843    0.00000000
                                                     2        0.6000000       17.22091285    0.00000000
                                                     2        1.1000000      -23.50107827    0.00000000
                                                     2        3.0000000       16.29464063    0.00000000
                                      D - G
                                                     0        0.0000010       -0.28693103    0.00000000
                                                     2        0.1200000        0.12273044    0.00000000
                                                     2        0.3000000       -0.43416384    0.00000000
                                                     2        0.7000000        2.23358493    0.00000000
                                      F - G
                                                     0        0.0000010        0.07263570    0.00000000
                                                     2        0.1400000       -0.76152861    0.00000000
                                                     2        0.2200000        1.98045593    0.00000000
                                                     2        0.4000000       -2.42426427    0.00000000
                                                     2        0.7000000        0.52335237    0.00000000
    6          6            6
                                      G and up 
                                                     0        0.0000010       -0.00286759    0.00000000
                                                     2        0.1200000        0.03193960    0.00000000
                                                     2        0.1600000       -0.04027782    0.00000000
                                                     2        0.2600000        0.24782456    0.00000000
                                                     2        0.4000000       -0.62266671    0.00000000
                                                     2        0.7000000        0.35695227    0.00000000
                                      S - G
                                                     0        0.0000010       -0.06602313    0.00000000
                                                     2        0.1200000        1.47277455    0.00000000
                                                     2        0.1600000       -4.06924166    0.00000000
                                                     2        0.3000000        5.02952802    0.00000000
                                                     2        0.7000000       -5.65856978    0.00000000
                                                     2        1.7000000        8.57604414    0.00000000
                                      P - G
                                                     0        0.0000010        0.49434425    0.00000000
                                                     2        0.1200000       -1.37391547    0.00000000
                                                     2        0.1600000        3.65411806    0.00000000
                                                     2        0.2800000       -7.36479843    0.00000000
                                                     2        0.6000000       17.22091285    0.00000000
                                                     2        1.1000000      -23.50107827    0.00000000
                                                     2        3.0000000       16.29464063    0.00000000
                                      D - G
                                                     0        0.0000010       -0.28693103    0.00000000
                                                     2        0.1200000        0.12273044    0.00000000
                                                     2        0.3000000       -0.43416384    0.00000000
                                                     2        0.7000000        2.23358493    0.00000000
                                      F - G
                                                     0        0.0000010        0.07263570    0.00000000
                                                     2        0.1400000       -0.76152861    0.00000000
                                                     2        0.2200000        1.98045593    0.00000000
                                                     2        0.4000000       -2.42426427    0.00000000
                                                     2        0.7000000        0.52335237    0.00000000
    7          6            6
                                      G and up 
                                                     0        0.0000010       -0.00286759    0.00000000
                                                     2        0.1200000        0.03193960    0.00000000
                                                     2        0.1600000       -0.04027782    0.00000000
                                                     2        0.2600000        0.24782456    0.00000000
                                                     2        0.4000000       -0.62266671    0.00000000
                                                     2        0.7000000        0.35695227    0.00000000
                                      S - G
                                                     0        0.0000010       -0.06602313    0.00000000
                                                     2        0.1200000        1.47277455    0.00000000
                                                     2        0.1600000       -4.06924166    0.00000000
                                                     2        0.3000000        5.02952802    0.00000000
                                                     2        0.7000000       -5.65856978    0.00000000
                                                     2        1.7000000        8.57604414    0.00000000
                                      P - G
                                                     0        0.0000010        0.49434425    0.00000000
                                                     2        0.1200000       -1.37391547    0.00000000
                                                     2        0.1600000        3.65411806    0.00000000
                                                     2        0.2800000       -7.36479843    0.00000000
                                                     2        0.6000000       17.22091285    0.00000000
                                                     2        1.1000000      -23.50107827    0.00000000
                                                     2        3.0000000       16.29464063    0.00000000
                                      D - G
                                                     0        0.0000010       -0.28693103    0.00000000
                                                     2        0.1200000        0.12273044    0.00000000
                                                     2        0.3000000       -0.43416384    0.00000000
                                                     2        0.7000000        2.23358493    0.00000000
                                      F - G
                                                     0        0.0000010        0.07263570    0.00000000
                                                     2        0.1400000       -0.76152861    0.00000000
                                                     2        0.2200000        1.98045593    0.00000000
                                                     2        0.4000000       -2.42426427    0.00000000
                                                     2        0.7000000        0.52335237    0.00000000
    8          6            6
                                      G and up 
                                                     0        0.0000010       -0.00286759    0.00000000
                                                     2        0.1200000        0.03193960    0.00000000
                                                     2        0.1600000       -0.04027782    0.00000000
                                                     2        0.2600000        0.24782456    0.00000000
                                                     2        0.4000000       -0.62266671    0.00000000
                                                     2        0.7000000        0.35695227    0.00000000
                                      S - G
                                                     0        0.0000010       -0.06602313    0.00000000
                                                     2        0.1200000        1.47277455    0.00000000
                                                     2        0.1600000       -4.06924166    0.00000000
                                                     2        0.3000000        5.02952802    0.00000000
                                                     2        0.7000000       -5.65856978    0.00000000
                                                     2        1.7000000        8.57604414    0.00000000
                                      P - G
                                                     0        0.0000010        0.49434425    0.00000000
                                                     2        0.1200000       -1.37391547    0.00000000
                                                     2        0.1600000        3.65411806    0.00000000
                                                     2        0.2800000       -7.36479843    0.00000000
                                                     2        0.6000000       17.22091285    0.00000000
                                                     2        1.1000000      -23.50107827    0.00000000
                                                     2        3.0000000       16.29464063    0.00000000
                                      D - G
                                                     0        0.0000010       -0.28693103    0.00000000
                                                     2        0.1200000        0.12273044    0.00000000
                                                     2        0.3000000       -0.43416384    0.00000000
                                                     2        0.7000000        2.23358493    0.00000000
                                      F - G
                                                     0        0.0000010        0.07263570    0.00000000
                                                     2        0.1400000       -0.76152861    0.00000000
                                                     2        0.2200000        1.98045593    0.00000000
                                                     2        0.4000000       -2.42426427    0.00000000
                                                     2        0.7000000        0.52335237    0.00000000
    9          1            1
                                      F and up 
                                                     0        0.0000010        0.00072061    0.00000000
                                                     2        0.1200000        0.03832357    0.00000000
                                                     2        0.1400000       -0.08683256    0.00000000
                                                     2        0.1800000        0.09312970    0.00000000
                                                     2        0.2800000       -0.02532572    0.00000000
                                                     2        0.4000000       -0.09430787    0.00000000
                                                     2        0.7000000        0.42710831    0.00000000
                                                     2        1.2000000       -2.11746981    0.00000000
                                      S - F
                                                     0        0.0000010        0.14449603    0.00000000
                                                     2        0.1200000       -0.56378993    0.00000000
                                                     2        0.1400000        0.63941249    0.00000000
                                                     2        0.2600000       -0.58461015    0.00000000
                                                     2        0.5000000        1.00157293    0.00000000
                                                     2        1.8000000       -0.14135838    0.00000000
                                      P - F
                                                     0        0.0000010       -0.09353646    0.00000000
                                                     2        0.1200000        0.31768975    0.00000000
                                                     2        0.2000000       -0.71747951    0.00000000
                                                     2        0.4000000        0.65752308    0.00000000
                                                     2        1.7000000        2.94052587    0.00000000
                                      D - F
                                                     0        0.0000010       -0.04491202    0.00000000
                                                     2        0.1200000       -0.02862031    0.00000000
                                                     2        0.1800000       -0.21515263    0.00000000
                                                     2        0.3000000        0.80560647    0.00000000
                                                     2        0.4000000        0.47351754    0.00000000
                                                     2        0.7000000       -4.57051794    0.00000000
                                                     2        1.6000000       18.53737826    0.00000000
   10          1            1
                                      F and up 
                                                     0        0.0000010        0.00072061    0.00000000
                                                     2        0.1200000        0.03832357    0.00000000
                                                     2        0.1400000       -0.08683256    0.00000000
                                                     2        0.1800000        0.09312970    0.00000000
                                                     2        0.2800000       -0.02532572    0.00000000
                                                     2        0.4000000       -0.09430787    0.00000000
                                                     2        0.7000000        0.42710831    0.00000000
                                                     2        1.2000000       -2.11746981    0.00000000
                                      S - F
                                                     0        0.0000010        0.14449603    0.00000000
                                                     2        0.1200000       -0.56378993    0.00000000
                                                     2        0.1400000        0.63941249    0.00000000
                                                     2        0.2600000       -0.58461015    0.00000000
                                                     2        0.5000000        1.00157293    0.00000000
                                                     2        1.8000000       -0.14135838    0.00000000
                                      P - F
                                                     0        0.0000010       -0.09353646    0.00000000
                                                     2        0.1200000        0.31768975    0.00000000
                                                     2        0.2000000       -0.71747951    0.00000000
                                                     2        0.4000000        0.65752308    0.00000000
                                                     2        1.7000000        2.94052587    0.00000000
                                      D - F
                                                     0        0.0000010       -0.04491202    0.00000000
                                                     2        0.1200000       -0.02862031    0.00000000
                                                     2        0.1800000       -0.21515263    0.00000000
                                                     2        0.3000000        0.80560647    0.00000000
                                                     2        0.4000000        0.47351754    0.00000000
                                                     2        0.7000000       -4.57051794    0.00000000
                                                     2        1.6000000       18.53737826    0.00000000
   11          1            1
                                      F and up 
                                                     0        0.0000010        0.00072061    0.00000000
                                                     2        0.1200000        0.03832357    0.00000000
                                                     2        0.1400000       -0.08683256    0.00000000
                                                     2        0.1800000        0.09312970    0.00000000
                                                     2        0.2800000       -0.02532572    0.00000000
                                                     2        0.4000000       -0.09430787    0.00000000
                                                     2        0.7000000        0.42710831    0.00000000
                                                     2        1.2000000       -2.11746981    0.00000000
                                      S - F
                                                     0        0.0000010        0.14449603    0.00000000
                                                     2        0.1200000       -0.56378993    0.00000000
                                                     2        0.1400000        0.63941249    0.00000000
                                                     2        0.2600000       -0.58461015    0.00000000
                                                     2        0.5000000        1.00157293    0.00000000
                                                     2        1.8000000       -0.14135838    0.00000000
                                      P - F
                                                     0        0.0000010       -0.09353646    0.00000000
                                                     2        0.1200000        0.31768975    0.00000000
                                                     2        0.2000000       -0.71747951    0.00000000
                                                     2        0.4000000        0.65752308    0.00000000
                                                     2        1.7000000        2.94052587    0.00000000
                                      D - F
                                                     0        0.0000010       -0.04491202    0.00000000
                                                     2        0.1200000       -0.02862031    0.00000000
                                                     2        0.1800000       -0.21515263    0.00000000
                                                     2        0.3000000        0.80560647    0.00000000
                                                     2        0.4000000        0.47351754    0.00000000
                                                     2        0.7000000       -4.57051794    0.00000000
                                                     2        1.6000000       18.53737826    0.00000000
   12          1            1
                                      F and up 
                                                     0        0.0000010        0.00072061    0.00000000
                                                     2        0.1200000        0.03832357    0.00000000
                                                     2        0.1400000       -0.08683256    0.00000000
                                                     2        0.1800000        0.09312970    0.00000000
                                                     2        0.2800000       -0.02532572    0.00000000
                                                     2        0.4000000       -0.09430787    0.00000000
                                                     2        0.7000000        0.42710831    0.00000000
                                                     2        1.2000000       -2.11746981    0.00000000
                                      S - F
                                                     0        0.0000010        0.14449603    0.00000000
                                                     2        0.1200000       -0.56378993    0.00000000
                                                     2        0.1400000        0.63941249    0.00000000
                                                     2        0.2600000       -0.58461015    0.00000000
                                                     2        0.5000000        1.00157293    0.00000000
                                                     2        1.8000000       -0.14135838    0.00000000
                                      P - F
                                                     0        0.0000010       -0.09353646    0.00000000
                                                     2        0.1200000        0.31768975    0.00000000
                                                     2        0.2000000       -0.71747951    0.00000000
                                                     2        0.4000000        0.65752308    0.00000000
                                                     2        1.7000000        2.94052587    0.00000000
                                      D - F
                                                     0        0.0000010       -0.04491202    0.00000000
                                                     2        0.1200000       -0.02862031    0.00000000
                                                     2        0.1800000       -0.21515263    0.00000000
                                                     2        0.3000000        0.80560647    0.00000000
                                                     2        0.4000000        0.47351754    0.00000000
                                                     2        0.7000000       -4.57051794    0.00000000
                                                     2        1.6000000       18.53737826    0.00000000
   13          1            1
                                      F and up 
                                                     0        0.0000010        0.00072061    0.00000000
                                                     2        0.1200000        0.03832357    0.00000000
                                                     2        0.1400000       -0.08683256    0.00000000
                                                     2        0.1800000        0.09312970    0.00000000
                                                     2        0.2800000       -0.02532572    0.00000000
                                                     2        0.4000000       -0.09430787    0.00000000
                                                     2        0.7000000        0.42710831    0.00000000
                                                     2        1.2000000       -2.11746981    0.00000000
                                      S - F
                                                     0        0.0000010        0.14449603    0.00000000
                                                     2        0.1200000       -0.56378993    0.00000000
                                                     2        0.1400000        0.63941249    0.00000000
                                                     2        0.2600000       -0.58461015    0.00000000
                                                     2        0.5000000        1.00157293    0.00000000
                                                     2        1.8000000       -0.14135838    0.00000000
                                      P - F
                                                     0        0.0000010       -0.09353646    0.00000000
                                                     2        0.1200000        0.31768975    0.00000000
                                                     2        0.2000000       -0.71747951    0.00000000
                                                     2        0.4000000        0.65752308    0.00000000
                                                     2        1.7000000        2.94052587    0.00000000
                                      D - F
                                                     0        0.0000010       -0.04491202    0.00000000
                                                     2        0.1200000       -0.02862031    0.00000000
                                                     2        0.1800000       -0.21515263    0.00000000
                                                     2        0.3000000        0.80560647    0.00000000
                                                     2        0.4000000        0.47351754    0.00000000
                                                     2        0.7000000       -4.57051794    0.00000000
                                                     2        1.6000000       18.53737826    0.00000000
   14          1            1
                                      F and up 
                                                     0        0.0000010        0.00072061    0.00000000
                                                     2        0.1200000        0.03832357    0.00000000
                                                     2        0.1400000       -0.08683256    0.00000000
                                                     2        0.1800000        0.09312970    0.00000000
                                                     2        0.2800000       -0.02532572    0.00000000
                                                     2        0.4000000       -0.09430787    0.00000000
                                                     2        0.7000000        0.42710831    0.00000000
                                                     2        1.2000000       -2.11746981    0.00000000
                                      S - F
                                                     0        0.0000010        0.14449603    0.00000000
                                                     2        0.1200000       -0.56378993    0.00000000
                                                     2        0.1400000        0.63941249    0.00000000
                                                     2        0.2600000       -0.58461015    0.00000000
                                                     2        0.5000000        1.00157293    0.00000000
                                                     2        1.8000000       -0.14135838    0.00000000
                                      P - F
                                                     0        0.0000010       -0.09353646    0.00000000
                                                     2        0.1200000        0.31768975    0.00000000
                                                     2        0.2000000       -0.71747951    0.00000000
                                                     2        0.4000000        0.65752308    0.00000000
                                                     2        1.7000000        2.94052587    0.00000000
                                      D - F
                                                     0        0.0000010       -0.04491202    0.00000000
                                                     2        0.1200000       -0.02862031    0.00000000
                                                     2        0.1800000       -0.21515263    0.00000000
                                                     2        0.3000000        0.80560647    0.00000000
                                                     2        0.4000000        0.47351754    0.00000000
                                                     2        0.7000000       -4.57051794    0.00000000
                                                     2        1.6000000       18.53737826    0.00000000
   15          1            1
                                      F and up 
                                                     0        0.0000010        0.00072061    0.00000000
                                                     2        0.1200000        0.03832357    0.00000000
                                                     2        0.1400000       -0.08683256    0.00000000
                                                     2        0.1800000        0.09312970    0.00000000
                                                     2        0.2800000       -0.02532572    0.00000000
                                                     2        0.4000000       -0.09430787    0.00000000
                                                     2        0.7000000        0.42710831    0.00000000
                                                     2        1.2000000       -2.11746981    0.00000000
                                      S - F
                                                     0        0.0000010        0.14449603    0.00000000
                                                     2        0.1200000       -0.56378993    0.00000000
                                                     2        0.1400000        0.63941249    0.00000000
                                                     2        0.2600000       -0.58461015    0.00000000
                                                     2        0.5000000        1.00157293    0.00000000
                                                     2        1.8000000       -0.14135838    0.00000000
                                      P - F
                                                     0        0.0000010       -0.09353646    0.00000000
                                                     2        0.1200000        0.31768975    0.00000000
                                                     2        0.2000000       -0.71747951    0.00000000
                                                     2        0.4000000        0.65752308    0.00000000
                                                     2        1.7000000        2.94052587    0.00000000
                                      D - F
                                                     0        0.0000010       -0.04491202    0.00000000
                                                     2        0.1200000       -0.02862031    0.00000000
                                                     2        0.1800000       -0.21515263    0.00000000
                                                     2        0.3000000        0.80560647    0.00000000
                                                     2        0.4000000        0.47351754    0.00000000
                                                     2        0.7000000       -4.57051794    0.00000000
                                                     2        1.6000000       18.53737826    0.00000000
 ======================================================================================================
   251 basis functions,   459 primitive gaussians,   267 cartesian basis functions
    35 alpha electrons       35 beta electrons
       nuclear repulsion energy       430.4652415165 Hartrees.
 NAtoms=   15 NActive=   15 NUniq=   15 SFac= 1.00D+00 NAtFMM=   60 NAOKFM=F Big=F
   1 Symmetry operations used in ECPInt.
 ECPInt:  NShTT=    5995 NPrTT=   32589 LenC2=    5950 LenP2D=   23483.
 LDataN:  DoStor=T MaxTD1= 6 Len=  172
 Initial guess from the checkpoint file:  "BDE49_nonexpt_918_mol1.chk"
 B after Tr=     0.000000   -0.000000    0.000000
         Rot=    1.000000   -0.000000    0.000000    0.000000 Ang=   0.00 deg.
 >>>>>>>>>> Convergence criterion not met.
 SCF Done:  E(RHF) =  -778.602143090     A.U. after    2 cycles
            NFock=  1  Conv=0.37D+00     -V/T= 2.0186

 **********************************************************************

            Population analysis using the SCF Density.

 **********************************************************************

 Orbital symmetries:
       Occupied  (A) (A) (A) (A) (A) (A) (A) (A) (A) (A) (A) (A)
                 (A) (A) (A) (A) (A) (A) (A) (A) (A) (A) (A) (A)
                 (A) (A) (A) (A) (A) (A) (A) (A) (A) (A) (A)
       Virtual   (A) (A) (A) (A) (A) (A) (A) (A) (A) (A) (A) (A)
                 (A) (A) (A) (A) (A) (A) (A) (A) (A) (A) (A) (A)
                 (A) (A) (A) (A) (A) (A) (A) (A) (A) (A) (A) (A)
                 (A) (A) (A) (A) (A) (A) (A) (A) (A) (A) (A) (A)
                 (A) (A) (A) (A) (A) (A) (A) (A) (A) (A) (A) (A)
                 (A) (A) (A) (A) (A) (A) (A) (A) (A) (A) (A) (A)
                 (A) (A) (A) (A) (A) (A) (A) (A) (A) (A) (A) (A)
                 (A) (A) (A) (A) (A) (A) (A) (A) (A) (A) (A) (A)
                 (A) (A) (A) (A) (A) (A) (A) (A) (A) (A) (A) (A)
                 (A) (A) (A) (A) (A) (A) (A) (A) (A) (A) (A) (A)
                 (A) (A) (A) (A) (A) (A) (A) (A) (A) (A) (A) (A)
                 (A) (A) (A) (A) (A) (A) (A) (A) (A) (A) (A) (A)
                 (A) (A) (A) (A) (A) (A) (A) (A) (A) (A) (A) (A)
                 (A) (A) (A) (A) (A) (A) (A) (A) (A) (A) (A) (A)
                 (A) (A) (A) (A) (A) (A) (A) (A) (A) (A) (A) (A)
                 (A) (A) (A) (A) (A) (A) (A) (A) (A) (A) (A) (A)
                 (A) (A) (A) (A) (A) (A) (A) (A) (A) (A) (A) (A)
                 (A) (A) (A) (A) (A) (A) (A) (A) (A) (A) (A) (A)
 The electronic state is 1-A.
 Alpha  occ. eigenvalues --  -75.69261 -29.26460 -29.26083 -13.17091 -13.11159
 Alpha  occ. eigenvalues --  -13.04920 -11.44683 -11.41781 -11.39270 -11.37063
 Alpha  occ. eigenvalues --   -8.03410  -7.72257  -1.30384  -1.20518  -1.06227
 Alpha  occ. eigenvalues --   -1.00456  -0.94010  -0.77755  -0.75482  -0.65245
 Alpha  occ. eigenvalues --   -0.63332  -0.58843  -0.55607  -0.53006  -0.52141
 Alpha  occ. eigenvalues --   -0.50668  -0.47415  -0.45524  -0.44586  -0.42998
 Alpha  occ. eigenvalues --   -0.35496  -0.34222  -0.30982  -0.26476  -0.24994
 Alpha virt. eigenvalues --    0.02656   0.03523   0.03989   0.05551   0.05777
 Alpha virt. eigenvalues --    0.06088   0.06700   0.07062   0.08740   0.09338
 Alpha virt. eigenvalues --    0.09435   0.11424   0.11956   0.12497   0.13300
 Alpha virt. eigenvalues --    0.14402   0.14740   0.15789   0.15997   0.16877
 Alpha virt. eigenvalues --    0.17345   0.18239   0.18492   0.18956   0.19201
 Alpha virt. eigenvalues --    0.19705   0.20356   0.21413   0.22104   0.22891
 Alpha virt. eigenvalues --    0.23266   0.24026   0.25057   0.25909   0.26942
 Alpha virt. eigenvalues --    0.27823   0.28231   0.28808   0.29342   0.29958
 Alpha virt. eigenvalues --    0.30488   0.31533   0.32120   0.33635   0.34383
 Alpha virt. eigenvalues --    0.35128   0.35830   0.37417   0.38554   0.40035
 Alpha virt. eigenvalues --    0.40394   0.41504   0.43028   0.43049   0.44141
 Alpha virt. eigenvalues --    0.44610   0.45104   0.46052   0.46992   0.47233
 Alpha virt. eigenvalues --    0.48091   0.49672   0.49974   0.51268   0.52009
 Alpha virt. eigenvalues --    0.52142   0.53798   0.54102   0.55530   0.55773
 Alpha virt. eigenvalues --    0.56709   0.56732   0.57489   0.58523   0.59910
 Alpha virt. eigenvalues --    0.60328   0.61077   0.61721   0.62495   0.62988
 Alpha virt. eigenvalues --    0.65067   0.65546   0.65998   0.66320   0.67364
 Alpha virt. eigenvalues --    0.68804   0.69192   0.70056   0.71825   0.72970
 Alpha virt. eigenvalues --    0.73333   0.73634   0.74638   0.76014   0.77344
 Alpha virt. eigenvalues --    0.77978   0.78796   0.80085   0.81972   0.83374
 Alpha virt. eigenvalues --    0.84203   0.85514   0.86367   0.87076   0.88239
 Alpha virt. eigenvalues --    0.89031   0.89557   0.90922   0.92261   0.93094
 Alpha virt. eigenvalues --    0.93546   0.95828   0.97893   0.99992   1.03323
 Alpha virt. eigenvalues --    1.04378   1.07361   1.12431   1.16264   1.19489
 Alpha virt. eigenvalues --    1.23087   1.24379   1.25269   1.26704   1.27625
 Alpha virt. eigenvalues --    1.29990   1.31984   1.33067   1.34044   1.37656
 Alpha virt. eigenvalues --    1.38993   1.41387   1.44473   1.46263   1.48709
 Alpha virt. eigenvalues --    1.52237   1.55517   1.58199   1.59197   1.62519
 Alpha virt. eigenvalues --    1.65045   1.70505   1.71353   1.73229   1.78990
 Alpha virt. eigenvalues --    1.81275   1.83694   1.85730   1.88836   1.93637
 Alpha virt. eigenvalues --    1.94555   1.96376   1.97560   1.98927   2.00865
 Alpha virt. eigenvalues --    2.01563   2.03025   2.06870   2.08776   2.09361
 Alpha virt. eigenvalues --    2.11941   2.16053   2.18506   2.19909   2.22290
 Alpha virt. eigenvalues --    2.23810   2.26895   2.30201   2.31891   2.33761
 Alpha virt. eigenvalues --    2.34962   2.37303   2.41387   2.45180   2.50315
 Alpha virt. eigenvalues --    2.52737   2.53759   2.57471   2.62019   2.63037
 Alpha virt. eigenvalues --    2.65265   2.68821   2.70204   2.72014   2.73645
 Alpha virt. eigenvalues --    2.77244   2.79824   2.83278   2.87618   2.91629
 Alpha virt. eigenvalues --    2.95120   2.98370   3.03462   3.07833   3.13271
 Alpha virt. eigenvalues --    3.22594   3.30586   3.36450   3.47102   3.60128
 Alpha virt. eigenvalues --    3.62251   3.62953   3.67306   3.68786   3.73408
 Alpha virt. eigenvalues --    3.76191   3.76357   3.80695   3.81576   3.86027
 Alpha virt. eigenvalues --    3.89901   3.90377   3.93323   4.01306   4.30006
 Alpha virt. eigenvalues --    4.80905
          Condensed to atoms (all electrons):
 Mulliken charges:
               1
     1  B    2.060232
     2  S   -1.263697
     3  F   -1.129754
     4  F    0.502200
     5  C   -4.116027
     6  C    2.850134
     7  C   -4.382041
     8  C   -4.584669
     9  H    1.587318
    10  H    1.621061
    11  H    1.355433
    12  H    1.168895
    13  H    1.325916
    14  H    1.457945
    15  H    1.547053
 Sum of Mulliken charges =  -0.00000
 Mulliken charges with hydrogens summed into heavy atoms:
               1
     1  B    2.060232
     2  S   -1.263697
     3  F   -1.129754
     4  F    0.502200
     5  C   -1.111028
     6  C    2.850134
     7  C   -1.173662
     8  C   -0.734425
 Electronic spatial extent (au):  <R**2>=           1362.2559
 Charge=             -0.0000 electrons
 Dipole moment (field-independent basis, Debye):
    X=             -0.7869    Y=              1.0085    Z=             -0.2489  Tot=              1.3031

 Test job not archived.
 1\1\GINC-SE069\SP\RHF\Aug-CC-pVDZ\C4H7B1F2S1\OHZDE\09-Apr-2025\0\\#t h
 f aug-cc-pvdz iop(5/13=1,5/36=2,99/5=2) pseudo=read geom=check guess=(
 read,tcheck) scf=(maxcycle=1)\\title\\0,1\B,0,-1.723294,0.183234,-0.11
 1093\S,0,-0.606503,-1.18637,0.237447\F,0,-1.467439,1.436189,0.25116\F,
 0,-2.867969,-0.059437,-0.735656\C,0,0.827352,-0.291061,1.025024\C,0,1.
 805944,0.26632,0.026338\C,0,1.933425,1.58457,-0.131979\C,0,2.62424,-0.
 733577,-0.747297\H,0,2.644512,2.002356,-0.836188\H,0,1.32993,2.286767,
 0.431667\H,0,3.297261,-0.239221,-1.449087\H,0,3.226693,-1.351231,-0.07
 1213\H,0,1.979957,-1.415066,-1.311906\H,0,1.294924,-1.052392,1.653624\
 H,0,0.420141,0.486259,1.667361\\Version=ES64L-G16RevC.01\State=1-A\HF=
 -778.6021431\RMSD=3.657e-01\Dipole=-0.3095856,0.3967562,-0.0979142\Qua
 drupole=2.2620723,0.5135996,-2.7756718,-0.9826764,2.0049793,1.0170763\
 PG=C01 [X(C4H7B1F2S1)]\\@


 Everything starts as somebody's daydream.
                           -- Larry Niven
 Job cpu time:       0 days  0 hours  1 minutes 16.6 seconds.
 Elapsed time:       0 days  0 hours  0 minutes  5.6 seconds.
 File lengths (MBytes):  RWF=     14 Int=      0 D2E=      0 Chk=      9 Scr=      1
 Normal termination of Gaussian 16 at Wed Apr  9 00:51:41 2025.
