 Entering Gaussian System, Link 0=g16
 Input=BH10_6_reverse_mol2.gjf
 Output=BH10_6_reverse_mol2.log
 Initial command:
 /arc/software/Gaussian/g16.c01/l1.exe "/tmp/slurm/4856577/Gau-1820466.inp" -scrdir="/tmp/slurm/4856577/"
 Entering Link 1 = /arc/software/Gaussian/g16.c01/l1.exe PID=   1820467.
  
 Copyright (c) 1988-2019, Gaussian, Inc.  All Rights Reserved.
  
 This is part of the Gaussian(R) 16 program.  It is based on
 the Gaussian(R) 09 system (copyright 2009, Gaussian, Inc.),
 the Gaussian(R) 03 system (copyright 2003, Gaussian, Inc.),
 the Gaussian(R) 98 system (copyright 1998, Gaussian, Inc.),
 the Gaussian(R) 94 system (copyright 1995, Gaussian, Inc.),
 the Gaussian 92(TM) system (copyright 1992, Gaussian, Inc.),
 the Gaussian 90(TM) system (copyright 1990, Gaussian, Inc.),
 the Gaussian 88(TM) system (copyright 1988, Gaussian, Inc.),
 the Gaussian 86(TM) system (copyright 1986, Carnegie Mellon
 University), and the Gaussian 82(TM) system (copyright 1983,
 Carnegie Mellon University). Gaussian is a federally registered
 trademark of Gaussian, Inc.
  
 This software contains proprietary and confidential information,
 including trade secrets, belonging to Gaussian, Inc.
  
 This software is provided under written license and may be
 used, copied, transmitted, or stored only in accord with that
 written license.
  
 The following legend is applicable only to US Government
 contracts under FAR:
  
                    RESTRICTED RIGHTS LEGEND
  
 Use, reproduction and disclosure by the US Government is
 subject to restrictions as set forth in subparagraphs (a)
 and (c) of the Commercial Computer Software - Restricted
 Rights clause in FAR 52.227-19.
  
 Gaussian, Inc.
 340 Quinnipiac St., Bldg. 40, Wallingford CT 06492
  
  
 ---------------------------------------------------------------
 Warning -- This program may not be used in any manner that
 competes with the business of Gaussian, Inc. or will provide
 assistance to any competitor of Gaussian, Inc.  The licensee
 of this program is prohibited from giving any competitor of
 Gaussian, Inc. access to this program.  By using this program,
 the user acknowledges that Gaussian, Inc. is engaged in the
 business of creating and licensing software in the field of
 computational chemistry and represents and warrants to the
 licensee that it is not a competitor of Gaussian, Inc. and that
 it will not use this program in any manner prohibited above.
 ---------------------------------------------------------------
  

 Cite this work as:
 Gaussian 16, Revision C.01,
 M. J. Frisch, G. W. Trucks, H. B. Schlegel, G. E. Scuseria, 
 M. A. Robb, J. R. Cheeseman, G. Scalmani, V. Barone, 
 G. A. Petersson, H. Nakatsuji, X. Li, M. Caricato, A. V. Marenich, 
 J. Bloino, B. G. Janesko, R. Gomperts, B. Mennucci, H. P. Hratchian, 
 J. V. Ortiz, A. F. Izmaylov, J. L. Sonnenberg, D. Williams-Young, 
 F. Ding, F. Lipparini, F. Egidi, J. Goings, B. Peng, A. Petrone, 
 T. Henderson, D. Ranasinghe, V. G. Zakrzewski, J. Gao, N. Rega, 
 G. Zheng, W. Liang, M. Hada, M. Ehara, K. Toyota, R. Fukuda, 
 J. Hasegawa, M. Ishida, T. Nakajima, Y. Honda, O. Kitao, H. Nakai, 
 T. Vreven, K. Throssell, J. A. Montgomery, Jr., J. E. Peralta, 
 F. Ogliaro, M. J. Bearpark, J. J. Heyd, E. N. Brothers, K. N. Kudin, 
 V. N. Staroverov, T. A. Keith, R. Kobayashi, J. Normand, 
 K. Raghavachari, A. P. Rendell, J. C. Burant, S. S. Iyengar, 
 J. Tomasi, M. Cossi, J. M. Millam, M. Klene, C. Adamo, R. Cammi, 
 J. W. Ochterski, R. L. Martin, K. Morokuma, O. Farkas, 
 J. B. Foresman, and D. J. Fox, Gaussian, Inc., Wallingford CT, 2019.
 
 ******************************************
 Gaussian 16:  ES64L-G16RevC.01  3-Jul-2019
                 9-Apr-2025 
 ******************************************
 %nprocs=16
 Will use up to   16 processors via shared memory.
 %mem=30GB
 %chk=BH10_6_reverse_mol2.chk
 ----------------------------------------------------------------------
 #t hf aug-cc-pvdz symm=none int=(grid=ultrafine) guess=(read,tcheck) s
 table=opt
 ----------------------------------------------------------------------
 -----
 title
 -----
 Symbolic Z-matrix:
 Charge =  0 Multiplicity = 2
 C                     0.33943  -0.60617  -0.02408 
 C                    -1.08812  -1.13994  -0.02851 
 C                    -1.99043   0.11     -0.10241 
 H                    -1.24617  -1.72147   0.8794 
 H                    -1.22255  -1.80555  -0.88042 
 C                    -1.05835   1.29593   0.18451 
 H                    -2.82681   0.06095   0.59459 
 H                    -2.4119    0.2087   -1.1052 
 C                     0.28403   0.86135  -0.44593 
 H                    -0.91971   1.43231   1.2601 
 H                    -1.41897   2.23841  -0.22693 
 C                     1.47044   1.66644  -0.07923 
 F                     0.86524  -0.70051   1.2462 
 F                     1.17527  -1.3394   -0.81918 
 H                     1.85147   2.42631  -0.74653 
 H                     1.93439   1.54078   0.88931 
 H                     0.15364   0.85305  -1.53358 
 
                    Distance matrix (angstroms):
                    1          2          3          4          5
     1  C    0.000000
     2  C    1.524086   0.000000
     3  C    2.438710   1.543368   0.000000
     4  H    2.138758   1.089704   2.207299   0.000000
     5  H    2.147468   1.089428   2.205513   1.761983   0.000000
     6  C    2.369655   2.445345   1.535422   3.102066   3.283321
     7  H    3.294368   2.203046   1.089834   2.399279   2.869338
     8  H    3.066371   2.174963   1.092221   3.003847   2.349956
     9  C    1.527954   2.462158   2.419862   3.281610   3.093698
    10  H    2.718444   2.881898   2.179763   3.193398   3.893231
    11  H    3.350339   3.400308   2.207304   4.115150   4.101131
    12  C    2.539090   3.797972   3.794825   4.447115   4.466414
    13  F    1.378041   2.373526   3.260453   2.373804   3.178446
    14  F    1.366909   2.405805   3.554747   2.982368   2.443485
    15  H    3.464696   4.677060   4.532150   5.426144   5.232227
    16  H    2.826229   4.142974   4.293586   4.556125   4.929114
    17  H    2.107708   2.789127   2.682800   3.796062   3.064101
                    6          7          8          9         10
     6  C    0.000000
     7  H    2.195630   0.000000
     8  H    2.162749   1.755919   0.000000
     9  C    1.545409   3.376486   2.851075   0.000000
    10  H    1.093031   2.441422   3.052611   2.164605   0.000000
    11  H    1.089774   2.719970   2.424245   2.201020   1.763609
    12  C    2.569360   4.636591   4.272022   1.479933   2.749806
    13  F    2.968691   3.825652   4.134653   2.374975   2.781210
    14  F    3.597414   4.469492   3.917425   2.403525   4.049038
    15  H    3.257549   5.411082   4.818997   2.235242   3.562867
    16  H    3.084345   4.994573   4.964142   2.228939   2.880128
    17  H    2.148690   3.746946   2.679680   1.095471   3.048318
                   11         12         13         14         15
    11  H    0.000000
    12  C    2.949186   0.000000
    13  F    4.003121   2.779470   0.000000
    14  F    4.458880   3.109618   2.184059   0.000000
    15  H    3.316789   1.080683   3.836742   3.826629   0.000000
    16  H    3.602464   1.081253   2.508745   3.433749   1.861993
    17  H    2.469750   2.123843   3.262991   2.522093   2.444834
                   16         17
    16  H    0.000000
    17  H    3.084550   0.000000
 Symmetry turned off by external request.
 Rotational constants (GHZ):           2.5399424           2.2254031           1.5866425
   265 basis functions,   443 primitive gaussians,   281 cartesian basis functions
    32 alpha electrons       31 beta electrons
       nuclear repulsion energy       411.8745922340 Hartrees.
 NAtoms=   17 NActive=   17 NUniq=   17 SFac= 1.00D+00 NAtFMM=   60 NAOKFM=F Big=F
 ExpMin= 2.97D-02 ExpMax= 1.47D+04 ExpMxC= 5.03D+02 IAcc=3 IRadAn=         5 AccDes= 0.00D+00
 Harris functional with IExCor=  205 and IRadAn=       5 diagonalized for initial guess.
 HarFok:  IExCor=  205 AccDes= 0.00D+00 IRadAn=         5 IDoV= 1 UseB2=F ITyADJ=14
 ICtDFT=  3500011 ScaDFX=  1.000000  1.000000  1.000000  1.000000
 FoFCou: FMM=F IPFlag=           0 FMFlag=      100000 FMFlg1=           0
         NFxFlg=           0 DoJE=T BraDBF=F KetDBF=T FulRan=T
         wScrn=  0.000000 ICntrl=       500 IOpCl=  0 I1Cent=   200000004 NGrid=           0
         NMat0=    1 NMatS0=      1 NMatT0=    0 NMatD0=    1 NMtDS0=    0 NMtDT0=    0
 Symmetry not used in FoFCou.
 Initial guess <Sx>= 0.0000 <Sy>= 0.0000 <Sz>= 0.5000 <S**2>= 0.7500 S= 0.5000
 SCF Done:  E(UHF) =  -431.345529711     A.U. after   16 cycles
            NFock= 16  Conv=0.88D-08     -V/T= 2.0008
 <Sx>= 0.0000 <Sy>= 0.0000 <Sz>= 0.5000 <S**2>= 0.7632 S= 0.5066
 <L.S>=  0.00000000000    
 Annihilation of the first spin contaminant:
 S**2 before annihilation     0.7632,   after     0.7501

 **********************************************************************

            Population analysis using the SCF Density.

 **********************************************************************

 Alpha  occ. eigenvalues --  -26.30914 -26.30748 -11.40414 -11.24991 -11.24208
 Alpha  occ. eigenvalues --  -11.24197 -11.24150 -11.24099  -1.64982  -1.58730
 Alpha  occ. eigenvalues --   -1.15333  -1.04103  -0.98002  -0.91298  -0.82447
 Alpha  occ. eigenvalues --   -0.81148  -0.75401  -0.71720  -0.70748  -0.66366
 Alpha  occ. eigenvalues --   -0.64695  -0.63963  -0.61272  -0.60123  -0.56744
 Alpha  occ. eigenvalues --   -0.55110  -0.52174  -0.50866  -0.49661  -0.48342
 Alpha  occ. eigenvalues --   -0.47322  -0.35556
 Alpha virt. eigenvalues --    0.03386   0.04198   0.04556   0.05063   0.06326
 Alpha virt. eigenvalues --    0.06598   0.06745   0.07243   0.08263   0.10204
 Alpha virt. eigenvalues --    0.12370   0.13270   0.13661   0.14351   0.14471
 Alpha virt. eigenvalues --    0.14963   0.15104   0.16035   0.16481   0.16826
 Alpha virt. eigenvalues --    0.17596   0.18417   0.18981   0.19110   0.19874
 Alpha virt. eigenvalues --    0.20132   0.21203   0.21968   0.22157   0.23020
 Alpha virt. eigenvalues --    0.24547   0.26715   0.27077   0.29715   0.31163
 Alpha virt. eigenvalues --    0.32613   0.33091   0.33892   0.34599   0.35555
 Alpha virt. eigenvalues --    0.35869   0.36067   0.37133   0.38003   0.39358
 Alpha virt. eigenvalues --    0.39753   0.40754   0.41477   0.42480   0.42890
 Alpha virt. eigenvalues --    0.44040   0.44462   0.45118   0.45930   0.46665
 Alpha virt. eigenvalues --    0.47082   0.47623   0.48559   0.48907   0.49512
 Alpha virt. eigenvalues --    0.50325   0.50492   0.52161   0.52707   0.54323
 Alpha virt. eigenvalues --    0.54704   0.55554   0.56081   0.57037   0.57672
 Alpha virt. eigenvalues --    0.57786   0.59216   0.60360   0.61165   0.62996
 Alpha virt. eigenvalues --    0.63580   0.65194   0.65978   0.67298   0.67534
 Alpha virt. eigenvalues --    0.68352   0.68915   0.69529   0.70410   0.71094
 Alpha virt. eigenvalues --    0.72233   0.72635   0.73445   0.75393   0.76849
 Alpha virt. eigenvalues --    0.77097   0.77617   0.79416   0.80294   0.81069
 Alpha virt. eigenvalues --    0.81275   0.82778   0.83151   0.84511   0.85669
 Alpha virt. eigenvalues --    0.85746   0.87995   0.88332   0.90015   0.91075
 Alpha virt. eigenvalues --    0.91428   0.92768   0.94728   0.97238   0.98329
 Alpha virt. eigenvalues --    1.00105   1.02675   1.03240   1.06128   1.08031
 Alpha virt. eigenvalues --    1.10320   1.12927   1.14032   1.16520   1.18324
 Alpha virt. eigenvalues --    1.21246   1.23092   1.24210   1.28366   1.30685
 Alpha virt. eigenvalues --    1.33869   1.34462   1.35349   1.38210   1.40322
 Alpha virt. eigenvalues --    1.43578   1.45538   1.48605   1.49892   1.52837
 Alpha virt. eigenvalues --    1.55018   1.57406   1.58537   1.59750   1.63262
 Alpha virt. eigenvalues --    1.64295   1.66196   1.68408   1.69667   1.72282
 Alpha virt. eigenvalues --    1.73302   1.76266   1.78816   1.79859   1.81291
 Alpha virt. eigenvalues --    1.82662   1.83531   1.83967   1.84493   1.85860
 Alpha virt. eigenvalues --    1.89886   1.91503   1.94074   1.94415   1.96115
 Alpha virt. eigenvalues --    1.98848   2.00474   2.00650   2.03307   2.04001
 Alpha virt. eigenvalues --    2.05894   2.10732   2.11781   2.12753   2.13167
 Alpha virt. eigenvalues --    2.14701   2.15404   2.17540   2.18601   2.23088
 Alpha virt. eigenvalues --    2.23661   2.25234   2.27458   2.28217   2.29389
 Alpha virt. eigenvalues --    2.31496   2.33657   2.37632   2.43439   2.44627
 Alpha virt. eigenvalues --    2.45668   2.48634   2.49223   2.50818   2.52493
 Alpha virt. eigenvalues --    2.56099   2.56623   2.57748   2.57960   2.60401
 Alpha virt. eigenvalues --    2.65852   2.66427   2.68589   2.71172   2.71854
 Alpha virt. eigenvalues --    2.74509   2.78972   2.82370   2.84496   2.86139
 Alpha virt. eigenvalues --    2.89062   2.91276   2.91843   2.95061   3.00106
 Alpha virt. eigenvalues --    3.03132   3.05840   3.10910   3.16351   3.22963
 Alpha virt. eigenvalues --    3.25376   3.28545   3.34474   3.36857   3.60103
 Alpha virt. eigenvalues --    3.82049   3.95695   4.71755   5.02954   5.03794
 Alpha virt. eigenvalues --    5.10213   5.13179   5.14761   5.18161   5.20735
 Alpha virt. eigenvalues --    5.23139   5.30267   5.31957
  Beta  occ. eigenvalues --  -26.30919 -26.30757 -11.40290 -11.25334 -11.24195
  Beta  occ. eigenvalues --  -11.24126 -11.23864 -11.21772  -1.64976  -1.58748
  Beta  occ. eigenvalues --   -1.14800  -1.01935  -0.97634  -0.86779  -0.82089
  Beta  occ. eigenvalues --   -0.79691  -0.75364  -0.71312  -0.70594  -0.66307
  Beta  occ. eigenvalues --   -0.64510  -0.63677  -0.61256  -0.59359  -0.56107
  Beta  occ. eigenvalues --   -0.54171  -0.51614  -0.49593  -0.49180  -0.47766
  Beta  occ. eigenvalues --   -0.46832
  Beta virt. eigenvalues --    0.03386   0.04236   0.04499   0.05064   0.06284
  Beta virt. eigenvalues --    0.06491   0.06679   0.07228   0.07897   0.09643
  Beta virt. eigenvalues --    0.11080   0.12395   0.13486   0.14053   0.14435
  Beta virt. eigenvalues --    0.15042   0.15139   0.15463   0.16199   0.16806
  Beta virt. eigenvalues --    0.17463   0.18382   0.18502   0.19170   0.19418
  Beta virt. eigenvalues --    0.20013   0.20223   0.21258   0.22127   0.22508
  Beta virt. eigenvalues --    0.23310   0.25345   0.27043   0.27509   0.29946
  Beta virt. eigenvalues --    0.32019   0.32765   0.33488   0.34663   0.34731
  Beta virt. eigenvalues --    0.35884   0.36070   0.36375   0.37624   0.38106
  Beta virt. eigenvalues --    0.39701   0.40054   0.40857   0.41870   0.42682
  Beta virt. eigenvalues --    0.43006   0.44599   0.44799   0.45303   0.46299
  Beta virt. eigenvalues --    0.47082   0.47289   0.47835   0.48760   0.49183
  Beta virt. eigenvalues --    0.49804   0.50709   0.51579   0.52344   0.52974
  Beta virt. eigenvalues --    0.54418   0.55024   0.56200   0.56605   0.57404
  Beta virt. eigenvalues --    0.57931   0.58272   0.60239   0.60914   0.61722
  Beta virt. eigenvalues --    0.63314   0.64153   0.65320   0.67197   0.67834
  Beta virt. eigenvalues --    0.67979   0.68875   0.69485   0.69979   0.70828
  Beta virt. eigenvalues --    0.72198   0.72572   0.73078   0.73821   0.75802
  Beta virt. eigenvalues --    0.77086   0.77644   0.77978   0.79858   0.80823
  Beta virt. eigenvalues --    0.81393   0.81773   0.82924   0.83336   0.84940
  Beta virt. eigenvalues --    0.85843   0.86210   0.88372   0.88808   0.90490
  Beta virt. eigenvalues --    0.91515   0.91722   0.93192   0.94876   0.97413
  Beta virt. eigenvalues --    0.98949   1.00346   1.02953   1.04241   1.07225
  Beta virt. eigenvalues --    1.08283   1.10967   1.13183   1.14321   1.16765
  Beta virt. eigenvalues --    1.19226   1.22238   1.23562   1.24397   1.28710
  Beta virt. eigenvalues --    1.31420   1.34277   1.34955   1.36056   1.38441
  Beta virt. eigenvalues --    1.40779   1.43836   1.46000   1.49246   1.50241
  Beta virt. eigenvalues --    1.53022   1.55249   1.57611   1.58830   1.60369
  Beta virt. eigenvalues --    1.63701   1.64513   1.66863   1.69233   1.70303
  Beta virt. eigenvalues --    1.73334   1.73774   1.76562   1.80013   1.80079
  Beta virt. eigenvalues --    1.81863   1.83435   1.84369   1.84469   1.84831
  Beta virt. eigenvalues --    1.86174   1.90451   1.91625   1.94427   1.95295
  Beta virt. eigenvalues --    1.96644   1.99080   2.00678   2.01388   2.04321
  Beta virt. eigenvalues --    2.04738   2.06032   2.11102   2.11881   2.13101
  Beta virt. eigenvalues --    2.13393   2.15175   2.15660   2.17863   2.19083
  Beta virt. eigenvalues --    2.23492   2.23792   2.25584   2.27783   2.29302
  Beta virt. eigenvalues --    2.29792   2.31947   2.33890   2.37843   2.43841
  Beta virt. eigenvalues --    2.45149   2.45930   2.48975   2.49324   2.50978
  Beta virt. eigenvalues --    2.52868   2.56218   2.56829   2.58064   2.58396
  Beta virt. eigenvalues --    2.60756   2.66030   2.67063   2.68797   2.71766
  Beta virt. eigenvalues --    2.72139   2.74763   2.79162   2.82524   2.84583
  Beta virt. eigenvalues --    2.86265   2.89126   2.91371   2.91933   2.95127
  Beta virt. eigenvalues --    3.00165   3.03205   3.05974   3.11103   3.16550
  Beta virt. eigenvalues --    3.23056   3.25879   3.28985   3.34607   3.36982
  Beta virt. eigenvalues --    3.60220   3.82122   3.95725   4.71813   5.02950
  Beta virt. eigenvalues --    5.03784   5.10216   5.13175   5.14751   5.18157
  Beta virt. eigenvalues --    5.20736   5.23147   5.30264   5.31957
          Condensed to atoms (all electrons):
          Atomic-Atomic Spin Densities.
 Mulliken charges and spin densities:
               1          2
     1  C    1.425920   0.006907
     2  C    0.160566   0.002216
     3  C    0.539129   0.007339
     4  H   -0.073760   0.000660
     5  H   -0.023167   0.000471
     6  C    0.280638   0.064631
     7  H   -0.116442  -0.000083
     8  H   -0.177638   0.000133
     9  C   -0.204382  -0.255927
    10  H   -0.166352  -0.011267
    11  H   -0.156387  -0.007564
    12  C    0.838885   1.415313
    13  F   -0.815809   0.001492
    14  F   -0.780486   0.001499
    15  H   -0.287501  -0.114625
    16  H   -0.234962  -0.114870
    17  H   -0.208253   0.003675
 Sum of Mulliken charges =  -0.00000   1.00000
 Mulliken charges and spin densities with hydrogens summed into heavy atoms:
               1          2
     1  C    1.425920   0.006907
     2  C    0.063639   0.003347
     3  C    0.245049   0.007389
     6  C   -0.042101   0.045800
     9  C   -0.412635  -0.252252
    12  C    0.316421   1.185818
    13  F   -0.815809   0.001492
    14  F   -0.780486   0.001499
 Electronic spatial extent (au):  <R**2>=            865.1127
 Charge=             -0.0000 electrons
 Dipole moment (field-independent basis, Debye):
    X=             -2.4170    Y=              1.4133    Z=             -0.6550  Tot=              2.8755
                          Isotropic Fermi Contact Couplings
        Atom                 a.u.       MegaHertz       Gauss      10(-4) cm-1
     1  C(13)              0.02335      26.24573       9.36513       8.75463
     2  C(13)             -0.00216      -2.42561      -0.86552      -0.80910
     3  C(13)              0.00027       0.30903       0.11027       0.10308
     4  H(1)               0.00032       1.42026       0.50678       0.47375
     5  H(1)               0.00003       0.14688       0.05241       0.04899
     6  C(13)              0.05470      61.49834      21.94414      20.51364
     7  H(1)               0.00050       2.23011       0.79576       0.74388
     8  H(1)              -0.00007      -0.32743      -0.11683      -0.10922
     9  C(13)             -0.06386     -71.79371     -25.61778     -23.94780
    10  H(1)              -0.00150      -6.69689      -2.38962      -2.23384
    11  H(1)              -0.00163      -7.29958      -2.60467      -2.43488
    12  C(13)              0.20725     232.99399      83.13805      77.71843
    13  F(19)             -0.00127      -5.36355      -1.91385      -1.78909
    14  F(19)             -0.00139      -5.84586      -2.08595      -1.94997
    15  H(1)              -0.02628    -117.45883     -41.91223     -39.18005
    16  H(1)              -0.02581    -115.35542     -41.16168     -38.47842
    17  H(1)               0.00455      20.32033       7.25080       6.77813
 --------------------------------------------------------
       Center         ----  Spin Dipole Couplings  ----
                      3XX-RR        3YY-RR        3ZZ-RR
 --------------------------------------------------------
     1   Atom       -0.018484      0.037491     -0.019007
     2   Atom        0.002475      0.000722     -0.003198
     3   Atom        0.001548      0.005664     -0.007211
     4   Atom        0.000213      0.001307     -0.001520
     5   Atom        0.000316      0.001231     -0.001547
     6   Atom        0.067944     -0.040336     -0.027607
     7   Atom        0.002318     -0.000889     -0.001430
     8   Atom        0.002152     -0.001349     -0.000803
     9   Atom       -0.001161     -0.000542      0.001703
    10   Atom        0.005059     -0.009262      0.004203
    11   Atom        0.010285     -0.001619     -0.008666
    12   Atom        0.077588      0.196543     -0.274132
    13   Atom       -0.002290      0.009800     -0.007510
    14   Atom        0.002383      0.003249     -0.005632
    15   Atom       -0.031589      0.037857     -0.006268
    16   Atom       -0.021615     -0.042977      0.064592
    17   Atom        0.005973     -0.002367     -0.003605
 --------------------------------------------------------
                        XY            XZ            YZ
 --------------------------------------------------------
     1   Atom        0.016920     -0.003643     -0.019292
     2   Atom        0.002875     -0.000404      0.000335
     3   Atom        0.009267      0.001752      0.002064
     4   Atom        0.002127     -0.000696     -0.000936
     5   Atom        0.002263      0.000580      0.000788
     6   Atom       -0.005938     -0.032890      0.001284
     7   Atom        0.001915     -0.001175      0.000122
     8   Atom        0.002171      0.001768      0.000811
     9   Atom        0.005440      0.000625     -0.000899
    10   Atom        0.002930     -0.009319      0.000564
    11   Atom       -0.006276      0.002432     -0.002193
    12   Atom       -0.674378     -0.398077      0.429498
    13   Atom        0.001438     -0.007366     -0.002792
    14   Atom       -0.001271      0.006395     -0.001671
    15   Atom        0.007402     -0.055223     -0.051509
    16   Atom       -0.041283      0.044110      0.002778
    17   Atom        0.006365      0.011436      0.007519
 --------------------------------------------------------


 ---------------------------------------------------------------------------------
              Anisotropic Spin Dipole Couplings in Principal Axis System
 ---------------------------------------------------------------------------------

       Atom             a.u.   MegaHertz   Gauss  10(-4) cm-1        Axes

              Baa    -0.0257    -3.454    -1.232    -1.152 -0.4524  0.3688  0.8120
     1 C(13)  Bbb    -0.0222    -2.977    -1.062    -0.993  0.8557 -0.0772  0.5118
              Bcc     0.0479     6.431     2.295     2.145  0.2514  0.9263 -0.2807
 
              Baa    -0.0033    -0.447    -0.160    -0.149  0.1642 -0.1962  0.9667
     2 C(13)  Bbb    -0.0013    -0.171    -0.061    -0.057 -0.5710  0.7802  0.2553
              Bcc     0.0046     0.618     0.221     0.206  0.8043  0.5940 -0.0161
 
              Baa    -0.0076    -1.016    -0.362    -0.339 -0.1155 -0.0736  0.9906
     3 C(13)  Bbb    -0.0059    -0.790    -0.282    -0.263  0.7753 -0.6300  0.0436
              Bcc     0.0135     1.805     0.644     0.602  0.6209  0.7731  0.1298
 
              Baa    -0.0018    -0.964    -0.344    -0.322  0.0964  0.2257  0.9694
     4 H(1)   Bbb    -0.0014    -0.766    -0.273    -0.255  0.7985 -0.5990  0.0600
              Bcc     0.0032     1.730     0.617     0.577  0.5942  0.7683 -0.2379
 
              Baa    -0.0018    -0.937    -0.334    -0.313  0.0444 -0.2861  0.9572
     5 H(1)   Bbb    -0.0015    -0.813    -0.290    -0.271  0.7842 -0.5837 -0.2108
              Bcc     0.0033     1.750     0.625     0.584  0.6190  0.7599  0.1984
 
              Baa    -0.0407    -5.467    -1.951    -1.824  0.1016  0.9821  0.1584
     6 C(13)  Bbb    -0.0377    -5.064    -1.807    -1.689  0.2830 -0.1811  0.9419
              Bcc     0.0785    10.531     3.758     3.513  0.9537 -0.0509 -0.2963
 
              Baa    -0.0023    -1.234    -0.440    -0.412  0.4250 -0.6275  0.6524
     7 H(1)   Bbb    -0.0011    -0.595    -0.212    -0.198 -0.1259  0.6728  0.7290
              Bcc     0.0034     1.829     0.652     0.610  0.8964  0.3919 -0.2070
 
              Baa    -0.0024    -1.274    -0.455    -0.425 -0.4420  0.8963  0.0345
     8 H(1)   Bbb    -0.0016    -0.850    -0.303    -0.284 -0.3238 -0.1953  0.9257
              Bcc     0.0040     2.124     0.758     0.709  0.8365  0.3980  0.3766
 
              Baa    -0.0064    -0.864    -0.308    -0.288  0.7189 -0.6828 -0.1305
     9 C(13)  Bbb     0.0018     0.245     0.087     0.082  0.1497 -0.0313  0.9882
              Bcc     0.0046     0.619     0.221     0.207  0.6789  0.7299 -0.0797
 
              Baa    -0.0104    -5.559    -1.983    -1.854 -0.3167  0.9184 -0.2373
    10 H(1)   Bbb    -0.0037    -1.959    -0.699    -0.653  0.6083  0.3886  0.6921
              Bcc     0.0141     7.518     2.682     2.508  0.7278  0.0748 -0.6817
 
              Baa    -0.0093    -4.972    -1.774    -1.659 -0.0431  0.2410  0.9696
    11 H(1)   Bbb    -0.0041    -2.187    -0.781    -0.730  0.4201  0.8849 -0.2013
              Bcc     0.0134     7.160     2.555     2.388  0.9065 -0.3986  0.1394
 
              Baa    -0.5408   -72.576   -25.897   -24.209  0.7826  0.5703  0.2497
    12 C(13)  Bbb    -0.5285   -70.916   -25.304   -23.655  0.0592 -0.4675  0.8820
              Bcc     1.0693   143.492    51.202    47.864 -0.6197  0.6755  0.3996
 
              Baa    -0.0128    -6.433    -2.296    -2.146  0.5663  0.0654  0.8216
    13 F(19)  Bbb     0.0019     0.976     0.348     0.326  0.7896 -0.3287 -0.5181
              Bcc     0.0109     5.457     1.947     1.820  0.2362  0.9421 -0.2379
 
              Baa    -0.0092    -4.636    -1.654    -1.546 -0.4754  0.0690  0.8771
    14 F(19)  Bbb     0.0023     1.152     0.411     0.384  0.4401  0.8819  0.1692
              Bcc     0.0069     3.484     1.243     1.162  0.7618 -0.4664  0.4496
 
              Baa    -0.0823   -43.901   -15.665   -14.644  0.6975  0.2457  0.6732
    15 H(1)   Bbb    -0.0026    -1.398    -0.499    -0.466 -0.6338  0.6498  0.4196
              Bcc     0.0849    45.299    16.164    15.110  0.3344  0.7193 -0.6089
 
              Baa    -0.0813   -43.381   -15.479   -14.470  0.6572  0.7232 -0.2125
    16 H(1)   Bbb    -0.0034    -1.827    -0.652    -0.609 -0.6269  0.6809  0.3787
              Bcc     0.0847    45.208    16.131    15.080  0.4186 -0.1157  0.9008
 
              Baa    -0.0124    -6.594    -2.353    -2.199 -0.3900 -0.3820  0.8378
    17 H(1)   Bbb    -0.0057    -3.026    -1.080    -1.009 -0.5601  0.8206  0.1135
              Bcc     0.0180     9.620     3.433     3.209  0.7309  0.4249  0.5341
 

 ---------------------------------------------------------------------------------

 NROrb=    265 NOA=    32 NOB=    31 NVA=   233 NVB=   234

 **** Warning!!: The largest alpha MO coefficient is  0.71948533D+02


 **** Warning!!: The largest beta MO coefficient is  0.68072023D+02

    12 initial guesses have been made.
 Iteration     1 Dimension    12 NMult     0 NNew     12
 New state      1 was old state      3
 Iteration     2 Dimension    24 NMult    12 NNew     12
 Iteration     3 Dimension    27 NMult    24 NNew      3
 Iteration     4 Dimension    30 NMult    27 NNew      3
 Iteration     5 Dimension    33 NMult    30 NNew      3
 Iteration     6 Dimension    36 NMult    33 NNew      3
 Iteration     7 Dimension    39 NMult    36 NNew      3
 Iteration     8 Dimension    42 NMult    39 NNew      3
 Iteration     9 Dimension    45 NMult    42 NNew      3
 Iteration    10 Dimension    48 NMult    45 NNew      3
 ***********************************************************************
 Stability analysis using <AA,BB:AA,BB> singles matrix:
 ***********************************************************************
 Ground to excited state transition densities written to RWF  633

 Eigenvectors of the stability matrix:
 
 Excited state symmetry could not be determined.
 Eigenvector   1:  2.063-?Sym  Eigenvalue= 0.2323462  <S**2>=0.814
     32A -> 33A       -0.48859
     32A -> 34A        0.51035
     32A -> 35A        0.29644
     32A -> 36A        0.28974
     32A -> 38A        0.10535
     32A -> 42A       -0.10734
     32A -> 48A       -0.32172
     32A -> 52A       -0.12976
     32A -> 53A       -0.10989
     32A -> 63A        0.15531
     32A -> 65A        0.15793
 The wavefunction is stable under the perturbations considered.
 The wavefunction is already stable.

 **********************************************************************

            Population analysis using the SCF Density.

 **********************************************************************

 Alpha  occ. eigenvalues --  -26.30914 -26.30748 -11.40414 -11.24991 -11.24208
 Alpha  occ. eigenvalues --  -11.24197 -11.24150 -11.24099  -1.64982  -1.58730
 Alpha  occ. eigenvalues --   -1.15333  -1.04103  -0.98002  -0.91298  -0.82447
 Alpha  occ. eigenvalues --   -0.81148  -0.75401  -0.71720  -0.70748  -0.66366
 Alpha  occ. eigenvalues --   -0.64695  -0.63963  -0.61272  -0.60123  -0.56744
 Alpha  occ. eigenvalues --   -0.55110  -0.52174  -0.50866  -0.49661  -0.48342
 Alpha  occ. eigenvalues --   -0.47322  -0.35556
 Alpha virt. eigenvalues --    0.03386   0.04198   0.04556   0.05063   0.06326
 Alpha virt. eigenvalues --    0.06598   0.06745   0.07243   0.08263   0.10204
 Alpha virt. eigenvalues --    0.12370   0.13270   0.13661   0.14351   0.14471
 Alpha virt. eigenvalues --    0.14963   0.15104   0.16035   0.16481   0.16826
 Alpha virt. eigenvalues --    0.17596   0.18417   0.18981   0.19110   0.19874
 Alpha virt. eigenvalues --    0.20132   0.21203   0.21968   0.22157   0.23020
 Alpha virt. eigenvalues --    0.24547   0.26715   0.27077   0.29715   0.31163
 Alpha virt. eigenvalues --    0.32613   0.33091   0.33892   0.34599   0.35555
 Alpha virt. eigenvalues --    0.35869   0.36067   0.37133   0.38003   0.39358
 Alpha virt. eigenvalues --    0.39753   0.40754   0.41477   0.42480   0.42890
 Alpha virt. eigenvalues --    0.44040   0.44462   0.45118   0.45930   0.46665
 Alpha virt. eigenvalues --    0.47082   0.47623   0.48559   0.48907   0.49512
 Alpha virt. eigenvalues --    0.50325   0.50492   0.52161   0.52707   0.54323
 Alpha virt. eigenvalues --    0.54704   0.55554   0.56081   0.57037   0.57672
 Alpha virt. eigenvalues --    0.57786   0.59216   0.60360   0.61165   0.62996
 Alpha virt. eigenvalues --    0.63580   0.65194   0.65978   0.67298   0.67534
 Alpha virt. eigenvalues --    0.68352   0.68915   0.69529   0.70410   0.71094
 Alpha virt. eigenvalues --    0.72233   0.72635   0.73445   0.75393   0.76849
 Alpha virt. eigenvalues --    0.77097   0.77617   0.79416   0.80294   0.81069
 Alpha virt. eigenvalues --    0.81275   0.82778   0.83151   0.84511   0.85669
 Alpha virt. eigenvalues --    0.85746   0.87995   0.88332   0.90015   0.91075
 Alpha virt. eigenvalues --    0.91428   0.92768   0.94728   0.97238   0.98329
 Alpha virt. eigenvalues --    1.00105   1.02675   1.03240   1.06128   1.08031
 Alpha virt. eigenvalues --    1.10320   1.12927   1.14032   1.16520   1.18324
 Alpha virt. eigenvalues --    1.21246   1.23092   1.24210   1.28366   1.30685
 Alpha virt. eigenvalues --    1.33869   1.34462   1.35349   1.38210   1.40322
 Alpha virt. eigenvalues --    1.43578   1.45538   1.48605   1.49892   1.52837
 Alpha virt. eigenvalues --    1.55018   1.57406   1.58537   1.59750   1.63262
 Alpha virt. eigenvalues --    1.64295   1.66196   1.68408   1.69667   1.72282
 Alpha virt. eigenvalues --    1.73302   1.76266   1.78816   1.79859   1.81291
 Alpha virt. eigenvalues --    1.82662   1.83531   1.83967   1.84493   1.85860
 Alpha virt. eigenvalues --    1.89886   1.91503   1.94074   1.94415   1.96115
 Alpha virt. eigenvalues --    1.98848   2.00474   2.00650   2.03307   2.04001
 Alpha virt. eigenvalues --    2.05894   2.10732   2.11781   2.12753   2.13167
 Alpha virt. eigenvalues --    2.14701   2.15404   2.17540   2.18601   2.23088
 Alpha virt. eigenvalues --    2.23661   2.25234   2.27458   2.28217   2.29389
 Alpha virt. eigenvalues --    2.31496   2.33657   2.37632   2.43439   2.44627
 Alpha virt. eigenvalues --    2.45668   2.48634   2.49223   2.50818   2.52493
 Alpha virt. eigenvalues --    2.56099   2.56623   2.57748   2.57960   2.60401
 Alpha virt. eigenvalues --    2.65852   2.66427   2.68589   2.71172   2.71854
 Alpha virt. eigenvalues --    2.74509   2.78972   2.82370   2.84496   2.86139
 Alpha virt. eigenvalues --    2.89062   2.91276   2.91843   2.95061   3.00106
 Alpha virt. eigenvalues --    3.03132   3.05840   3.10910   3.16351   3.22963
 Alpha virt. eigenvalues --    3.25376   3.28545   3.34474   3.36857   3.60103
 Alpha virt. eigenvalues --    3.82049   3.95695   4.71755   5.02954   5.03794
 Alpha virt. eigenvalues --    5.10213   5.13179   5.14761   5.18161   5.20735
 Alpha virt. eigenvalues --    5.23139   5.30267   5.31957
  Beta  occ. eigenvalues --  -26.30919 -26.30757 -11.40290 -11.25334 -11.24195
  Beta  occ. eigenvalues --  -11.24126 -11.23864 -11.21772  -1.64976  -1.58748
  Beta  occ. eigenvalues --   -1.14800  -1.01935  -0.97634  -0.86779  -0.82089
  Beta  occ. eigenvalues --   -0.79691  -0.75364  -0.71312  -0.70594  -0.66307
  Beta  occ. eigenvalues --   -0.64510  -0.63677  -0.61256  -0.59359  -0.56107
  Beta  occ. eigenvalues --   -0.54171  -0.51614  -0.49593  -0.49180  -0.47766
  Beta  occ. eigenvalues --   -0.46832
  Beta virt. eigenvalues --    0.03386   0.04236   0.04499   0.05064   0.06284
  Beta virt. eigenvalues --    0.06491   0.06679   0.07228   0.07897   0.09643
  Beta virt. eigenvalues --    0.11080   0.12395   0.13486   0.14053   0.14435
  Beta virt. eigenvalues --    0.15042   0.15139   0.15463   0.16199   0.16806
  Beta virt. eigenvalues --    0.17463   0.18382   0.18502   0.19170   0.19418
  Beta virt. eigenvalues --    0.20013   0.20223   0.21258   0.22127   0.22508
  Beta virt. eigenvalues --    0.23310   0.25345   0.27043   0.27509   0.29946
  Beta virt. eigenvalues --    0.32019   0.32765   0.33488   0.34663   0.34731
  Beta virt. eigenvalues --    0.35884   0.36070   0.36375   0.37624   0.38106
  Beta virt. eigenvalues --    0.39701   0.40054   0.40857   0.41870   0.42682
  Beta virt. eigenvalues --    0.43006   0.44599   0.44799   0.45303   0.46299
  Beta virt. eigenvalues --    0.47082   0.47289   0.47835   0.48760   0.49183
  Beta virt. eigenvalues --    0.49804   0.50709   0.51579   0.52344   0.52974
  Beta virt. eigenvalues --    0.54418   0.55024   0.56200   0.56605   0.57404
  Beta virt. eigenvalues --    0.57931   0.58272   0.60239   0.60914   0.61722
  Beta virt. eigenvalues --    0.63314   0.64153   0.65320   0.67197   0.67834
  Beta virt. eigenvalues --    0.67979   0.68875   0.69485   0.69979   0.70828
  Beta virt. eigenvalues --    0.72198   0.72572   0.73078   0.73821   0.75802
  Beta virt. eigenvalues --    0.77086   0.77644   0.77978   0.79858   0.80823
  Beta virt. eigenvalues --    0.81393   0.81773   0.82924   0.83336   0.84940
  Beta virt. eigenvalues --    0.85843   0.86210   0.88372   0.88808   0.90490
  Beta virt. eigenvalues --    0.91515   0.91722   0.93192   0.94876   0.97413
  Beta virt. eigenvalues --    0.98949   1.00346   1.02953   1.04241   1.07225
  Beta virt. eigenvalues --    1.08283   1.10967   1.13183   1.14321   1.16765
  Beta virt. eigenvalues --    1.19226   1.22238   1.23562   1.24397   1.28710
  Beta virt. eigenvalues --    1.31420   1.34277   1.34955   1.36056   1.38441
  Beta virt. eigenvalues --    1.40779   1.43836   1.46000   1.49246   1.50241
  Beta virt. eigenvalues --    1.53022   1.55249   1.57611   1.58830   1.60369
  Beta virt. eigenvalues --    1.63701   1.64513   1.66863   1.69233   1.70303
  Beta virt. eigenvalues --    1.73334   1.73774   1.76562   1.80013   1.80079
  Beta virt. eigenvalues --    1.81863   1.83435   1.84369   1.84469   1.84831
  Beta virt. eigenvalues --    1.86174   1.90451   1.91625   1.94427   1.95295
  Beta virt. eigenvalues --    1.96644   1.99080   2.00678   2.01388   2.04321
  Beta virt. eigenvalues --    2.04738   2.06032   2.11102   2.11881   2.13101
  Beta virt. eigenvalues --    2.13393   2.15175   2.15660   2.17863   2.19083
  Beta virt. eigenvalues --    2.23492   2.23792   2.25584   2.27783   2.29302
  Beta virt. eigenvalues --    2.29792   2.31947   2.33890   2.37843   2.43841
  Beta virt. eigenvalues --    2.45149   2.45930   2.48975   2.49324   2.50978
  Beta virt. eigenvalues --    2.52868   2.56218   2.56829   2.58064   2.58396
  Beta virt. eigenvalues --    2.60756   2.66030   2.67063   2.68797   2.71766
  Beta virt. eigenvalues --    2.72139   2.74763   2.79162   2.82524   2.84583
  Beta virt. eigenvalues --    2.86265   2.89126   2.91371   2.91933   2.95127
  Beta virt. eigenvalues --    3.00165   3.03205   3.05974   3.11103   3.16550
  Beta virt. eigenvalues --    3.23056   3.25879   3.28985   3.34607   3.36982
  Beta virt. eigenvalues --    3.60220   3.82122   3.95725   4.71813   5.02950
  Beta virt. eigenvalues --    5.03784   5.10216   5.13175   5.14751   5.18157
  Beta virt. eigenvalues --    5.20736   5.23147   5.30264   5.31957
          Condensed to atoms (all electrons):
          Atomic-Atomic Spin Densities.
 Mulliken charges and spin densities:
               1          2
     1  C    1.425920   0.006907
     2  C    0.160566   0.002216
     3  C    0.539129   0.007339
     4  H   -0.073760   0.000660
     5  H   -0.023167   0.000471
     6  C    0.280638   0.064631
     7  H   -0.116442  -0.000083
     8  H   -0.177638   0.000133
     9  C   -0.204382  -0.255927
    10  H   -0.166352  -0.011267
    11  H   -0.156387  -0.007564
    12  C    0.838885   1.415313
    13  F   -0.815809   0.001492
    14  F   -0.780486   0.001499
    15  H   -0.287501  -0.114625
    16  H   -0.234962  -0.114870
    17  H   -0.208253   0.003675
 Sum of Mulliken charges =  -0.00000   1.00000
 Mulliken charges and spin densities with hydrogens summed into heavy atoms:
               1          2
     1  C    1.425920   0.006907
     2  C    0.063639   0.003347
     3  C    0.245049   0.007389
     6  C   -0.042101   0.045800
     9  C   -0.412635  -0.252252
    12  C    0.316421   1.185818
    13  F   -0.815809   0.001492
    14  F   -0.780486   0.001499
 Electronic spatial extent (au):  <R**2>=            865.1127
 Charge=             -0.0000 electrons
 Dipole moment (field-independent basis, Debye):
    X=             -2.4170    Y=              1.4133    Z=             -0.6550  Tot=              2.8755
                          Isotropic Fermi Contact Couplings
        Atom                 a.u.       MegaHertz       Gauss      10(-4) cm-1
     1  C(13)              0.02335      26.24573       9.36513       8.75463
     2  C(13)             -0.00216      -2.42561      -0.86552      -0.80910
     3  C(13)              0.00027       0.30903       0.11027       0.10308
     4  H(1)               0.00032       1.42026       0.50678       0.47375
     5  H(1)               0.00003       0.14688       0.05241       0.04899
     6  C(13)              0.05470      61.49834      21.94414      20.51364
     7  H(1)               0.00050       2.23011       0.79576       0.74388
     8  H(1)              -0.00007      -0.32743      -0.11683      -0.10922
     9  C(13)             -0.06386     -71.79371     -25.61778     -23.94780
    10  H(1)              -0.00150      -6.69689      -2.38962      -2.23384
    11  H(1)              -0.00163      -7.29958      -2.60467      -2.43488
    12  C(13)              0.20725     232.99399      83.13805      77.71843
    13  F(19)             -0.00127      -5.36355      -1.91385      -1.78909
    14  F(19)             -0.00139      -5.84586      -2.08595      -1.94997
    15  H(1)              -0.02628    -117.45883     -41.91223     -39.18005
    16  H(1)              -0.02581    -115.35542     -41.16168     -38.47842
    17  H(1)               0.00455      20.32033       7.25080       6.77813
 --------------------------------------------------------
       Center         ----  Spin Dipole Couplings  ----
                      3XX-RR        3YY-RR        3ZZ-RR
 --------------------------------------------------------
     1   Atom       -0.018484      0.037491     -0.019007
     2   Atom        0.002475      0.000722     -0.003198
     3   Atom        0.001548      0.005664     -0.007211
     4   Atom        0.000213      0.001307     -0.001520
     5   Atom        0.000316      0.001231     -0.001547
     6   Atom        0.067944     -0.040336     -0.027607
     7   Atom        0.002318     -0.000889     -0.001430
     8   Atom        0.002152     -0.001349     -0.000803
     9   Atom       -0.001161     -0.000542      0.001703
    10   Atom        0.005059     -0.009262      0.004203
    11   Atom        0.010285     -0.001619     -0.008666
    12   Atom        0.077588      0.196543     -0.274132
    13   Atom       -0.002290      0.009800     -0.007510
    14   Atom        0.002383      0.003249     -0.005632
    15   Atom       -0.031589      0.037857     -0.006268
    16   Atom       -0.021615     -0.042977      0.064592
    17   Atom        0.005973     -0.002367     -0.003605
 --------------------------------------------------------
                        XY            XZ            YZ
 --------------------------------------------------------
     1   Atom        0.016920     -0.003643     -0.019292
     2   Atom        0.002875     -0.000404      0.000335
     3   Atom        0.009267      0.001752      0.002064
     4   Atom        0.002127     -0.000696     -0.000936
     5   Atom        0.002263      0.000580      0.000788
     6   Atom       -0.005938     -0.032890      0.001284
     7   Atom        0.001915     -0.001175      0.000122
     8   Atom        0.002171      0.001768      0.000811
     9   Atom        0.005440      0.000625     -0.000899
    10   Atom        0.002930     -0.009319      0.000564
    11   Atom       -0.006276      0.002432     -0.002193
    12   Atom       -0.674378     -0.398077      0.429498
    13   Atom        0.001438     -0.007366     -0.002792
    14   Atom       -0.001271      0.006395     -0.001671
    15   Atom        0.007402     -0.055223     -0.051509
    16   Atom       -0.041283      0.044110      0.002778
    17   Atom        0.006365      0.011436      0.007519
 --------------------------------------------------------


 ---------------------------------------------------------------------------------
              Anisotropic Spin Dipole Couplings in Principal Axis System
 ---------------------------------------------------------------------------------

       Atom             a.u.   MegaHertz   Gauss  10(-4) cm-1        Axes

              Baa    -0.0257    -3.454    -1.232    -1.152 -0.4524  0.3688  0.8120
     1 C(13)  Bbb    -0.0222    -2.977    -1.062    -0.993  0.8557 -0.0772  0.5118
              Bcc     0.0479     6.431     2.295     2.145  0.2514  0.9263 -0.2807
 
              Baa    -0.0033    -0.447    -0.160    -0.149  0.1642 -0.1962  0.9667
     2 C(13)  Bbb    -0.0013    -0.171    -0.061    -0.057 -0.5710  0.7802  0.2553
              Bcc     0.0046     0.618     0.221     0.206  0.8043  0.5940 -0.0161
 
              Baa    -0.0076    -1.016    -0.362    -0.339 -0.1155 -0.0736  0.9906
     3 C(13)  Bbb    -0.0059    -0.790    -0.282    -0.263  0.7753 -0.6300  0.0436
              Bcc     0.0135     1.805     0.644     0.602  0.6209  0.7731  0.1298
 
              Baa    -0.0018    -0.964    -0.344    -0.322  0.0964  0.2257  0.9694
     4 H(1)   Bbb    -0.0014    -0.766    -0.273    -0.255  0.7985 -0.5990  0.0600
              Bcc     0.0032     1.730     0.617     0.577  0.5942  0.7683 -0.2379
 
              Baa    -0.0018    -0.937    -0.334    -0.313  0.0444 -0.2861  0.9572
     5 H(1)   Bbb    -0.0015    -0.813    -0.290    -0.271  0.7842 -0.5837 -0.2108
              Bcc     0.0033     1.750     0.625     0.584  0.6190  0.7599  0.1984
 
              Baa    -0.0407    -5.467    -1.951    -1.824  0.1016  0.9821  0.1584
     6 C(13)  Bbb    -0.0377    -5.064    -1.807    -1.689  0.2830 -0.1811  0.9419
              Bcc     0.0785    10.531     3.758     3.513  0.9537 -0.0509 -0.2963
 
              Baa    -0.0023    -1.234    -0.440    -0.412  0.4250 -0.6275  0.6524
     7 H(1)   Bbb    -0.0011    -0.595    -0.212    -0.198 -0.1259  0.6728  0.7290
              Bcc     0.0034     1.829     0.652     0.610  0.8964  0.3919 -0.2070
 
              Baa    -0.0024    -1.274    -0.455    -0.425 -0.4420  0.8963  0.0345
     8 H(1)   Bbb    -0.0016    -0.850    -0.303    -0.284 -0.3238 -0.1953  0.9257
              Bcc     0.0040     2.124     0.758     0.709  0.8365  0.3980  0.3766
 
              Baa    -0.0064    -0.864    -0.308    -0.288  0.7189 -0.6828 -0.1305
     9 C(13)  Bbb     0.0018     0.245     0.087     0.082  0.1497 -0.0313  0.9882
              Bcc     0.0046     0.619     0.221     0.207  0.6789  0.7299 -0.0797
 
              Baa    -0.0104    -5.559    -1.983    -1.854 -0.3167  0.9184 -0.2373
    10 H(1)   Bbb    -0.0037    -1.959    -0.699    -0.653  0.6083  0.3886  0.6921
              Bcc     0.0141     7.518     2.682     2.508  0.7278  0.0748 -0.6817
 
              Baa    -0.0093    -4.972    -1.774    -1.659 -0.0431  0.2410  0.9696
    11 H(1)   Bbb    -0.0041    -2.187    -0.781    -0.730  0.4201  0.8849 -0.2013
              Bcc     0.0134     7.160     2.555     2.388  0.9065 -0.3986  0.1394
 
              Baa    -0.5408   -72.576   -25.897   -24.209  0.7826  0.5703  0.2497
    12 C(13)  Bbb    -0.5285   -70.916   -25.304   -23.655  0.0592 -0.4675  0.8820
              Bcc     1.0693   143.492    51.202    47.864 -0.6197  0.6755  0.3996
 
              Baa    -0.0128    -6.433    -2.296    -2.146  0.5663  0.0654  0.8216
    13 F(19)  Bbb     0.0019     0.976     0.348     0.326  0.7896 -0.3287 -0.5181
              Bcc     0.0109     5.457     1.947     1.820  0.2362  0.9421 -0.2379
 
              Baa    -0.0092    -4.636    -1.654    -1.546 -0.4754  0.0690  0.8771
    14 F(19)  Bbb     0.0023     1.152     0.411     0.384  0.4401  0.8819  0.1692
              Bcc     0.0069     3.484     1.243     1.162  0.7618 -0.4664  0.4496
 
              Baa    -0.0823   -43.901   -15.665   -14.644  0.6975  0.2457  0.6732
    15 H(1)   Bbb    -0.0026    -1.398    -0.499    -0.466 -0.6338  0.6498  0.4196
              Bcc     0.0849    45.299    16.164    15.110  0.3344  0.7193 -0.6089
 
              Baa    -0.0813   -43.381   -15.479   -14.470  0.6572  0.7232 -0.2125
    16 H(1)   Bbb    -0.0034    -1.827    -0.652    -0.609 -0.6269  0.6809  0.3787
              Bcc     0.0847    45.208    16.131    15.080  0.4186 -0.1157  0.9008
 
              Baa    -0.0124    -6.594    -2.353    -2.199 -0.3900 -0.3820  0.8378
    17 H(1)   Bbb    -0.0057    -3.026    -1.080    -1.009 -0.5601  0.8206  0.1135
              Bcc     0.0180     9.620     3.433     3.209  0.7309  0.4249  0.5341
 

 ---------------------------------------------------------------------------------

 Unable to Open any file for archive entry.
 1\1\GINC-SE334\Stability\UHF\Aug-CC-pVDZ\C6H9F2\OHZDE\09-Apr-2025\0\\#
 t hf aug-cc-pvdz symm=none int=(grid=ultrafine) guess=(read,tcheck) st
 able=opt\\title\\0,2\C,0,0.33943,-0.60617,-0.024083\C,0,-1.088123,-1.1
 3994,-0.028513\C,0,-1.990434,0.110004,-0.102412\H,0,-1.246168,-1.72146
 6,0.879399\H,0,-1.222554,-1.805552,-0.880418\C,0,-1.058347,1.295927,0.
 184506\H,0,-2.826807,0.060949,0.59459\H,0,-2.411898,0.208704,-1.105195
 \C,0,0.284034,0.861352,-0.445929\H,0,-0.91971,1.432307,1.260097\H,0,-1
 .418973,2.238412,-0.226929\C,0,1.470443,1.666438,-0.079226\F,0,0.86523
 9,-0.700506,1.246202\F,0,1.175272,-1.3394,-0.819181\H,0,1.851471,2.426
 309,-0.746526\H,0,1.934391,1.540776,0.889314\H,0,0.15364,0.853054,-1.5
 3358\\Version=ES64L-G16RevC.01\HF=-431.3455297\S2=0.763156\S2-1=0.\S2A
 =0.750115\RMSD=8.825e-09\Dipole=-0.9509206,0.5560334,-0.2576942\Quadru
 pole=-0.2616857,0.2102315,0.0514542,2.473529,0.0810445,-0.744167\PG=Un
 known\\@
 The archive entry for this job was punched.


 IT IS WELL TO REMEMBER THAT MAN IS A PART OF NATURE AND THAT HIS WORKS,
 WHATEVER THEY MAY BE, ARE NO MORE "UNNATURAL" THAN 
 THE FLIGHT OF AN EAGLE OR THE PASSAGE OF A TORNADO.

                                    -- CHARLES MCCARRY IN "THE GREAT SOUTHWEST"
 Job cpu time:       0 days  0 hours 20 minutes 29.1 seconds.
 Elapsed time:       0 days  0 hours  1 minutes 22.0 seconds.
 File lengths (MBytes):  RWF=    327 Int=      0 D2E=      0 Chk=     11 Scr=      1
 Normal termination of Gaussian 16 at Wed Apr  9 02:06:42 2025.
 Initial command:
 /arc/software/Gaussian/g16.c01/l1.exe "/tmp/slurm/4856577/Gau-1820466.inp" -scrdir="/tmp/slurm/4856577/"
 Entering Link 1 = /arc/software/Gaussian/g16.c01/l1.exe PID=   1820731.
  
 Copyright (c) 1988-2019, Gaussian, Inc.  All Rights Reserved.
  
 This is part of the Gaussian(R) 16 program.  It is based on
 the Gaussian(R) 09 system (copyright 2009, Gaussian, Inc.),
 the Gaussian(R) 03 system (copyright 2003, Gaussian, Inc.),
 the Gaussian(R) 98 system (copyright 1998, Gaussian, Inc.),
 the Gaussian(R) 94 system (copyright 1995, Gaussian, Inc.),
 the Gaussian 92(TM) system (copyright 1992, Gaussian, Inc.),
 the Gaussian 90(TM) system (copyright 1990, Gaussian, Inc.),
 the Gaussian 88(TM) system (copyright 1988, Gaussian, Inc.),
 the Gaussian 86(TM) system (copyright 1986, Carnegie Mellon
 University), and the Gaussian 82(TM) system (copyright 1983,
 Carnegie Mellon University). Gaussian is a federally registered
 trademark of Gaussian, Inc.
  
 This software contains proprietary and confidential information,
 including trade secrets, belonging to Gaussian, Inc.
  
 This software is provided under written license and may be
 used, copied, transmitted, or stored only in accord with that
 written license.
  
 The following legend is applicable only to US Government
 contracts under FAR:
  
                    RESTRICTED RIGHTS LEGEND
  
 Use, reproduction and disclosure by the US Government is
 subject to restrictions as set forth in subparagraphs (a)
 and (c) of the Commercial Computer Software - Restricted
 Rights clause in FAR 52.227-19.
  
 Gaussian, Inc.
 340 Quinnipiac St., Bldg. 40, Wallingford CT 06492
  
  
 ---------------------------------------------------------------
 Warning -- This program may not be used in any manner that
 competes with the business of Gaussian, Inc. or will provide
 assistance to any competitor of Gaussian, Inc.  The licensee
 of this program is prohibited from giving any competitor of
 Gaussian, Inc. access to this program.  By using this program,
 the user acknowledges that Gaussian, Inc. is engaged in the
 business of creating and licensing software in the field of
 computational chemistry and represents and warrants to the
 licensee that it is not a competitor of Gaussian, Inc. and that
 it will not use this program in any manner prohibited above.
 ---------------------------------------------------------------
  

 Cite this work as:
 Gaussian 16, Revision C.01,
 M. J. Frisch, G. W. Trucks, H. B. Schlegel, G. E. Scuseria, 
 M. A. Robb, J. R. Cheeseman, G. Scalmani, V. Barone, 
 G. A. Petersson, H. Nakatsuji, X. Li, M. Caricato, A. V. Marenich, 
 J. Bloino, B. G. Janesko, R. Gomperts, B. Mennucci, H. P. Hratchian, 
 J. V. Ortiz, A. F. Izmaylov, J. L. Sonnenberg, D. Williams-Young, 
 F. Ding, F. Lipparini, F. Egidi, J. Goings, B. Peng, A. Petrone, 
 T. Henderson, D. Ranasinghe, V. G. Zakrzewski, J. Gao, N. Rega, 
 G. Zheng, W. Liang, M. Hada, M. Ehara, K. Toyota, R. Fukuda, 
 J. Hasegawa, M. Ishida, T. Nakajima, Y. Honda, O. Kitao, H. Nakai, 
 T. Vreven, K. Throssell, J. A. Montgomery, Jr., J. E. Peralta, 
 F. Ogliaro, M. J. Bearpark, J. J. Heyd, E. N. Brothers, K. N. Kudin, 
 V. N. Staroverov, T. A. Keith, R. Kobayashi, J. Normand, 
 K. Raghavachari, A. P. Rendell, J. C. Burant, S. S. Iyengar, 
 J. Tomasi, M. Cossi, J. M. Millam, M. Klene, C. Adamo, R. Cammi, 
 J. W. Ochterski, R. L. Martin, K. Morokuma, O. Farkas, 
 J. B. Foresman, and D. J. Fox, Gaussian, Inc., Wallingford CT, 2019.
 
 ******************************************
 Gaussian 16:  ES64L-G16RevC.01  3-Jul-2019
                 9-Apr-2025 
 ******************************************
 %nprocs=16
 Will use up to   16 processors via shared memory.
 %mem=30GB
 %chk=BH10_6_reverse_mol2.chk
 ----------------------------------------------------------------------
 #t hf aug-cc-pvdz iop(5/13=1,5/36=2,99/5=2) pseudo=read geom=check gue
 ss=(read,tcheck) scf=(maxcycle=1)
 ----------------------------------------------------------------------
 -----
 title
 -----
 Structure from the checkpoint file:  "BH10_6_reverse_mol2.chk"
 Charge =  0 Multiplicity = 2
 Z-Matrix found in chk file.
 C,0,0.33943,-0.60617,-0.024083
 C,0,-1.088123,-1.13994,-0.028513
 C,0,-1.990434,0.110004,-0.102412
 H,0,-1.246168,-1.721466,0.879399
 H,0,-1.222554,-1.805552,-0.880418
 C,0,-1.058347,1.295927,0.184506
 H,0,-2.826807,0.060949,0.59459
 H,0,-2.411898,0.208704,-1.105195
 C,0,0.284034,0.861352,-0.445929
 H,0,-0.91971,1.432307,1.260097
 H,0,-1.418973,2.238412,-0.226929
 C,0,1.470443,1.666438,-0.079226
 F,0,0.865239,-0.700506,1.246202
 F,0,1.175272,-1.3394,-0.819181
 H,0,1.851471,2.426309,-0.746526
 H,0,1.934391,1.540776,0.889314
 H,0,0.15364,0.853054,-1.53358
 Recover connectivity data from disk.
                    Distance matrix (angstroms):
                    1          2          3          4          5
     1  C    0.000000
     2  C    1.524086   0.000000
     3  C    2.438710   1.543368   0.000000
     4  H    2.138758   1.089704   2.207299   0.000000
     5  H    2.147468   1.089428   2.205513   1.761983   0.000000
     6  C    2.369655   2.445345   1.535422   3.102066   3.283321
     7  H    3.294368   2.203046   1.089834   2.399279   2.869338
     8  H    3.066371   2.174963   1.092221   3.003847   2.349956
     9  C    1.527954   2.462158   2.419862   3.281610   3.093698
    10  H    2.718444   2.881898   2.179763   3.193398   3.893231
    11  H    3.350339   3.400308   2.207304   4.115150   4.101131
    12  C    2.539090   3.797972   3.794825   4.447115   4.466414
    13  F    1.378041   2.373526   3.260453   2.373804   3.178446
    14  F    1.366909   2.405805   3.554747   2.982368   2.443485
    15  H    3.464696   4.677060   4.532150   5.426144   5.232227
    16  H    2.826229   4.142974   4.293586   4.556125   4.929114
    17  H    2.107708   2.789127   2.682800   3.796062   3.064101
                    6          7          8          9         10
     6  C    0.000000
     7  H    2.195630   0.000000
     8  H    2.162749   1.755919   0.000000
     9  C    1.545409   3.376486   2.851075   0.000000
    10  H    1.093031   2.441422   3.052611   2.164605   0.000000
    11  H    1.089774   2.719970   2.424245   2.201020   1.763609
    12  C    2.569360   4.636591   4.272022   1.479933   2.749806
    13  F    2.968691   3.825652   4.134653   2.374975   2.781210
    14  F    3.597414   4.469492   3.917425   2.403525   4.049038
    15  H    3.257549   5.411082   4.818997   2.235242   3.562867
    16  H    3.084345   4.994573   4.964142   2.228939   2.880128
    17  H    2.148690   3.746946   2.679680   1.095471   3.048318
                   11         12         13         14         15
    11  H    0.000000
    12  C    2.949186   0.000000
    13  F    4.003121   2.779470   0.000000
    14  F    4.458880   3.109618   2.184059   0.000000
    15  H    3.316789   1.080683   3.836742   3.826629   0.000000
    16  H    3.602464   1.081253   2.508745   3.433749   1.861993
    17  H    2.469750   2.123843   3.262991   2.522093   2.444834
                   16         17
    16  H    0.000000
    17  H    3.084550   0.000000
 Framework group  C1[X(C6H9F2)]
 Deg. of freedom    45
                         Standard orientation:                         
 ---------------------------------------------------------------------
 Center     Atomic      Atomic             Coordinates (Angstroms)
 Number     Number       Type             X           Y           Z
 ---------------------------------------------------------------------
      1          6           0        0.339430   -0.606170   -0.024083
      2          6           0       -1.088123   -1.139940   -0.028513
      3          6           0       -1.990434    0.110004   -0.102412
      4          1           0       -1.246168   -1.721466    0.879399
      5          1           0       -1.222554   -1.805552   -0.880418
      6          6           0       -1.058347    1.295927    0.184506
      7          1           0       -2.826807    0.060949    0.594590
      8          1           0       -2.411898    0.208704   -1.105195
      9          6           0        0.284034    0.861352   -0.445929
     10          1           0       -0.919710    1.432307    1.260097
     11          1           0       -1.418973    2.238412   -0.226929
     12          6           0        1.470443    1.666438   -0.079226
     13          9           0        0.865239   -0.700506    1.246202
     14          9           0        1.175272   -1.339400   -0.819181
     15          1           0        1.851471    2.426309   -0.746526
     16          1           0        1.934391    1.540776    0.889314
     17          1           0        0.153640    0.853054   -1.533580
 ---------------------------------------------------------------------
 Rotational constants (GHZ):           2.5399424           2.2254031           1.5866425
 ======================================================================================================
                                       Pseudopotential Parameters
 ======================================================================================================
  Center     Atomic      Valence      Angular      Power
  Number     Number     Electrons     Momentum     of R      Exponent        Coefficient   SO-Coeffient
 ======================================================================================================
    1          6            6
                                      G and up 
                                                     0        0.0000010       -0.00286759    0.00000000
                                                     2        0.1200000        0.03193960    0.00000000
                                                     2        0.1600000       -0.04027782    0.00000000
                                                     2        0.2600000        0.24782456    0.00000000
                                                     2        0.4000000       -0.62266671    0.00000000
                                                     2        0.7000000        0.35695227    0.00000000
                                      S - G
                                                     0        0.0000010       -0.06602313    0.00000000
                                                     2        0.1200000        1.47277455    0.00000000
                                                     2        0.1600000       -4.06924166    0.00000000
                                                     2        0.3000000        5.02952802    0.00000000
                                                     2        0.7000000       -5.65856978    0.00000000
                                                     2        1.7000000        8.57604414    0.00000000
                                      P - G
                                                     0        0.0000010        0.49434425    0.00000000
                                                     2        0.1200000       -1.37391547    0.00000000
                                                     2        0.1600000        3.65411806    0.00000000
                                                     2        0.2800000       -7.36479843    0.00000000
                                                     2        0.6000000       17.22091285    0.00000000
                                                     2        1.1000000      -23.50107827    0.00000000
                                                     2        3.0000000       16.29464063    0.00000000
                                      D - G
                                                     0        0.0000010       -0.28693103    0.00000000
                                                     2        0.1200000        0.12273044    0.00000000
                                                     2        0.3000000       -0.43416384    0.00000000
                                                     2        0.7000000        2.23358493    0.00000000
                                      F - G
                                                     0        0.0000010        0.07263570    0.00000000
                                                     2        0.1400000       -0.76152861    0.00000000
                                                     2        0.2200000        1.98045593    0.00000000
                                                     2        0.4000000       -2.42426427    0.00000000
                                                     2        0.7000000        0.52335237    0.00000000
    2          6            6
                                      G and up 
                                                     0        0.0000010       -0.00286759    0.00000000
                                                     2        0.1200000        0.03193960    0.00000000
                                                     2        0.1600000       -0.04027782    0.00000000
                                                     2        0.2600000        0.24782456    0.00000000
                                                     2        0.4000000       -0.62266671    0.00000000
                                                     2        0.7000000        0.35695227    0.00000000
                                      S - G
                                                     0        0.0000010       -0.06602313    0.00000000
                                                     2        0.1200000        1.47277455    0.00000000
                                                     2        0.1600000       -4.06924166    0.00000000
                                                     2        0.3000000        5.02952802    0.00000000
                                                     2        0.7000000       -5.65856978    0.00000000
                                                     2        1.7000000        8.57604414    0.00000000
                                      P - G
                                                     0        0.0000010        0.49434425    0.00000000
                                                     2        0.1200000       -1.37391547    0.00000000
                                                     2        0.1600000        3.65411806    0.00000000
                                                     2        0.2800000       -7.36479843    0.00000000
                                                     2        0.6000000       17.22091285    0.00000000
                                                     2        1.1000000      -23.50107827    0.00000000
                                                     2        3.0000000       16.29464063    0.00000000
                                      D - G
                                                     0        0.0000010       -0.28693103    0.00000000
                                                     2        0.1200000        0.12273044    0.00000000
                                                     2        0.3000000       -0.43416384    0.00000000
                                                     2        0.7000000        2.23358493    0.00000000
                                      F - G
                                                     0        0.0000010        0.07263570    0.00000000
                                                     2        0.1400000       -0.76152861    0.00000000
                                                     2        0.2200000        1.98045593    0.00000000
                                                     2        0.4000000       -2.42426427    0.00000000
                                                     2        0.7000000        0.52335237    0.00000000
    3          6            6
                                      G and up 
                                                     0        0.0000010       -0.00286759    0.00000000
                                                     2        0.1200000        0.03193960    0.00000000
                                                     2        0.1600000       -0.04027782    0.00000000
                                                     2        0.2600000        0.24782456    0.00000000
                                                     2        0.4000000       -0.62266671    0.00000000
                                                     2        0.7000000        0.35695227    0.00000000
                                      S - G
                                                     0        0.0000010       -0.06602313    0.00000000
                                                     2        0.1200000        1.47277455    0.00000000
                                                     2        0.1600000       -4.06924166    0.00000000
                                                     2        0.3000000        5.02952802    0.00000000
                                                     2        0.7000000       -5.65856978    0.00000000
                                                     2        1.7000000        8.57604414    0.00000000
                                      P - G
                                                     0        0.0000010        0.49434425    0.00000000
                                                     2        0.1200000       -1.37391547    0.00000000
                                                     2        0.1600000        3.65411806    0.00000000
                                                     2        0.2800000       -7.36479843    0.00000000
                                                     2        0.6000000       17.22091285    0.00000000
                                                     2        1.1000000      -23.50107827    0.00000000
                                                     2        3.0000000       16.29464063    0.00000000
                                      D - G
                                                     0        0.0000010       -0.28693103    0.00000000
                                                     2        0.1200000        0.12273044    0.00000000
                                                     2        0.3000000       -0.43416384    0.00000000
                                                     2        0.7000000        2.23358493    0.00000000
                                      F - G
                                                     0        0.0000010        0.07263570    0.00000000
                                                     2        0.1400000       -0.76152861    0.00000000
                                                     2        0.2200000        1.98045593    0.00000000
                                                     2        0.4000000       -2.42426427    0.00000000
                                                     2        0.7000000        0.52335237    0.00000000
    4          1            1
                                      F and up 
                                                     0        0.0000010        0.00072061    0.00000000
                                                     2        0.1200000        0.03832357    0.00000000
                                                     2        0.1400000       -0.08683256    0.00000000
                                                     2        0.1800000        0.09312970    0.00000000
                                                     2        0.2800000       -0.02532572    0.00000000
                                                     2        0.4000000       -0.09430787    0.00000000
                                                     2        0.7000000        0.42710831    0.00000000
                                                     2        1.2000000       -2.11746981    0.00000000
                                      S - F
                                                     0        0.0000010        0.14449603    0.00000000
                                                     2        0.1200000       -0.56378993    0.00000000
                                                     2        0.1400000        0.63941249    0.00000000
                                                     2        0.2600000       -0.58461015    0.00000000
                                                     2        0.5000000        1.00157293    0.00000000
                                                     2        1.8000000       -0.14135838    0.00000000
                                      P - F
                                                     0        0.0000010       -0.09353646    0.00000000
                                                     2        0.1200000        0.31768975    0.00000000
                                                     2        0.2000000       -0.71747951    0.00000000
                                                     2        0.4000000        0.65752308    0.00000000
                                                     2        1.7000000        2.94052587    0.00000000
                                      D - F
                                                     0        0.0000010       -0.04491202    0.00000000
                                                     2        0.1200000       -0.02862031    0.00000000
                                                     2        0.1800000       -0.21515263    0.00000000
                                                     2        0.3000000        0.80560647    0.00000000
                                                     2        0.4000000        0.47351754    0.00000000
                                                     2        0.7000000       -4.57051794    0.00000000
                                                     2        1.6000000       18.53737826    0.00000000
    5          1            1
                                      F and up 
                                                     0        0.0000010        0.00072061    0.00000000
                                                     2        0.1200000        0.03832357    0.00000000
                                                     2        0.1400000       -0.08683256    0.00000000
                                                     2        0.1800000        0.09312970    0.00000000
                                                     2        0.2800000       -0.02532572    0.00000000
                                                     2        0.4000000       -0.09430787    0.00000000
                                                     2        0.7000000        0.42710831    0.00000000
                                                     2        1.2000000       -2.11746981    0.00000000
                                      S - F
                                                     0        0.0000010        0.14449603    0.00000000
                                                     2        0.1200000       -0.56378993    0.00000000
                                                     2        0.1400000        0.63941249    0.00000000
                                                     2        0.2600000       -0.58461015    0.00000000
                                                     2        0.5000000        1.00157293    0.00000000
                                                     2        1.8000000       -0.14135838    0.00000000
                                      P - F
                                                     0        0.0000010       -0.09353646    0.00000000
                                                     2        0.1200000        0.31768975    0.00000000
                                                     2        0.2000000       -0.71747951    0.00000000
                                                     2        0.4000000        0.65752308    0.00000000
                                                     2        1.7000000        2.94052587    0.00000000
                                      D - F
                                                     0        0.0000010       -0.04491202    0.00000000
                                                     2        0.1200000       -0.02862031    0.00000000
                                                     2        0.1800000       -0.21515263    0.00000000
                                                     2        0.3000000        0.80560647    0.00000000
                                                     2        0.4000000        0.47351754    0.00000000
                                                     2        0.7000000       -4.57051794    0.00000000
                                                     2        1.6000000       18.53737826    0.00000000
    6          6            6
                                      G and up 
                                                     0        0.0000010       -0.00286759    0.00000000
                                                     2        0.1200000        0.03193960    0.00000000
                                                     2        0.1600000       -0.04027782    0.00000000
                                                     2        0.2600000        0.24782456    0.00000000
                                                     2        0.4000000       -0.62266671    0.00000000
                                                     2        0.7000000        0.35695227    0.00000000
                                      S - G
                                                     0        0.0000010       -0.06602313    0.00000000
                                                     2        0.1200000        1.47277455    0.00000000
                                                     2        0.1600000       -4.06924166    0.00000000
                                                     2        0.3000000        5.02952802    0.00000000
                                                     2        0.7000000       -5.65856978    0.00000000
                                                     2        1.7000000        8.57604414    0.00000000
                                      P - G
                                                     0        0.0000010        0.49434425    0.00000000
                                                     2        0.1200000       -1.37391547    0.00000000
                                                     2        0.1600000        3.65411806    0.00000000
                                                     2        0.2800000       -7.36479843    0.00000000
                                                     2        0.6000000       17.22091285    0.00000000
                                                     2        1.1000000      -23.50107827    0.00000000
                                                     2        3.0000000       16.29464063    0.00000000
                                      D - G
                                                     0        0.0000010       -0.28693103    0.00000000
                                                     2        0.1200000        0.12273044    0.00000000
                                                     2        0.3000000       -0.43416384    0.00000000
                                                     2        0.7000000        2.23358493    0.00000000
                                      F - G
                                                     0        0.0000010        0.07263570    0.00000000
                                                     2        0.1400000       -0.76152861    0.00000000
                                                     2        0.2200000        1.98045593    0.00000000
                                                     2        0.4000000       -2.42426427    0.00000000
                                                     2        0.7000000        0.52335237    0.00000000
    7          1            1
                                      F and up 
                                                     0        0.0000010        0.00072061    0.00000000
                                                     2        0.1200000        0.03832357    0.00000000
                                                     2        0.1400000       -0.08683256    0.00000000
                                                     2        0.1800000        0.09312970    0.00000000
                                                     2        0.2800000       -0.02532572    0.00000000
                                                     2        0.4000000       -0.09430787    0.00000000
                                                     2        0.7000000        0.42710831    0.00000000
                                                     2        1.2000000       -2.11746981    0.00000000
                                      S - F
                                                     0        0.0000010        0.14449603    0.00000000
                                                     2        0.1200000       -0.56378993    0.00000000
                                                     2        0.1400000        0.63941249    0.00000000
                                                     2        0.2600000       -0.58461015    0.00000000
                                                     2        0.5000000        1.00157293    0.00000000
                                                     2        1.8000000       -0.14135838    0.00000000
                                      P - F
                                                     0        0.0000010       -0.09353646    0.00000000
                                                     2        0.1200000        0.31768975    0.00000000
                                                     2        0.2000000       -0.71747951    0.00000000
                                                     2        0.4000000        0.65752308    0.00000000
                                                     2        1.7000000        2.94052587    0.00000000
                                      D - F
                                                     0        0.0000010       -0.04491202    0.00000000
                                                     2        0.1200000       -0.02862031    0.00000000
                                                     2        0.1800000       -0.21515263    0.00000000
                                                     2        0.3000000        0.80560647    0.00000000
                                                     2        0.4000000        0.47351754    0.00000000
[...]
                 (A) (A) (A) (A) (A) (A) (A) (A) (A) (A) (A) (A)
                 (A) (A) (A) (A) (A) (A) (A) (A) (A) (A) (A) (A)
                 (A) (A) (A) (A) (A) (A) (A) (A) (A) (A) (A) (A)
                 (A) (A) (A) (A) (A) (A)
 The electronic state is 2-A.
 Alpha  occ. eigenvalues --  -29.26516 -29.26142 -11.56519 -11.45891 -11.42290
 Alpha  occ. eigenvalues --  -11.40587 -11.38851 -11.35926  -1.41609  -1.16651
 Alpha  occ. eigenvalues --   -1.13837  -0.98338  -0.89037  -0.85619  -0.80632
 Alpha  occ. eigenvalues --   -0.69866  -0.66355  -0.63482  -0.56470  -0.55629
 Alpha  occ. eigenvalues --   -0.55255  -0.50538  -0.48022  -0.47571  -0.46450
 Alpha  occ. eigenvalues --   -0.42006  -0.36551  -0.33061  -0.28245  -0.26629
 Alpha  occ. eigenvalues --   -0.23853  -0.19712
 Alpha virt. eigenvalues --    0.04213   0.05067   0.05407   0.05599   0.05762
 Alpha virt. eigenvalues --    0.06106   0.06397   0.07357   0.08532   0.10659
 Alpha virt. eigenvalues --    0.12591   0.13281   0.13593   0.13899   0.14531
 Alpha virt. eigenvalues --    0.14630   0.15312   0.15778   0.16582   0.17400
 Alpha virt. eigenvalues --    0.17987   0.18856   0.19102   0.19471   0.19699
 Alpha virt. eigenvalues --    0.20030   0.21597   0.22148   0.22533   0.22892
 Alpha virt. eigenvalues --    0.24346   0.26736   0.28945   0.29452   0.31311
 Alpha virt. eigenvalues --    0.31772   0.32890   0.33937   0.34792   0.35294
 Alpha virt. eigenvalues --    0.36081   0.36822   0.37747   0.38421   0.39046
 Alpha virt. eigenvalues --    0.39645   0.40687   0.41669   0.42771   0.43441
 Alpha virt. eigenvalues --    0.43954   0.44661   0.45726   0.46893   0.47195
 Alpha virt. eigenvalues --    0.47659   0.48387   0.48700   0.49891   0.50383
 Alpha virt. eigenvalues --    0.51064   0.51250   0.52181   0.53700   0.53935
 Alpha virt. eigenvalues --    0.55278   0.55618   0.55878   0.57041   0.57452
 Alpha virt. eigenvalues --    0.59185   0.60349   0.61664   0.61973   0.62981
 Alpha virt. eigenvalues --    0.64039   0.64796   0.66488   0.67225   0.68308
 Alpha virt. eigenvalues --    0.68783   0.69477   0.70202   0.70603   0.71846
 Alpha virt. eigenvalues --    0.72607   0.72883   0.74269   0.74954   0.75771
 Alpha virt. eigenvalues --    0.76384   0.77647   0.79511   0.79650   0.81339
 Alpha virt. eigenvalues --    0.82081   0.82532   0.82965   0.83866   0.84579
 Alpha virt. eigenvalues --    0.85732   0.85918   0.87942   0.89453   0.90802
 Alpha virt. eigenvalues --    0.92096   0.93165   0.93250   0.95071   0.96299
 Alpha virt. eigenvalues --    0.98966   1.01399   1.01703   1.03168   1.03557
 Alpha virt. eigenvalues --    1.07226   1.09513   1.10226   1.13059   1.15089
 Alpha virt. eigenvalues --    1.18195   1.21565   1.26809   1.27767   1.29748
 Alpha virt. eigenvalues --    1.30851   1.32666   1.37388   1.38731   1.40789
 Alpha virt. eigenvalues --    1.42929   1.43287   1.49436   1.50611   1.54918
 Alpha virt. eigenvalues --    1.57086   1.64232   1.68634   1.72724   1.74766
 Alpha virt. eigenvalues --    1.75423   1.78198   1.81780   1.83361   1.85651
 Alpha virt. eigenvalues --    1.86686   1.89438   1.92961   1.94357   1.96282
 Alpha virt. eigenvalues --    1.97552   1.98603   2.01771   2.02490   2.05682
 Alpha virt. eigenvalues --    2.07998   2.09869   2.10889   2.14126   2.14502
 Alpha virt. eigenvalues --    2.15754   2.17759   2.21916   2.24642   2.26379
 Alpha virt. eigenvalues --    2.28458   2.29449   2.31273   2.33563   2.37218
 Alpha virt. eigenvalues --    2.38443   2.41087   2.44185   2.45166   2.46184
 Alpha virt. eigenvalues --    2.49548   2.50320   2.54371   2.56601   2.57744
 Alpha virt. eigenvalues --    2.59665   2.64533   2.64780   2.67053   2.70761
 Alpha virt. eigenvalues --    2.72446   2.76033   2.77903   2.79247   2.81653
 Alpha virt. eigenvalues --    2.84123   2.84864   2.87404   2.92690   2.94184
 Alpha virt. eigenvalues --    2.96228   2.99023   3.01599   3.04192   3.05589
 Alpha virt. eigenvalues --    3.10829   3.11662   3.15270   3.18421   3.20277
 Alpha virt. eigenvalues --    3.22911   3.26235   3.27153   3.32411   3.38683
 Alpha virt. eigenvalues --    3.42317   3.48572   3.58047   3.66208   3.68610
 Alpha virt. eigenvalues --    3.72217   3.75234   3.76290   3.76952   3.85039
 Alpha virt. eigenvalues --    3.86524   3.87783   3.92405   3.93591   3.96223
 Alpha virt. eigenvalues --    4.02772   4.05903   4.08327   4.14087   4.18831
 Alpha virt. eigenvalues --    4.48989   5.17065   5.30269
  Beta  occ. eigenvalues --  -29.26521 -29.26150 -11.56423 -11.45872 -11.42306
  Beta  occ. eigenvalues --  -11.40309 -11.37381 -11.35491  -1.41181  -1.16213
  Beta  occ. eigenvalues --   -1.11663  -0.94773  -0.87484  -0.84642  -0.80370
  Beta  occ. eigenvalues --   -0.69322  -0.65946  -0.63213  -0.55796  -0.55198
  Beta  occ. eigenvalues --   -0.53842  -0.50220  -0.47509  -0.46508  -0.45443
  Beta  occ. eigenvalues --   -0.41969  -0.36298  -0.29253  -0.26567  -0.24218
  Beta  occ. eigenvalues --   -0.19705
  Beta virt. eigenvalues --    0.04184   0.05093   0.05346   0.05625   0.05748
  Beta virt. eigenvalues --    0.05800   0.06383   0.07351   0.08420   0.10251
  Beta virt. eigenvalues --    0.11126   0.12664   0.13405   0.13920   0.14247
  Beta virt. eigenvalues --    0.14666   0.14970   0.15486   0.16175   0.16690
  Beta virt. eigenvalues --    0.17990   0.18498   0.18916   0.19242   0.19728
  Beta virt. eigenvalues --    0.19760   0.20445   0.21749   0.22457   0.22598
  Beta virt. eigenvalues --    0.23766   0.25063   0.26950   0.29130   0.29742
  Beta virt. eigenvalues --    0.31899   0.32188   0.33294   0.33998   0.35101
  Beta virt. eigenvalues --    0.35574   0.36621   0.37367   0.37833   0.38669
  Beta virt. eigenvalues --    0.39408   0.39899   0.40988   0.41838   0.42855
  Beta virt. eigenvalues --    0.43515   0.44386   0.45087   0.46171   0.47084
  Beta virt. eigenvalues --    0.47285   0.48096   0.48727   0.48966   0.50352
  Beta virt. eigenvalues --    0.50839   0.51396   0.52004   0.52497   0.53963
  Beta virt. eigenvalues --    0.54168   0.55559   0.55882   0.56465   0.57169
  Beta virt. eigenvalues --    0.58147   0.59586   0.60886   0.61987   0.62656
  Beta virt. eigenvalues --    0.63154   0.64327   0.65346   0.66988   0.67555
  Beta virt. eigenvalues --    0.68953   0.69241   0.69838   0.71013   0.71448
  Beta virt. eigenvalues --    0.72458   0.73187   0.73500   0.74626   0.75311
  Beta virt. eigenvalues --    0.76464   0.76941   0.77806   0.79727   0.80033
  Beta virt. eigenvalues --    0.81546   0.82301   0.82876   0.83600   0.84076
  Beta virt. eigenvalues --    0.84891   0.86055   0.86261   0.88225   0.89842
  Beta virt. eigenvalues --    0.91399   0.92273   0.93374   0.93731   0.95555
  Beta virt. eigenvalues --    0.96457   0.99405   1.01627   1.02185   1.03647
  Beta virt. eigenvalues --    1.03949   1.07457   1.09863   1.10350   1.13279
  Beta virt. eigenvalues --    1.15539   1.18929   1.21790   1.27290   1.28001
  Beta virt. eigenvalues --    1.30192   1.31915   1.34229   1.38087   1.39055
  Beta virt. eigenvalues --    1.41083   1.43233   1.43995   1.49589   1.51375
  Beta virt. eigenvalues --    1.55365   1.59014   1.64603   1.69203   1.73160
  Beta virt. eigenvalues --    1.75028   1.76710   1.78404   1.82341   1.84004
  Beta virt. eigenvalues --    1.85984   1.87307   1.90138   1.94591   1.96220
  Beta virt. eigenvalues --    1.96548   1.98221   1.99792   2.02458   2.03359
  Beta virt. eigenvalues --    2.06117   2.08208   2.10059   2.11487   2.14243
  Beta virt. eigenvalues --    2.14662   2.16009   2.18097   2.22401   2.25071
  Beta virt. eigenvalues --    2.26706   2.29084   2.29668   2.32035   2.34047
  Beta virt. eigenvalues --    2.37877   2.38868   2.41230   2.44797   2.45840
  Beta virt. eigenvalues --    2.46491   2.50646   2.51158   2.54631   2.56996
  Beta virt. eigenvalues --    2.57944   2.60183   2.64636   2.65019   2.67310
  Beta virt. eigenvalues --    2.71055   2.72674   2.76327   2.78079   2.79901
  Beta virt. eigenvalues --    2.81928   2.84344   2.85226   2.87576   2.93245
  Beta virt. eigenvalues --    2.95121   2.96849   2.99329   3.02000   3.04647
  Beta virt. eigenvalues --    3.05770   3.10976   3.12028   3.15449   3.18509
  Beta virt. eigenvalues --    3.20397   3.22985   3.26315   3.27229   3.32508
  Beta virt. eigenvalues --    3.38759   3.42412   3.48667   3.58211   3.66394
  Beta virt. eigenvalues --    3.68670   3.72283   3.75252   3.76466   3.77129
  Beta virt. eigenvalues --    3.85070   3.86733   3.87803   3.92471   3.93687
  Beta virt. eigenvalues --    3.96447   4.03060   4.05934   4.08346   4.14168
  Beta virt. eigenvalues --    4.18839   4.49074   5.17081   5.30296
          Condensed to atoms (all electrons):
          Atomic-Atomic Spin Densities.
 Mulliken charges and spin densities:
               1          2
     1  C    1.686667   0.000177
     2  C   -3.478436   0.004600
     3  C   -2.805210  -0.003007
     4  H    1.359428   0.000857
     5  H    1.313944   0.000944
     6  C   -3.213620   0.135982
     7  H    1.300768  -0.000427
     8  H    1.310984   0.000591
     9  C   -1.278073  -0.419294
    10  H    1.478253  -0.029423
    11  H    1.331626  -0.015871
    12  C   -3.505606   1.469301
    13  F    0.111797  -0.001474
    14  F    0.160305   0.002831
    15  H    1.337526  -0.060304
    16  H    1.327286  -0.071299
    17  H    1.562362  -0.014184
 Sum of Mulliken charges =   0.00000   1.00000
 Mulliken charges and spin densities with hydrogens summed into heavy atoms:
               1          2
     1  C    1.686667   0.000177
     2  C   -0.805065   0.006401
     3  C   -0.193458  -0.002843
     6  C   -0.403741   0.090688
     9  C    0.284289  -0.433477
    12  C   -0.840794   1.337698
    13  F    0.111797  -0.001474
    14  F    0.160305   0.002831
 Electronic spatial extent (au):  <R**2>=            902.0066
 Charge=              0.0000 electrons
 Dipole moment (field-independent basis, Debye):
    X=              0.6354    Y=             -0.4571    Z=              0.4237  Tot=              0.8901
                          Isotropic Fermi Contact Couplings
        Atom                 a.u.       MegaHertz       Gauss      10(-4) cm-1
     1  C(13)              0.01663      18.69627       6.67129       6.23641
     2  C(13)             -0.00172      -1.93025      -0.68876      -0.64386
     3  C(13)              0.00027       0.29901       0.10670       0.09974
     4  H(1)               0.00023       1.04173       0.37171       0.34748
     5  H(1)               0.00004       0.18058       0.06444       0.06024
     6  C(13)              0.04759      53.50066      19.09036      17.84590
     7  H(1)               0.00053       2.35988       0.84207       0.78717
     8  H(1)              -0.00003      -0.14263      -0.05090      -0.04758
     9  C(13)             -0.04076     -45.81868     -16.34924     -15.28347
    10  H(1)              -0.00099      -4.43873      -1.58385      -1.48060
    11  H(1)              -0.00118      -5.26653      -1.87923      -1.75673
    12  C(13)              0.12597     141.61375      50.53131      47.23726
    13  F(19)             -0.00164      -6.91897      -2.46886      -2.30792
    14  F(19)             -0.00133      -5.57639      -1.98979      -1.86008
    15  H(1)              -0.01877     -83.90801     -29.94046     -27.98870
    16  H(1)              -0.01859     -83.10167     -29.65274     -27.71973
    17  H(1)               0.00323      14.44560       5.15455       4.81853
 --------------------------------------------------------
       Center         ----  Spin Dipole Couplings  ----
                      3XX-RR        3YY-RR        3ZZ-RR
 --------------------------------------------------------
     1   Atom       -0.015347      0.033187     -0.017840
     2   Atom        0.002414      0.000844     -0.003258
     3   Atom        0.002054      0.005477     -0.007531
     4   Atom        0.000175      0.001313     -0.001488
     5   Atom        0.000316      0.001248     -0.001565
     6   Atom        0.062407     -0.036381     -0.026026
     7   Atom        0.002209     -0.000817     -0.001392
     8   Atom        0.002008     -0.001289     -0.000719
     9   Atom        0.005101     -0.001363     -0.003739
    10   Atom        0.005094     -0.008885      0.003791
    11   Atom        0.010585     -0.001866     -0.008720
    12   Atom        0.065556      0.153369     -0.218925
    13   Atom       -0.001845      0.006068     -0.004222
    14   Atom        0.004899     -0.000865     -0.004034
    15   Atom       -0.026140      0.033249     -0.007110
    16   Atom       -0.017814     -0.035274      0.053088
    17   Atom        0.005298     -0.002798     -0.002500
 --------------------------------------------------------
                        XY            XZ            YZ
 --------------------------------------------------------
     1   Atom        0.013132     -0.002178     -0.014375
     2   Atom        0.002615     -0.000149      0.000236
     3   Atom        0.009652      0.001578      0.002145
     4   Atom        0.002049     -0.000706     -0.000950
     5   Atom        0.002187      0.000539      0.000809
     6   Atom       -0.002755     -0.028774      0.000796
     7   Atom        0.001975     -0.001234      0.000289
     8   Atom        0.002228      0.001705      0.000726
     9   Atom        0.006158     -0.000528      0.002517
    10   Atom        0.002903     -0.009475      0.000614
    11   Atom       -0.006171      0.002254     -0.001789
    12   Atom       -0.534813     -0.315167      0.338133
    13   Atom       -0.002924     -0.005506     -0.002761
    14   Atom       -0.004988      0.008191      0.001074
    15   Atom        0.001699     -0.049990     -0.041064
    16   Atom       -0.039898      0.034720      0.005263
    17   Atom        0.005662      0.010533      0.007062
 --------------------------------------------------------


 ---------------------------------------------------------------------------------
              Anisotropic Spin Dipole Couplings in Principal Axis System
 ---------------------------------------------------------------------------------

       Atom             a.u.   MegaHertz   Gauss  10(-4) cm-1        Axes

              Baa    -0.0220    -2.955    -1.054    -0.986 -0.3141  0.3085  0.8978
     1 C(13)  Bbb    -0.0181    -2.430    -0.867    -0.811  0.9205 -0.1326  0.3676
              Bcc     0.0401     5.385     1.921     1.796  0.2325  0.9419 -0.2423
 
              Baa    -0.0033    -0.442    -0.158    -0.147  0.0730 -0.1027  0.9920
     2 C(13)  Bbb    -0.0011    -0.143    -0.051    -0.048 -0.5925  0.7957  0.1260
              Bcc     0.0044     0.585     0.209     0.195  0.8023  0.5970  0.0027
 
              Baa    -0.0079    -1.057    -0.377    -0.353 -0.0091 -0.1522  0.9883
     3 C(13)  Bbb    -0.0060    -0.808    -0.288    -0.270  0.7710 -0.6304 -0.0900
              Bcc     0.0139     1.865     0.665     0.622  0.6367  0.7612  0.1231
 
              Baa    -0.0018    -0.955    -0.341    -0.318  0.1243  0.2146  0.9688
     4 H(1)   Bbb    -0.0014    -0.737    -0.263    -0.246  0.8007 -0.5983  0.0299
              Bcc     0.0032     1.692     0.604     0.564  0.5860  0.7720 -0.2462
 
              Baa    -0.0018    -0.952    -0.340    -0.318  0.0812 -0.3111  0.9469
     5 H(1)   Bbb    -0.0014    -0.763    -0.272    -0.255  0.7854 -0.5649 -0.2530
              Bcc     0.0032     1.715     0.612     0.572  0.6136  0.7642  0.1985
 
              Baa    -0.0365    -4.892    -1.746    -1.632  0.0287  0.9996  0.0028
     6 C(13)  Bbb    -0.0346    -4.638    -1.655    -1.547  0.2842 -0.0108  0.9587
              Bcc     0.0710     9.530     3.401     3.179  0.9583 -0.0267 -0.2844
 
              Baa    -0.0025    -1.329    -0.474    -0.443  0.4330 -0.6238  0.6507
     7 H(1)   Bbb    -0.0009    -0.480    -0.171    -0.160 -0.1349  0.6689  0.7310
              Bcc     0.0034     1.808     0.645     0.603  0.8912  0.4043 -0.2055
 
              Baa    -0.0024    -1.294    -0.462    -0.432 -0.4793  0.8710  0.1082
     8 H(1)   Bbb    -0.0015    -0.774    -0.276    -0.258 -0.2808 -0.2690  0.9213
              Bcc     0.0039     2.068     0.738     0.690  0.8315  0.4111  0.3735
 
              Baa    -0.0069    -0.932    -0.333    -0.311 -0.3821  0.6956 -0.6084
     9 C(13)  Bbb    -0.0019    -0.260    -0.093    -0.087 -0.3686  0.4890  0.7906
              Bcc     0.0089     1.192     0.425     0.398  0.8474  0.5264  0.0695
 
              Baa    -0.0102    -5.422    -1.935    -1.808 -0.3391  0.9012 -0.2699
    10 H(1)   Bbb    -0.0039    -2.084    -0.744    -0.695  0.5867  0.4269  0.6881
              Bcc     0.0141     7.506     2.678     2.504  0.7354  0.0750 -0.6735
 
              Baa    -0.0092    -4.906    -1.751    -1.636 -0.0502  0.1968  0.9792
    11 H(1)   Bbb    -0.0043    -2.282    -0.814    -0.761  0.3992  0.9026 -0.1609
              Bcc     0.0135     7.187     2.565     2.397  0.9155 -0.3828  0.1239
 
              Baa    -0.4279   -57.416   -20.488   -19.152  0.7811  0.5686  0.2580
    12 C(13)  Bbb    -0.4187   -56.189   -20.049   -18.742  0.0524 -0.4714  0.8804
              Bcc     0.8466   113.605    40.537    37.895 -0.6222  0.6741  0.3980
 
              Baa    -0.0097    -4.860    -1.734    -1.621  0.6172  0.2457  0.7474
    13 F(19)  Bbb     0.0025     1.275     0.455     0.425  0.7487  0.1086 -0.6540
              Bcc     0.0071     3.584     1.279     1.196 -0.2419  0.9632 -0.1169
 
              Baa    -0.0103    -5.162    -1.842    -1.722 -0.5324 -0.3690  0.7618
    14 F(19)  Bbb    -0.0007    -0.364    -0.130    -0.122  0.0787  0.8745  0.4786
              Bcc     0.0110     5.527     1.972     1.843  0.8428 -0.3147  0.4366
 
              Baa    -0.0739   -39.416   -14.065   -13.148  0.6966  0.2472  0.6736
    15 H(1)   Bbb     0.0051     2.713     0.968     0.905 -0.6352  0.6489  0.4188
              Bcc     0.0688    36.704    13.097    12.243  0.3336  0.7196 -0.6090
 
              Baa    -0.0730   -38.940   -13.895   -12.989  0.6566  0.7242 -0.2111
    16 H(1)   Bbb     0.0045     2.427     0.866     0.810 -0.6292  0.6801  0.3763
              Bcc     0.0684    36.513    13.029    12.179  0.4160 -0.1143  0.9021
 
              Baa    -0.0111    -5.927    -2.115    -1.977 -0.3725 -0.4404  0.8169
    17 H(1)   Bbb    -0.0055    -2.915    -1.040    -0.972 -0.5808  0.7971  0.1649
              Bcc     0.0166     8.842     3.155     2.949  0.7238  0.4131  0.5527
 

 ---------------------------------------------------------------------------------


 Test job not archived.
 1\1\GINC-SE334\SP\UHF\Aug-CC-pVDZ\C6H9F2(2)\OHZDE\09-Apr-2025\0\\#t hf
  aug-cc-pvdz iop(5/13=1,5/36=2,99/5=2) pseudo=read geom=check guess=(r
 ead,tcheck) scf=(maxcycle=1)\\title\\0,2\C,0,0.33943,-0.60617,-0.02408
 3\C,0,-1.088123,-1.13994,-0.028513\C,0,-1.990434,0.110004,-0.102412\H,
 0,-1.246168,-1.721466,0.879399\H,0,-1.222554,-1.805552,-0.880418\C,0,-
 1.058347,1.295927,0.184506\H,0,-2.826807,0.060949,0.59459\H,0,-2.41189
 8,0.208704,-1.105195\C,0,0.284034,0.861352,-0.445929\H,0,-0.91971,1.43
 2307,1.260097\H,0,-1.418973,2.238412,-0.226929\C,0,1.470443,1.666438,-
 0.079226\F,0,0.865239,-0.700506,1.246202\F,0,1.175272,-1.3394,-0.81918
 1\H,0,1.851471,2.426309,-0.746526\H,0,1.934391,1.540776,0.889314\H,0,0
 .15364,0.853054,-1.53358\\Version=ES64L-G16RevC.01\State=2-A\HF=-433.1
 5851\S2=0.761898\S2-1=0.\S2A=0.750099\RMSD=9.073e-01\Dipole=0.2499823,
 -0.1798478,0.166716\Quadrupole=-0.34715,-0.5624562,0.9096062,-0.527472
 1,0.394038,-0.5098638\PG=C01 [X(C6H9F2)]\\@


 HE THAT RISETH LATE MUST TROT ALL DAY.

                  -- BENJAMIN FRANKLIN
 Job cpu time:       0 days  0 hours  1 minutes 42.8 seconds.
 Elapsed time:       0 days  0 hours  0 minutes  7.8 seconds.
 File lengths (MBytes):  RWF=     14 Int=      0 D2E=      0 Chk=     11 Scr=      1
 Normal termination of Gaussian 16 at Wed Apr  9 02:06:50 2025.
