 Entering Gaussian System, Link 0=g16
 Input=BH10_22_forward_mol2.gjf
 Output=BH10_22_forward_mol2.log
 Initial command:
 /arc/software/Gaussian/g16.c01/l1.exe "/tmp/slurm/4856109/Gau-1915127.inp" -scrdir="/tmp/slurm/4856109/"
 Entering Link 1 = /arc/software/Gaussian/g16.c01/l1.exe PID=   1915128.
  
 Copyright (c) 1988-2019, Gaussian, Inc.  All Rights Reserved.
  
 This is part of the Gaussian(R) 16 program.  It is based on
 the Gaussian(R) 09 system (copyright 2009, Gaussian, Inc.),
 the Gaussian(R) 03 system (copyright 2003, Gaussian, Inc.),
 the Gaussian(R) 98 system (copyright 1998, Gaussian, Inc.),
 the Gaussian(R) 94 system (copyright 1995, Gaussian, Inc.),
 the Gaussian 92(TM) system (copyright 1992, Gaussian, Inc.),
 the Gaussian 90(TM) system (copyright 1990, Gaussian, Inc.),
 the Gaussian 88(TM) system (copyright 1988, Gaussian, Inc.),
 the Gaussian 86(TM) system (copyright 1986, Carnegie Mellon
 University), and the Gaussian 82(TM) system (copyright 1983,
 Carnegie Mellon University). Gaussian is a federally registered
 trademark of Gaussian, Inc.
  
 This software contains proprietary and confidential information,
 including trade secrets, belonging to Gaussian, Inc.
  
 This software is provided under written license and may be
 used, copied, transmitted, or stored only in accord with that
 written license.
  
 The following legend is applicable only to US Government
 contracts under FAR:
  
                    RESTRICTED RIGHTS LEGEND
  
 Use, reproduction and disclosure by the US Government is
 subject to restrictions as set forth in subparagraphs (a)
 and (c) of the Commercial Computer Software - Restricted
 Rights clause in FAR 52.227-19.
  
 Gaussian, Inc.
 340 Quinnipiac St., Bldg. 40, Wallingford CT 06492
  
  
 ---------------------------------------------------------------
 Warning -- This program may not be used in any manner that
 competes with the business of Gaussian, Inc. or will provide
 assistance to any competitor of Gaussian, Inc.  The licensee
 of this program is prohibited from giving any competitor of
 Gaussian, Inc. access to this program.  By using this program,
 the user acknowledges that Gaussian, Inc. is engaged in the
 business of creating and licensing software in the field of
 computational chemistry and represents and warrants to the
 licensee that it is not a competitor of Gaussian, Inc. and that
 it will not use this program in any manner prohibited above.
 ---------------------------------------------------------------
  

 Cite this work as:
 Gaussian 16, Revision C.01,
 M. J. Frisch, G. W. Trucks, H. B. Schlegel, G. E. Scuseria, 
 M. A. Robb, J. R. Cheeseman, G. Scalmani, V. Barone, 
 G. A. Petersson, H. Nakatsuji, X. Li, M. Caricato, A. V. Marenich, 
 J. Bloino, B. G. Janesko, R. Gomperts, B. Mennucci, H. P. Hratchian, 
 J. V. Ortiz, A. F. Izmaylov, J. L. Sonnenberg, D. Williams-Young, 
 F. Ding, F. Lipparini, F. Egidi, J. Goings, B. Peng, A. Petrone, 
 T. Henderson, D. Ranasinghe, V. G. Zakrzewski, J. Gao, N. Rega, 
 G. Zheng, W. Liang, M. Hada, M. Ehara, K. Toyota, R. Fukuda, 
 J. Hasegawa, M. Ishida, T. Nakajima, Y. Honda, O. Kitao, H. Nakai, 
 T. Vreven, K. Throssell, J. A. Montgomery, Jr., J. E. Peralta, 
 F. Ogliaro, M. J. Bearpark, J. J. Heyd, E. N. Brothers, K. N. Kudin, 
 V. N. Staroverov, T. A. Keith, R. Kobayashi, J. Normand, 
 K. Raghavachari, A. P. Rendell, J. C. Burant, S. S. Iyengar, 
 J. Tomasi, M. Cossi, J. M. Millam, M. Klene, C. Adamo, R. Cammi, 
 J. W. Ochterski, R. L. Martin, K. Morokuma, O. Farkas, 
 J. B. Foresman, and D. J. Fox, Gaussian, Inc., Wallingford CT, 2019.
 
 ******************************************
 Gaussian 16:  ES64L-G16RevC.01  3-Jul-2019
                 9-Apr-2025 
 ******************************************
 %nprocs=16
 Will use up to   16 processors via shared memory.
 %mem=30GB
 %chk=BH10_22_forward_mol2.chk
 ----------------------------------------------------------------------
 #t hf aug-cc-pvdz symm=none int=(grid=ultrafine) guess=(read,tcheck) s
 table=opt
 ----------------------------------------------------------------------
 -----
 title
 -----
 Symbolic Z-matrix:
 Charge =  0 Multiplicity = 2
 C                    -0.49646  -0.95442   0.05973 
 C                     0.74578  -1.43665  -0.61692 
 C                     2.00947  -0.67754  -0.15153 
 H                     0.6478   -1.3342   -1.7009 
 H                     0.89365  -2.50302  -0.4099 
 C                     1.93231   0.79456  -0.41326 
 H                     2.87415  -1.09754  -0.67754 
 H                     2.17222  -0.8519    0.91585 
 S                    -1.56983   0.07472  -0.84265 
 C                    -1.99906   1.38338   0.34356 
 H                    -2.66614   2.06686  -0.18045 
 H                    -1.10183   1.91812   0.65349 
 H                    -2.51933   0.98295   1.21194 
 C                    -0.68924  -1.17953   1.52072 
 H                    -1.74302  -1.32008   1.7751 
 H                    -0.31807  -0.34356   2.12981 
 H                    -0.14556  -2.07249   1.84093 
 C                     2.01811   1.73635   0.51542 
 H                     1.95581   2.78877   0.2656 
 H                     2.16281   1.48664   1.562 
 H                     1.77938   1.08707  -1.4499 
 
                    Distance matrix (angstroms):
                    1          2          3          4          5
     1  C    0.000000
     2  C    1.494512   0.000000
     3  C    2.530019   1.545886   0.000000
     4  H    2.133871   1.093214   2.164695   0.000000
     5  H    2.133343   1.096296   2.155041   1.758768   0.000000
     6  C    3.030114   2.535281   1.497170   2.799931   3.457290
     7  H    3.453270   2.156070   1.095792   2.461685   2.443231
     8  H    2.804521   2.173953   1.093708   3.066575   2.473574
     9  S    1.739408   2.774393   3.722224   2.763975   3.591766
    10  C    2.793499   4.050830   4.534402   4.309403   4.903018
    11  H    3.727375   4.909818   5.421614   4.986103   5.797294
    12  H    2.995073   4.035105   4.131061   4.379722   4.965804
    13  H    3.028691   4.456472   5.012616   4.887185   5.141091
    14  C    1.490743   2.587441   3.214253   3.491477   2.825673
    15  H    2.151766   3.453902   4.266842   4.218862   3.622929
    16  H    2.165684   3.141834   3.276199   4.072912   3.547063
    17  H    2.132109   2.690685   3.249608   3.703925   2.516257
    18  C    3.710918   3.601240   2.504340   4.027168   4.482504
    19  H    4.479674   4.482995   3.491731   4.751520   5.439445
    20  H    3.909898   3.911690   2.764664   4.571536   4.627804
    21  H    3.409710   2.851557   2.202850   2.684404   3.841207
                    6          7          8          9         10
     6  C    0.000000
     7  H    2.130006   0.000000
     8  H    2.129535   1.758394   0.000000
     9  S    3.601052   4.598958   4.237209   0.000000
    10  C    4.046628   5.562892   4.766926   1.817670   0.000000
    11  H    4.776897   6.399636   5.755938   2.368341   1.089378
    12  H    3.406814   5.164711   4.296655   2.419832   1.089506
    13  H    4.742777   6.081794   5.046289   2.438808   1.088626
    14  C    3.809177   4.187692   2.942983   2.816756   3.109637
    15  H    4.771655   5.232898   4.035670   2.971206   3.069774
    16  H    3.581444   4.317401   2.816673   3.252290   2.999786
    17  H    4.197489   4.051158   2.778081   3.720306   4.197688
    18  C    1.325433   3.191687   2.623566   4.180751   4.036306
    19  H    2.106728   4.103206   3.704613   4.585242   4.197879
    20  H    2.105651   3.492786   2.426185   4.659236   4.337788
    21  H    1.087925   2.562728   3.083947   3.551173   4.192963
                   11         12         13         14         15
    11  H    0.000000
    12  H    1.778948   0.000000
    13  H    1.770647   1.787656   0.000000
    14  C    4.164281   3.243107   2.849724   0.000000
    15  H    4.018421   3.486404   2.494741   1.093127   0.000000
    16  H    4.081776   2.812288   2.729041   1.098912   1.763489
    17  H    5.251054   4.271931   3.919965   1.093385   1.767014
    18  C    4.747174   3.128278   4.652001   4.103983   5.007454
    19  H    4.699202   3.202757   4.917666   4.931432   5.730843
    20  H    5.166385   3.416053   4.722149   3.904402   4.814415
    21  H    4.725902   3.662826   5.057192   4.478408   5.348112
                   16         17         18         19         20
    16  H    0.000000
    17  H    1.761366   0.000000
    18  C    3.519939   4.576643   0.000000
    19  H    4.296195   5.525332   1.083466   0.000000
    20  H    3.134773   4.251330   1.085641   1.849065   0.000000
    21  H    4.388659   4.951545   2.083519   2.422784   3.062392
                   21
    21  H    0.000000
 Symmetry turned off by external request.
 Rotational constants (GHZ):           2.0642808           1.2262135           1.0321439
   305 basis functions,   525 primitive gaussians,   321 cartesian basis functions
    36 alpha electrons       35 beta electrons
       nuclear repulsion energy       451.3897934129 Hartrees.
 NAtoms=   21 NActive=   21 NUniq=   21 SFac= 1.00D+00 NAtFMM=   60 NAOKFM=F Big=F
 ExpMin= 2.97D-02 ExpMax= 1.11D+05 ExpMxC= 1.07D+03 IAcc=3 IRadAn=         5 AccDes= 0.00D+00
 Harris functional with IExCor=  205 and IRadAn=       5 diagonalized for initial guess.
 HarFok:  IExCor=  205 AccDes= 0.00D+00 IRadAn=         5 IDoV= 1 UseB2=F ITyADJ=14
 ICtDFT=  3500011 ScaDFX=  1.000000  1.000000  1.000000  1.000000
 FoFCou: FMM=F IPFlag=           0 FMFlag=      100000 FMFlg1=           0
         NFxFlg=           0 DoJE=T BraDBF=F KetDBF=T FulRan=T
         wScrn=  0.000000 ICntrl=       500 IOpCl=  0 I1Cent=   200000004 NGrid=           0
         NMat0=    1 NMatS0=      1 NMatT0=    0 NMatD0=    1 NMtDS0=    0 NMtDT0=    0
 Symmetry not used in FoFCou.
 Initial guess <Sx>= 0.0000 <Sy>= 0.0000 <Sz>= 0.5000 <S**2>= 0.7500 S= 0.5000
 Restarting incremental Fock formation.
 SCF Done:  E(UHF) =  -670.143783792     A.U. after   23 cycles
            NFock= 23  Conv=0.56D-08     -V/T= 2.0002
 <Sx>= 0.0000 <Sy>= 0.0000 <Sz>= 0.5000 <S**2>= 0.7714 S= 0.5107
 <L.S>=  0.00000000000    
 Annihilation of the first spin contaminant:
 S**2 before annihilation     0.7714,   after     0.7504

 **********************************************************************

            Population analysis using the SCF Density.

 **********************************************************************

 Alpha  occ. eigenvalues --  -91.94644 -11.25503 -11.25441 -11.23821 -11.23565
 Alpha  occ. eigenvalues --  -11.23392 -11.23006 -11.22454  -8.94834  -6.62981
 Alpha  occ. eigenvalues --   -6.62837  -6.62814  -1.12602  -1.07146  -1.01408
 Alpha  occ. eigenvalues --   -0.97456  -0.90736  -0.85509  -0.76067  -0.72772
 Alpha  occ. eigenvalues --   -0.64076  -0.63116  -0.61993  -0.60027  -0.58265
 Alpha  occ. eigenvalues --   -0.56668  -0.55803  -0.55321  -0.52620  -0.49528
 Alpha  occ. eigenvalues --   -0.48545  -0.47463  -0.43853  -0.38659  -0.36267
 Alpha  occ. eigenvalues --   -0.28168
 Alpha virt. eigenvalues --    0.03555   0.04016   0.04395   0.04813   0.05863
 Alpha virt. eigenvalues --    0.06064   0.06415   0.06769   0.07227   0.08316
 Alpha virt. eigenvalues --    0.08807   0.09464   0.09822   0.11249   0.12204
 Alpha virt. eigenvalues --    0.12899   0.13708   0.14602   0.15042   0.15208
 Alpha virt. eigenvalues --    0.15654   0.16260   0.16332   0.17192   0.17262
 Alpha virt. eigenvalues --    0.17395   0.17793   0.17954   0.18366   0.18768
 Alpha virt. eigenvalues --    0.19016   0.20198   0.20405   0.20842   0.21401
 Alpha virt. eigenvalues --    0.21853   0.22068   0.23205   0.23920   0.24877
 Alpha virt. eigenvalues --    0.25304   0.25699   0.26863   0.26963   0.28653
 Alpha virt. eigenvalues --    0.29925   0.30446   0.30858   0.32255   0.33408
 Alpha virt. eigenvalues --    0.33765   0.35333   0.35657   0.36286   0.37566
 Alpha virt. eigenvalues --    0.38408   0.39139   0.39457   0.41014   0.41263
 Alpha virt. eigenvalues --    0.41526   0.42048   0.42625   0.43028   0.43801
 Alpha virt. eigenvalues --    0.44662   0.44960   0.45395   0.46412   0.46735
 Alpha virt. eigenvalues --    0.47484   0.48427   0.48937   0.49441   0.50097
 Alpha virt. eigenvalues --    0.50412   0.50999   0.52248   0.52400   0.53701
 Alpha virt. eigenvalues --    0.53842   0.54043   0.55022   0.56073   0.56828
 Alpha virt. eigenvalues --    0.57098   0.58869   0.58916   0.59865   0.60167
 Alpha virt. eigenvalues --    0.60472   0.61135   0.62290   0.62419   0.63081
 Alpha virt. eigenvalues --    0.64897   0.65262   0.66200   0.66649   0.67379
 Alpha virt. eigenvalues --    0.68192   0.68878   0.69903   0.70720   0.71047
 Alpha virt. eigenvalues --    0.71667   0.72134   0.72854   0.73070   0.73502
 Alpha virt. eigenvalues --    0.74431   0.75429   0.76336   0.76997   0.77723
 Alpha virt. eigenvalues --    0.78239   0.79303   0.79967   0.80222   0.81957
 Alpha virt. eigenvalues --    0.82631   0.83277   0.84032   0.84755   0.85339
 Alpha virt. eigenvalues --    0.85493   0.86419   0.86789   0.88590   0.89890
 Alpha virt. eigenvalues --    0.90233   0.91355   0.92176   0.92690   0.93342
 Alpha virt. eigenvalues --    0.94957   0.95197   0.96937   0.97658   0.98696
 Alpha virt. eigenvalues --    1.00206   1.01334   1.03522   1.04837   1.06386
 Alpha virt. eigenvalues --    1.08911   1.10620   1.13760   1.14002   1.14533
 Alpha virt. eigenvalues --    1.15840   1.17408   1.19356   1.21003   1.22771
 Alpha virt. eigenvalues --    1.24581   1.25778   1.26436   1.27197   1.29294
 Alpha virt. eigenvalues --    1.29468   1.31102   1.32931   1.33520   1.35502
 Alpha virt. eigenvalues --    1.36649   1.38512   1.40135   1.43008   1.44571
 Alpha virt. eigenvalues --    1.45841   1.49440   1.50517   1.53101   1.56146
 Alpha virt. eigenvalues --    1.57400   1.59445   1.60145   1.63277   1.64071
 Alpha virt. eigenvalues --    1.64694   1.66662   1.70065   1.71746   1.73417
 Alpha virt. eigenvalues --    1.74317   1.78137   1.79366   1.79944   1.82918
 Alpha virt. eigenvalues --    1.84800   1.87327   1.87529   1.88184   1.89627
 Alpha virt. eigenvalues --    1.91291   1.93550   1.95478   1.96142   1.97199
 Alpha virt. eigenvalues --    1.97621   1.99161   1.99508   2.02170   2.03763
 Alpha virt. eigenvalues --    2.05276   2.06303   2.07640   2.10532   2.11870
 Alpha virt. eigenvalues --    2.12987   2.14102   2.16274   2.16577   2.19161
 Alpha virt. eigenvalues --    2.20393   2.20906   2.22531   2.23803   2.25198
 Alpha virt. eigenvalues --    2.26350   2.27716   2.29540   2.31640   2.32730
 Alpha virt. eigenvalues --    2.34309   2.36394   2.37212   2.38170   2.40585
 Alpha virt. eigenvalues --    2.41706   2.44787   2.45438   2.47264   2.49882
 Alpha virt. eigenvalues --    2.50635   2.51970   2.55198   2.58035   2.59571
 Alpha virt. eigenvalues --    2.60706   2.61258   2.65138   2.66560   2.69344
 Alpha virt. eigenvalues --    2.71799   2.72489   2.73609   2.77654   2.78722
 Alpha virt. eigenvalues --    2.84011   2.85388   2.87667   2.90692   2.92404
 Alpha virt. eigenvalues --    2.97261   2.98606   3.02383   3.05353   3.06176
 Alpha virt. eigenvalues --    3.07341   3.11808   3.17933   3.19686   3.25844
 Alpha virt. eigenvalues --    3.41512   3.44101   3.57620   3.89070
  Beta  occ. eigenvalues --  -91.94666 -11.25379 -11.23787 -11.23709 -11.23340
  Beta  occ. eigenvalues --  -11.23329 -11.22845 -11.22497  -8.94854  -6.63178
  Beta  occ. eigenvalues --   -6.62976  -6.62603  -1.10212  -1.05991  -1.00868
  Beta  occ. eigenvalues --   -0.96973  -0.89684  -0.85363  -0.75801  -0.69659
  Beta  occ. eigenvalues --   -0.63558  -0.62400  -0.60438  -0.58694  -0.57330
  Beta  occ. eigenvalues --   -0.55905  -0.55317  -0.54537  -0.52003  -0.49044
  Beta  occ. eigenvalues --   -0.47936  -0.46812  -0.42550  -0.36376  -0.34215
  Beta virt. eigenvalues --    0.03531   0.04026   0.04399   0.04808   0.05836
  Beta virt. eigenvalues --    0.06061   0.06418   0.06731   0.07237   0.08314
  Beta virt. eigenvalues --    0.08800   0.09473   0.09770   0.11126   0.11576
  Beta virt. eigenvalues --    0.12615   0.12988   0.14133   0.14795   0.15108
  Beta virt. eigenvalues --    0.15633   0.15862   0.16372   0.16571   0.17222
  Beta virt. eigenvalues --    0.17290   0.17676   0.17948   0.18380   0.18450
  Beta virt. eigenvalues --    0.18809   0.19152   0.20241   0.20533   0.20888
  Beta virt. eigenvalues --    0.21471   0.21885   0.22114   0.23299   0.23981
  Beta virt. eigenvalues --    0.25321   0.25565   0.26034   0.26930   0.27796
  Beta virt. eigenvalues --    0.28880   0.30324   0.30539   0.31444   0.32691
  Beta virt. eigenvalues --    0.33722   0.34353   0.35585   0.35826   0.36644
  Beta virt. eigenvalues --    0.37909   0.38731   0.39417   0.39880   0.41141
  Beta virt. eigenvalues --    0.41520   0.41659   0.42442   0.43052   0.43218
  Beta virt. eigenvalues --    0.44288   0.45012   0.45364   0.46047   0.46618
  Beta virt. eigenvalues --    0.46931   0.47713   0.48779   0.49184   0.49627
  Beta virt. eigenvalues --    0.50246   0.50679   0.51145   0.52369   0.52788
  Beta virt. eigenvalues --    0.53892   0.54067   0.54544   0.55472   0.56414
  Beta virt. eigenvalues --    0.56975   0.57683   0.59040   0.59607   0.60042
  Beta virt. eigenvalues --    0.60455   0.60678   0.61432   0.62500   0.62714
  Beta virt. eigenvalues --    0.63400   0.65386   0.65874   0.66461   0.66880
  Beta virt. eigenvalues --    0.67654   0.68722   0.69197   0.70149   0.70960
  Beta virt. eigenvalues --    0.71231   0.71825   0.72329   0.72990   0.73352
  Beta virt. eigenvalues --    0.73800   0.74645   0.75663   0.76869   0.77508
  Beta virt. eigenvalues --    0.78045   0.78750   0.79763   0.80302   0.80627
  Beta virt. eigenvalues --    0.82235   0.82829   0.83633   0.84637   0.85057
  Beta virt. eigenvalues --    0.85747   0.85813   0.86663   0.86999   0.89208
  Beta virt. eigenvalues --    0.90248   0.90354   0.91618   0.92528   0.92834
  Beta virt. eigenvalues --    0.93683   0.95373   0.95685   0.97420   0.98743
  Beta virt. eigenvalues --    0.99054   1.00430   1.01526   1.03680   1.04983
  Beta virt. eigenvalues --    1.06894   1.09429   1.11037   1.13971   1.14411
  Beta virt. eigenvalues --    1.15323   1.16447   1.17984   1.19757   1.21377
  Beta virt. eigenvalues --    1.23052   1.24720   1.26328   1.26902   1.27484
  Beta virt. eigenvalues --    1.29530   1.29767   1.32046   1.32934   1.33890
  Beta virt. eigenvalues --    1.36302   1.37036   1.38801   1.40452   1.43858
  Beta virt. eigenvalues --    1.44765   1.46207   1.49740   1.50806   1.53485
  Beta virt. eigenvalues --    1.56534   1.58080   1.60065   1.60632   1.63596
  Beta virt. eigenvalues --    1.64332   1.64837   1.66977   1.70200   1.72271
  Beta virt. eigenvalues --    1.73795   1.74803   1.78562   1.79566   1.80106
  Beta virt. eigenvalues --    1.83049   1.85242   1.87598   1.88190   1.88910
  Beta virt. eigenvalues --    1.90126   1.91604   1.94671   1.95764   1.96373
  Beta virt. eigenvalues --    1.98025   1.98167   1.99358   2.00459   2.02959
  Beta virt. eigenvalues --    2.04757   2.06160   2.07199   2.08452   2.10741
  Beta virt. eigenvalues --    2.12273   2.13167   2.14591   2.16723   2.16868
  Beta virt. eigenvalues --    2.19495   2.20874   2.21224   2.22942   2.24166
  Beta virt. eigenvalues --    2.25345   2.26728   2.27856   2.29912   2.31917
  Beta virt. eigenvalues --    2.32908   2.34571   2.36714   2.37389   2.38423
  Beta virt. eigenvalues --    2.40781   2.42076   2.45475   2.45847   2.47834
  Beta virt. eigenvalues --    2.50053   2.51036   2.52294   2.55382   2.58257
  Beta virt. eigenvalues --    2.59876   2.60826   2.61411   2.65387   2.66725
  Beta virt. eigenvalues --    2.69467   2.72263   2.72671   2.73964   2.77946
  Beta virt. eigenvalues --    2.78895   2.84290   2.85508   2.87737   2.90860
  Beta virt. eigenvalues --    2.92634   2.97431   2.98833   3.02520   3.05474
  Beta virt. eigenvalues --    3.06241   3.07538   3.12091   3.18158   3.19790
  Beta virt. eigenvalues --    3.25962   3.41807   3.44352   3.58726   3.89191
          Condensed to atoms (all electrons):
          Atomic-Atomic Spin Densities.
 Mulliken charges and spin densities:
               1          2
     1  C   -0.075377   1.438762
     2  C    0.310904  -0.257001
     3  C    0.219669   0.064317
     4  H   -0.198031   0.001297
     5  H   -0.078394   0.014051
     6  C    0.990905   0.009308
     7  H   -0.017694   0.000573
     8  H   -0.230226  -0.002360
     9  S    0.102715  -0.069947
    10  C    0.193598   0.028553
    11  H   -0.159220  -0.004171
    12  H   -0.115856   0.001269
    13  H   -0.061551  -0.001975
    14  C    0.187435  -0.275640
    15  H   -0.066310   0.019404
    16  H    0.064460   0.041891
    17  H   -0.202831   0.008106
    18  C    0.359087  -0.020504
    19  H   -0.359356   0.002060
    20  H   -0.358145   0.002649
    21  H   -0.505782  -0.000644
 Sum of Mulliken charges =  -0.00000   1.00000
 Mulliken charges and spin densities with hydrogens summed into heavy atoms:
               1          2
     1  C   -0.075377   1.438762
     2  C    0.034479  -0.241654
     3  C   -0.028250   0.062531
     6  C    0.485123   0.008664
     9  S    0.102715  -0.069947
    10  C   -0.143030   0.023677
    14  C   -0.017245  -0.206239
    18  C   -0.358414  -0.015794
 Electronic spatial extent (au):  <R**2>=           1337.7540
 Charge=             -0.0000 electrons
 Dipole moment (field-independent basis, Debye):
    X=              0.5344    Y=              0.1035    Z=              1.4265  Tot=              1.5268
                          Isotropic Fermi Contact Couplings
        Atom                 a.u.       MegaHertz       Gauss      10(-4) cm-1
     1  C(13)              0.25299     284.41454     101.48618      94.87048
     2  C(13)             -0.05595     -62.90180     -22.44493     -20.98178
     3  C(13)              0.05315      59.75609      21.32246      19.93249
     4  H(1)               0.00343      15.31419       5.46448       5.10826
     5  H(1)               0.01001      44.75634      15.97017      14.92911
     6  C(13)              0.00093       1.04473       0.37279       0.34849
     7  H(1)               0.00065       2.89754       1.03391       0.96651
     8  H(1)              -0.00141      -6.31997      -2.25512      -2.10812
     9  S(33)              0.01964       6.74746       2.40766       2.25071
    10  C(13)              0.02534      28.48365      10.16367       9.50112
    11  H(1)              -0.00065      -2.90002      -1.03480      -0.96734
    12  H(1)               0.00072       3.23076       1.15281       1.07766
    13  H(1)              -0.00002      -0.09235      -0.03295      -0.03081
    14  C(13)             -0.06109     -68.67647     -24.50547     -22.90800
    15  H(1)               0.00996      44.52421      15.88735      14.85168
    16  H(1)               0.02264     101.19249      36.10800      33.75418
    17  H(1)               0.00558      24.93500       8.89743       8.31742
    18  C(13)             -0.00327      -3.67904      -1.31277      -1.22720
    19  H(1)               0.00044       1.94663       0.69460       0.64932
    20  H(1)               0.00044       1.96372       0.70070       0.65503
    21  H(1)              -0.00041      -1.81791      -0.64867      -0.60639
 --------------------------------------------------------
       Center         ----  Spin Dipole Couplings  ----
                      3XX-RR        3YY-RR        3ZZ-RR
 --------------------------------------------------------
     1   Atom       -0.076785      0.526132     -0.449346
     2   Atom       -0.001618     -0.000261      0.001879
     3   Atom        0.047084     -0.020036     -0.027047
     4   Atom        0.001867     -0.005529      0.003662
     5   Atom        0.008570     -0.002697     -0.005873
     6   Atom        0.024007     -0.011074     -0.012933
     7   Atom        0.007669     -0.003806     -0.003862
     8   Atom        0.007443     -0.008442      0.001000
     9   Atom        0.234199     -0.121072     -0.113127
    10   Atom       -0.019497      0.021517     -0.002020
    11   Atom       -0.000205      0.003634     -0.003429
    12   Atom       -0.002302      0.007313     -0.005011
    13   Atom        0.000480     -0.001549      0.001069
    14   Atom        0.000966     -0.001714      0.000748
    15   Atom       -0.007477     -0.005092      0.012569
    16   Atom       -0.005993     -0.009231      0.015224
    17   Atom       -0.006857     -0.006231      0.013088
    18   Atom       -0.018201      0.011640      0.006561
    19   Atom       -0.000133      0.000666     -0.000533
    20   Atom        0.000928      0.001379     -0.002307
    21   Atom        0.001058     -0.000766     -0.000292
 --------------------------------------------------------
                        XY            XZ            YZ
 --------------------------------------------------------
     1   Atom        0.702034      0.218487      0.318024
     2   Atom       -0.000582      0.000861     -0.001833
     3   Atom        0.034588      0.022251      0.009813
     4   Atom       -0.001199     -0.013854      0.004660
     5   Atom       -0.012270     -0.004448      0.005907
     6   Atom        0.006787     -0.006911     -0.001484
     7   Atom       -0.001804     -0.003784      0.002024
     8   Atom       -0.000124      0.006952     -0.000509
     9   Atom        0.289526     -0.249970     -0.005008
    10   Atom       -0.017535     -0.010467      0.028586
    11   Atom       -0.005732      0.001354      0.000045
    12   Atom       -0.002355      0.000380      0.004128
    13   Atom       -0.004577     -0.005810      0.003036
    14   Atom       -0.002430     -0.000062     -0.000887
    15   Atom        0.000002     -0.009550     -0.002547
    16   Atom       -0.002134     -0.001119     -0.000116
    17   Atom        0.001868      0.003458     -0.008920
    18   Atom        0.002572      0.003907      0.001885
    19   Atom        0.002253      0.000162      0.001012
    20   Atom        0.003052      0.001536      0.002680
    21   Atom        0.003217     -0.002740     -0.003973
 --------------------------------------------------------


 ---------------------------------------------------------------------------------
              Anisotropic Spin Dipole Couplings in Principal Axis System
 ---------------------------------------------------------------------------------

       Atom             a.u.   MegaHertz   Gauss  10(-4) cm-1        Axes

              Baa    -0.5509   -73.920   -26.376   -24.657 -0.5580  0.1213  0.8209
     1 C(13)  Bbb    -0.5348   -71.764   -25.607   -23.938  0.6347 -0.5748  0.5164
              Bcc     1.0856   145.684    51.984    48.595  0.5345  0.8092  0.2437
 
              Baa    -0.0019    -0.249    -0.089    -0.083  0.9683  0.2219 -0.1145
     2 C(13)  Bbb    -0.0013    -0.175    -0.062    -0.058 -0.1316  0.8432  0.5213
              Bcc     0.0032     0.424     0.151     0.141  0.2122 -0.4897  0.8457
 
              Baa    -0.0348    -4.664    -1.664    -1.556 -0.3264  0.9178 -0.2263
     3 C(13)  Bbb    -0.0332    -4.453    -1.589    -1.485 -0.3132  0.1209  0.9420
              Bcc     0.0679     9.117     3.253     3.041  0.8919  0.3783  0.2480
 
              Baa    -0.0120    -6.418    -2.290    -2.141  0.6412 -0.3655  0.6747
     4 H(1)   Bbb    -0.0054    -2.882    -1.028    -0.961  0.3888  0.9128  0.1250
              Bcc     0.0174     9.300     3.318     3.102 -0.6616  0.1822  0.7274
 
              Baa    -0.0120    -6.425    -2.293    -2.143  0.3635  0.7897 -0.4942
     5 H(1)   Bbb    -0.0064    -3.411    -1.217    -1.138  0.4849  0.2926  0.8242
              Bcc     0.0184     9.836     3.510     3.281  0.7955 -0.5392 -0.2766
 
              Baa    -0.0142    -1.908    -0.681    -0.636  0.1541  0.1298  0.9795
     6 C(13)  Bbb    -0.0123    -1.654    -0.590    -0.552 -0.2007  0.9748 -0.0976
              Bcc     0.0265     3.561     1.271     1.188  0.9675  0.1815 -0.1762
 
              Baa    -0.0061    -3.234    -1.154    -1.079  0.1391 -0.5976  0.7896
     7 H(1)   Bbb    -0.0032    -1.682    -0.600    -0.561  0.3178  0.7821  0.5360
              Bcc     0.0092     4.916     1.754     1.640  0.9379 -0.1764 -0.2987
 
              Baa    -0.0085    -4.522    -1.614    -1.508 -0.0230  0.9972  0.0704
     8 H(1)   Bbb    -0.0034    -1.822    -0.650    -0.608 -0.5384 -0.0717  0.8396
              Bcc     0.0119     6.344     2.264     2.116  0.8424 -0.0186  0.5386
 
              Baa    -0.3593   -14.732    -5.257    -4.914 -0.5416  0.6469 -0.5368
     9 S(33)  Bbb    -0.1214    -4.978    -1.776    -1.661  0.0124  0.6447  0.7644
              Bcc     0.4807    19.710     7.033     6.575  0.8405  0.4073 -0.3572
 
              Baa    -0.0260    -3.485    -1.244    -1.163  0.9356  0.3528 -0.0122
    10 C(13)  Bbb    -0.0210    -2.812    -1.003    -0.938  0.1961 -0.4906  0.8491
              Bcc     0.0469     6.297     2.247     2.100 -0.2936  0.7968  0.5281
 
              Baa    -0.0051    -2.724    -0.972    -0.909  0.6874  0.4537 -0.5671
    11 H(1)   Bbb    -0.0027    -1.443    -0.515    -0.481  0.4265  0.3799  0.8208
              Bcc     0.0078     4.167     1.487     1.390 -0.5879  0.8061 -0.0676
 
              Baa    -0.0065    -3.492    -1.246    -1.165 -0.2571 -0.3158  0.9134
    12 H(1)   Bbb    -0.0024    -1.298    -0.463    -0.433  0.9480  0.1013  0.3018
              Bcc     0.0090     4.790     1.709     1.598 -0.1878  0.9434  0.2733
 
              Baa    -0.0058    -3.101    -1.106    -1.034  0.7524  0.5183  0.4066
    13 H(1)   Bbb    -0.0035    -1.844    -0.658    -0.615 -0.1405  0.7293 -0.6697
              Bcc     0.0093     4.945     1.764     1.649  0.6436 -0.4467 -0.6215
 
              Baa    -0.0033    -0.444    -0.158    -0.148  0.4872  0.8515  0.1938
    14 C(13)  Bbb     0.0008     0.109     0.039     0.036 -0.3022 -0.0439  0.9522
              Bcc     0.0025     0.335     0.120     0.112  0.8193 -0.5225  0.2360
 
              Baa    -0.0114    -6.105    -2.179    -2.037  0.9128  0.1518  0.3791
    15 H(1)   Bbb    -0.0052    -2.777    -0.991    -0.926 -0.1814  0.9825  0.0433
              Bcc     0.0166     8.883     3.170     2.963 -0.3659 -0.1083  0.9243
 
              Baa    -0.0103    -5.498    -1.962    -1.834  0.4484  0.8935  0.0237
    16 H(1)   Bbb    -0.0050    -2.656    -0.948    -0.886  0.8923 -0.4490  0.0469
              Bcc     0.0153     8.154     2.910     2.720 -0.0525 -0.0002  0.9986
 
              Baa    -0.0117    -6.231    -2.223    -2.078 -0.5461  0.7609  0.3503
    17 H(1)   Bbb    -0.0052    -2.761    -0.985    -0.921  0.8307  0.5458  0.1093
              Bcc     0.0169     8.992     3.208     2.999  0.1080 -0.3507  0.9302
 
              Baa    -0.0190    -2.546    -0.908    -0.849  0.9866 -0.0739 -0.1455
    18 C(13)  Bbb     0.0063     0.839     0.299     0.280  0.1079 -0.3739  0.9212
              Bcc     0.0127     1.706     0.609     0.569  0.1225  0.9245  0.3609
 
              Baa    -0.0022    -1.176    -0.420    -0.392  0.6833 -0.6520  0.3286
    19 H(1)   Bbb    -0.0006    -0.313    -0.112    -0.104 -0.4186  0.0190  0.9080
              Bcc     0.0028     1.489     0.531     0.497  0.5983  0.7580  0.2599
 
              Baa    -0.0037    -1.984    -0.708    -0.662  0.0215 -0.4754  0.8795
    20 H(1)   Bbb    -0.0017    -0.897    -0.320    -0.299  0.7943 -0.5261 -0.3038
              Bcc     0.0054     2.881     1.028     0.961  0.6071  0.7051  0.3663
 
              Baa    -0.0046    -2.439    -0.870    -0.814 -0.1333  0.7674  0.6271
    21 H(1)   Bbb    -0.0021    -1.098    -0.392    -0.366  0.7864 -0.3032  0.5382
              Bcc     0.0066     3.537     1.262     1.180  0.6032  0.5649 -0.5631
 

 ---------------------------------------------------------------------------------

 NROrb=    305 NOA=    36 NOB=    35 NVA=   269 NVB=   270

 **** Warning!!: The largest alpha MO coefficient is  0.63007584D+02


 **** Warning!!: The largest beta MO coefficient is  0.59805537D+02

    12 initial guesses have been made.
 Iteration     1 Dimension    12 NMult     0 NNew     12
 Iteration     2 Dimension    24 NMult    12 NNew     12
 New state      1 was old state      2
 Iteration     3 Dimension    27 NMult    24 NNew      3
 Iteration     4 Dimension    30 NMult    27 NNew      3
 Iteration     5 Dimension    33 NMult    30 NNew      3
 New state      1 was old state      2
 Iteration     6 Dimension    36 NMult    33 NNew      3
 Iteration     7 Dimension    39 NMult    36 NNew      3
 Iteration     8 Dimension    42 NMult    39 NNew      3
 Iteration     9 Dimension    45 NMult    42 NNew      3
 Iteration    10 Dimension    48 NMult    45 NNew      3
 ***********************************************************************
 Stability analysis using <AA,BB:AA,BB> singles matrix:
 ***********************************************************************
 Ground to excited state transition densities written to RWF  633

 Eigenvectors of the stability matrix:
 
 Excited state symmetry could not be determined.
 Eigenvector   1:  3.476-?Sym  Eigenvalue= 0.0125726  <S**2>=2.770
     35A -> 52A       -0.28658
     35A -> 53A        0.22107
     35A -> 54A       -0.12659
     35A -> 55A        0.23276
     35A -> 68A       -0.11695
     35A -> 69A        0.15117
     35A -> 71A        0.15411
     35A -> 73A        0.16472
     35A -> 74A        0.24119
     34B -> 51B       -0.19049
     34B -> 52B        0.20584
     34B -> 53B       -0.25303
     34B -> 55B       -0.19078
     34B -> 68B        0.12048
     34B -> 69B       -0.14164
     34B -> 71B       -0.13675
     34B -> 73B       -0.15636
     34B -> 74B       -0.22127
 The wavefunction is stable under the perturbations considered.
 The wavefunction is already stable.

 **********************************************************************

            Population analysis using the SCF Density.

 **********************************************************************

 Alpha  occ. eigenvalues --  -91.94644 -11.25503 -11.25441 -11.23821 -11.23565
 Alpha  occ. eigenvalues --  -11.23392 -11.23006 -11.22454  -8.94834  -6.62981
 Alpha  occ. eigenvalues --   -6.62837  -6.62814  -1.12602  -1.07146  -1.01408
 Alpha  occ. eigenvalues --   -0.97456  -0.90736  -0.85509  -0.76067  -0.72772
 Alpha  occ. eigenvalues --   -0.64076  -0.63116  -0.61993  -0.60027  -0.58265
 Alpha  occ. eigenvalues --   -0.56668  -0.55803  -0.55321  -0.52620  -0.49528
 Alpha  occ. eigenvalues --   -0.48545  -0.47463  -0.43853  -0.38659  -0.36267
 Alpha  occ. eigenvalues --   -0.28168
 Alpha virt. eigenvalues --    0.03555   0.04016   0.04395   0.04813   0.05863
 Alpha virt. eigenvalues --    0.06064   0.06415   0.06769   0.07227   0.08316
 Alpha virt. eigenvalues --    0.08807   0.09464   0.09822   0.11249   0.12204
 Alpha virt. eigenvalues --    0.12899   0.13708   0.14602   0.15042   0.15208
 Alpha virt. eigenvalues --    0.15654   0.16260   0.16332   0.17192   0.17262
 Alpha virt. eigenvalues --    0.17395   0.17793   0.17954   0.18366   0.18768
 Alpha virt. eigenvalues --    0.19016   0.20198   0.20405   0.20842   0.21401
 Alpha virt. eigenvalues --    0.21853   0.22068   0.23205   0.23920   0.24877
 Alpha virt. eigenvalues --    0.25304   0.25699   0.26863   0.26963   0.28653
 Alpha virt. eigenvalues --    0.29925   0.30446   0.30858   0.32255   0.33408
 Alpha virt. eigenvalues --    0.33765   0.35333   0.35657   0.36286   0.37566
 Alpha virt. eigenvalues --    0.38408   0.39139   0.39457   0.41014   0.41263
 Alpha virt. eigenvalues --    0.41526   0.42048   0.42625   0.43028   0.43801
 Alpha virt. eigenvalues --    0.44662   0.44960   0.45395   0.46412   0.46735
 Alpha virt. eigenvalues --    0.47484   0.48427   0.48937   0.49441   0.50097
 Alpha virt. eigenvalues --    0.50412   0.50999   0.52248   0.52400   0.53701
 Alpha virt. eigenvalues --    0.53842   0.54043   0.55022   0.56073   0.56828
 Alpha virt. eigenvalues --    0.57098   0.58869   0.58916   0.59865   0.60167
 Alpha virt. eigenvalues --    0.60472   0.61135   0.62290   0.62419   0.63081
 Alpha virt. eigenvalues --    0.64897   0.65262   0.66200   0.66649   0.67379
 Alpha virt. eigenvalues --    0.68192   0.68878   0.69903   0.70720   0.71047
 Alpha virt. eigenvalues --    0.71667   0.72134   0.72854   0.73070   0.73502
 Alpha virt. eigenvalues --    0.74431   0.75429   0.76336   0.76997   0.77723
 Alpha virt. eigenvalues --    0.78239   0.79303   0.79967   0.80222   0.81957
 Alpha virt. eigenvalues --    0.82631   0.83277   0.84032   0.84755   0.85339
 Alpha virt. eigenvalues --    0.85493   0.86419   0.86789   0.88590   0.89890
 Alpha virt. eigenvalues --    0.90233   0.91355   0.92176   0.92690   0.93342
 Alpha virt. eigenvalues --    0.94957   0.95197   0.96937   0.97658   0.98696
 Alpha virt. eigenvalues --    1.00206   1.01334   1.03522   1.04837   1.06386
 Alpha virt. eigenvalues --    1.08911   1.10620   1.13760   1.14002   1.14533
 Alpha virt. eigenvalues --    1.15840   1.17408   1.19356   1.21003   1.22771
 Alpha virt. eigenvalues --    1.24581   1.25778   1.26436   1.27197   1.29294
 Alpha virt. eigenvalues --    1.29468   1.31102   1.32931   1.33520   1.35502
 Alpha virt. eigenvalues --    1.36649   1.38512   1.40135   1.43008   1.44571
 Alpha virt. eigenvalues --    1.45841   1.49440   1.50517   1.53101   1.56146
 Alpha virt. eigenvalues --    1.57400   1.59445   1.60145   1.63277   1.64071
 Alpha virt. eigenvalues --    1.64694   1.66662   1.70065   1.71746   1.73417
 Alpha virt. eigenvalues --    1.74317   1.78137   1.79366   1.79944   1.82918
 Alpha virt. eigenvalues --    1.84800   1.87327   1.87529   1.88184   1.89627
 Alpha virt. eigenvalues --    1.91291   1.93550   1.95478   1.96142   1.97199
 Alpha virt. eigenvalues --    1.97621   1.99161   1.99508   2.02170   2.03763
 Alpha virt. eigenvalues --    2.05276   2.06303   2.07640   2.10532   2.11870
 Alpha virt. eigenvalues --    2.12987   2.14102   2.16274   2.16577   2.19161
 Alpha virt. eigenvalues --    2.20393   2.20906   2.22531   2.23803   2.25198
 Alpha virt. eigenvalues --    2.26350   2.27716   2.29540   2.31640   2.32730
 Alpha virt. eigenvalues --    2.34309   2.36394   2.37212   2.38170   2.40585
 Alpha virt. eigenvalues --    2.41706   2.44787   2.45438   2.47264   2.49882
 Alpha virt. eigenvalues --    2.50635   2.51970   2.55198   2.58035   2.59571
 Alpha virt. eigenvalues --    2.60706   2.61258   2.65138   2.66560   2.69344
 Alpha virt. eigenvalues --    2.71799   2.72489   2.73609   2.77654   2.78722
 Alpha virt. eigenvalues --    2.84011   2.85388   2.87667   2.90692   2.92404
 Alpha virt. eigenvalues --    2.97261   2.98606   3.02383   3.05353   3.06176
 Alpha virt. eigenvalues --    3.07341   3.11808   3.17933   3.19686   3.25844
 Alpha virt. eigenvalues --    3.41512   3.44101   3.57620   3.89070
  Beta  occ. eigenvalues --  -91.94666 -11.25379 -11.23787 -11.23709 -11.23340
  Beta  occ. eigenvalues --  -11.23329 -11.22845 -11.22497  -8.94854  -6.63178
  Beta  occ. eigenvalues --   -6.62976  -6.62603  -1.10212  -1.05991  -1.00868
  Beta  occ. eigenvalues --   -0.96973  -0.89684  -0.85363  -0.75801  -0.69659
  Beta  occ. eigenvalues --   -0.63558  -0.62400  -0.60438  -0.58694  -0.57330
  Beta  occ. eigenvalues --   -0.55905  -0.55317  -0.54537  -0.52003  -0.49044
  Beta  occ. eigenvalues --   -0.47936  -0.46812  -0.42550  -0.36376  -0.34215
  Beta virt. eigenvalues --    0.03531   0.04026   0.04399   0.04808   0.05836
  Beta virt. eigenvalues --    0.06061   0.06418   0.06731   0.07237   0.08314
  Beta virt. eigenvalues --    0.08800   0.09473   0.09770   0.11126   0.11576
  Beta virt. eigenvalues --    0.12615   0.12988   0.14133   0.14795   0.15108
  Beta virt. eigenvalues --    0.15633   0.15862   0.16372   0.16571   0.17222
  Beta virt. eigenvalues --    0.17290   0.17676   0.17948   0.18380   0.18450
  Beta virt. eigenvalues --    0.18809   0.19152   0.20241   0.20533   0.20888
  Beta virt. eigenvalues --    0.21471   0.21885   0.22114   0.23299   0.23981
  Beta virt. eigenvalues --    0.25321   0.25565   0.26034   0.26930   0.27796
  Beta virt. eigenvalues --    0.28880   0.30324   0.30539   0.31444   0.32691
  Beta virt. eigenvalues --    0.33722   0.34353   0.35585   0.35826   0.36644
  Beta virt. eigenvalues --    0.37909   0.38731   0.39417   0.39880   0.41141
  Beta virt. eigenvalues --    0.41520   0.41659   0.42442   0.43052   0.43218
  Beta virt. eigenvalues --    0.44288   0.45012   0.45364   0.46047   0.46618
  Beta virt. eigenvalues --    0.46931   0.47713   0.48779   0.49184   0.49627
  Beta virt. eigenvalues --    0.50246   0.50679   0.51145   0.52369   0.52788
  Beta virt. eigenvalues --    0.53892   0.54067   0.54544   0.55472   0.56414
  Beta virt. eigenvalues --    0.56975   0.57683   0.59040   0.59607   0.60042
  Beta virt. eigenvalues --    0.60455   0.60678   0.61432   0.62500   0.62714
  Beta virt. eigenvalues --    0.63400   0.65386   0.65874   0.66461   0.66880
  Beta virt. eigenvalues --    0.67654   0.68722   0.69197   0.70149   0.70960
  Beta virt. eigenvalues --    0.71231   0.71825   0.72329   0.72990   0.73352
  Beta virt. eigenvalues --    0.73800   0.74645   0.75663   0.76869   0.77508
  Beta virt. eigenvalues --    0.78045   0.78750   0.79763   0.80302   0.80627
  Beta virt. eigenvalues --    0.82235   0.82829   0.83633   0.84637   0.85057
  Beta virt. eigenvalues --    0.85747   0.85813   0.86663   0.86999   0.89208
  Beta virt. eigenvalues --    0.90248   0.90354   0.91618   0.92528   0.92834
  Beta virt. eigenvalues --    0.93683   0.95373   0.95685   0.97420   0.98743
  Beta virt. eigenvalues --    0.99054   1.00430   1.01526   1.03680   1.04983
  Beta virt. eigenvalues --    1.06894   1.09429   1.11037   1.13971   1.14411
  Beta virt. eigenvalues --    1.15323   1.16447   1.17984   1.19757   1.21377
  Beta virt. eigenvalues --    1.23052   1.24720   1.26328   1.26902   1.27484
  Beta virt. eigenvalues --    1.29530   1.29767   1.32046   1.32934   1.33890
  Beta virt. eigenvalues --    1.36302   1.37036   1.38801   1.40452   1.43858
  Beta virt. eigenvalues --    1.44765   1.46207   1.49740   1.50806   1.53485
  Beta virt. eigenvalues --    1.56534   1.58080   1.60065   1.60632   1.63596
  Beta virt. eigenvalues --    1.64332   1.64837   1.66977   1.70200   1.72271
  Beta virt. eigenvalues --    1.73795   1.74803   1.78562   1.79566   1.80106
  Beta virt. eigenvalues --    1.83049   1.85242   1.87598   1.88190   1.88910
  Beta virt. eigenvalues --    1.90126   1.91604   1.94671   1.95764   1.96373
  Beta virt. eigenvalues --    1.98025   1.98167   1.99358   2.00459   2.02959
  Beta virt. eigenvalues --    2.04757   2.06160   2.07199   2.08452   2.10741
  Beta virt. eigenvalues --    2.12273   2.13167   2.14591   2.16723   2.16868
  Beta virt. eigenvalues --    2.19495   2.20874   2.21224   2.22942   2.24166
  Beta virt. eigenvalues --    2.25345   2.26728   2.27856   2.29912   2.31917
  Beta virt. eigenvalues --    2.32908   2.34571   2.36714   2.37389   2.38423
  Beta virt. eigenvalues --    2.40781   2.42076   2.45475   2.45847   2.47834
  Beta virt. eigenvalues --    2.50053   2.51036   2.52294   2.55382   2.58257
  Beta virt. eigenvalues --    2.59876   2.60826   2.61411   2.65387   2.66725
  Beta virt. eigenvalues --    2.69467   2.72263   2.72671   2.73964   2.77946
  Beta virt. eigenvalues --    2.78895   2.84290   2.85508   2.87737   2.90860
  Beta virt. eigenvalues --    2.92634   2.97431   2.98833   3.02520   3.05474
  Beta virt. eigenvalues --    3.06241   3.07538   3.12091   3.18158   3.19790
  Beta virt. eigenvalues --    3.25962   3.41807   3.44352   3.58726   3.89191
          Condensed to atoms (all electrons):
          Atomic-Atomic Spin Densities.
 Mulliken charges and spin densities:
               1          2
     1  C   -0.075377   1.438762
     2  C    0.310904  -0.257001
     3  C    0.219669   0.064317
     4  H   -0.198031   0.001297
     5  H   -0.078394   0.014051
     6  C    0.990905   0.009308
     7  H   -0.017694   0.000573
     8  H   -0.230226  -0.002360
     9  S    0.102715  -0.069947
    10  C    0.193598   0.028553
    11  H   -0.159220  -0.004171
    12  H   -0.115856   0.001269
    13  H   -0.061551  -0.001975
    14  C    0.187435  -0.275640
    15  H   -0.066310   0.019404
    16  H    0.064460   0.041891
    17  H   -0.202831   0.008106
    18  C    0.359087  -0.020504
    19  H   -0.359356   0.002060
    20  H   -0.358145   0.002649
    21  H   -0.505782  -0.000644
 Sum of Mulliken charges =  -0.00000   1.00000
 Mulliken charges and spin densities with hydrogens summed into heavy atoms:
               1          2
     1  C   -0.075377   1.438762
     2  C    0.034479  -0.241654
     3  C   -0.028250   0.062531
     6  C    0.485123   0.008664
     9  S    0.102715  -0.069947
    10  C   -0.143030   0.023677
    14  C   -0.017245  -0.206239
    18  C   -0.358414  -0.015794
 Electronic spatial extent (au):  <R**2>=           1337.7540
 Charge=             -0.0000 electrons
 Dipole moment (field-independent basis, Debye):
    X=              0.5344    Y=              0.1035    Z=              1.4265  Tot=              1.5268
                          Isotropic Fermi Contact Couplings
        Atom                 a.u.       MegaHertz       Gauss      10(-4) cm-1
     1  C(13)              0.25299     284.41454     101.48618      94.87048
     2  C(13)             -0.05595     -62.90180     -22.44493     -20.98178
     3  C(13)              0.05315      59.75609      21.32246      19.93249
     4  H(1)               0.00343      15.31419       5.46448       5.10826
     5  H(1)               0.01001      44.75634      15.97017      14.92911
     6  C(13)              0.00093       1.04473       0.37279       0.34849
     7  H(1)               0.00065       2.89754       1.03391       0.96651
     8  H(1)              -0.00141      -6.31997      -2.25512      -2.10812
     9  S(33)              0.01964       6.74746       2.40766       2.25071
    10  C(13)              0.02534      28.48365      10.16367       9.50112
    11  H(1)              -0.00065      -2.90002      -1.03480      -0.96734
    12  H(1)               0.00072       3.23076       1.15281       1.07766
    13  H(1)              -0.00002      -0.09235      -0.03295      -0.03081
    14  C(13)             -0.06109     -68.67647     -24.50547     -22.90800
    15  H(1)               0.00996      44.52421      15.88735      14.85168
    16  H(1)               0.02264     101.19249      36.10800      33.75418
    17  H(1)               0.00558      24.93500       8.89743       8.31742
    18  C(13)             -0.00327      -3.67904      -1.31277      -1.22720
    19  H(1)               0.00044       1.94663       0.69460       0.64932
    20  H(1)               0.00044       1.96372       0.70070       0.65503
    21  H(1)              -0.00041      -1.81791      -0.64867      -0.60639
 --------------------------------------------------------
       Center         ----  Spin Dipole Couplings  ----
                      3XX-RR        3YY-RR        3ZZ-RR
 --------------------------------------------------------
     1   Atom       -0.076785      0.526132     -0.449346
     2   Atom       -0.001618     -0.000261      0.001879
     3   Atom        0.047084     -0.020036     -0.027047
     4   Atom        0.001867     -0.005529      0.003662
     5   Atom        0.008570     -0.002697     -0.005873
     6   Atom        0.024007     -0.011074     -0.012933
     7   Atom        0.007669     -0.003806     -0.003862
     8   Atom        0.007443     -0.008442      0.001000
     9   Atom        0.234199     -0.121072     -0.113127
    10   Atom       -0.019497      0.021517     -0.002020
    11   Atom       -0.000205      0.003634     -0.003429
    12   Atom       -0.002302      0.007313     -0.005011
    13   Atom        0.000480     -0.001549      0.001069
    14   Atom        0.000966     -0.001714      0.000748
    15   Atom       -0.007477     -0.005092      0.012569
    16   Atom       -0.005993     -0.009231      0.015224
    17   Atom       -0.006857     -0.006231      0.013088
    18   Atom       -0.018201      0.011640      0.006561
    19   Atom       -0.000133      0.000666     -0.000533
    20   Atom        0.000928      0.001379     -0.002307
    21   Atom        0.001058     -0.000766     -0.000292
 --------------------------------------------------------
                        XY            XZ            YZ
 --------------------------------------------------------
     1   Atom        0.702034      0.218487      0.318024
     2   Atom       -0.000582      0.000861     -0.001833
     3   Atom        0.034588      0.022251      0.009813
     4   Atom       -0.001199     -0.013854      0.004660
     5   Atom       -0.012270     -0.004448      0.005907
     6   Atom        0.006787     -0.006911     -0.001484
     7   Atom       -0.001804     -0.003784      0.002024
     8   Atom       -0.000124      0.006952     -0.000509
     9   Atom        0.289526     -0.249970     -0.005008
    10   Atom       -0.017535     -0.010467      0.028586
    11   Atom       -0.005732      0.001354      0.000045
    12   Atom       -0.002355      0.000380      0.004128
    13   Atom       -0.004577     -0.005810      0.003036
    14   Atom       -0.002430     -0.000062     -0.000887
    15   Atom        0.000002     -0.009550     -0.002547
    16   Atom       -0.002134     -0.001119     -0.000116
    17   Atom        0.001868      0.003458     -0.008920
    18   Atom        0.002572      0.003907      0.001885
    19   Atom        0.002253      0.000162      0.001012
    20   Atom        0.003052      0.001536      0.002680
    21   Atom        0.003217     -0.002740     -0.003973
 --------------------------------------------------------


 ---------------------------------------------------------------------------------
              Anisotropic Spin Dipole Couplings in Principal Axis System
 ---------------------------------------------------------------------------------

       Atom             a.u.   MegaHertz   Gauss  10(-4) cm-1        Axes

              Baa    -0.5509   -73.920   -26.376   -24.657 -0.5580  0.1213  0.8209
     1 C(13)  Bbb    -0.5348   -71.764   -25.607   -23.938  0.6347 -0.5748  0.5164
              Bcc     1.0856   145.684    51.984    48.595  0.5345  0.8092  0.2437
 
              Baa    -0.0019    -0.249    -0.089    -0.083  0.9683  0.2219 -0.1145
     2 C(13)  Bbb    -0.0013    -0.175    -0.062    -0.058 -0.1316  0.8432  0.5213
              Bcc     0.0032     0.424     0.151     0.141  0.2122 -0.4897  0.8457
 
              Baa    -0.0348    -4.664    -1.664    -1.556 -0.3264  0.9178 -0.2263
     3 C(13)  Bbb    -0.0332    -4.453    -1.589    -1.485 -0.3132  0.1209  0.9420
              Bcc     0.0679     9.117     3.253     3.041  0.8919  0.3783  0.2480
 
              Baa    -0.0120    -6.418    -2.290    -2.141  0.6412 -0.3655  0.6747
     4 H(1)   Bbb    -0.0054    -2.882    -1.028    -0.961  0.3888  0.9128  0.1250
              Bcc     0.0174     9.300     3.318     3.102 -0.6616  0.1822  0.7274
 
              Baa    -0.0120    -6.425    -2.293    -2.143  0.3635  0.7897 -0.4942
     5 H(1)   Bbb    -0.0064    -3.411    -1.217    -1.138  0.4849  0.2926  0.8242
              Bcc     0.0184     9.836     3.510     3.281  0.7955 -0.5392 -0.2766
 
              Baa    -0.0142    -1.908    -0.681    -0.636  0.1541  0.1298  0.9795
     6 C(13)  Bbb    -0.0123    -1.654    -0.590    -0.552 -0.2007  0.9748 -0.0976
              Bcc     0.0265     3.561     1.271     1.188  0.9675  0.1815 -0.1762
 
              Baa    -0.0061    -3.234    -1.154    -1.079  0.1391 -0.5976  0.7896
     7 H(1)   Bbb    -0.0032    -1.682    -0.600    -0.561  0.3178  0.7821  0.5360
              Bcc     0.0092     4.916     1.754     1.640  0.9379 -0.1764 -0.2987
 
              Baa    -0.0085    -4.522    -1.614    -1.508 -0.0230  0.9972  0.0704
     8 H(1)   Bbb    -0.0034    -1.822    -0.650    -0.608 -0.5384 -0.0717  0.8396
              Bcc     0.0119     6.344     2.264     2.116  0.8424 -0.0186  0.5386
 
              Baa    -0.3593   -14.732    -5.257    -4.914 -0.5416  0.6469 -0.5368
     9 S(33)  Bbb    -0.1214    -4.978    -1.776    -1.661  0.0124  0.6447  0.7644
              Bcc     0.4807    19.710     7.033     6.575  0.8405  0.4073 -0.3572
 
              Baa    -0.0260    -3.485    -1.244    -1.163  0.9356  0.3528 -0.0122
    10 C(13)  Bbb    -0.0210    -2.812    -1.003    -0.938  0.1961 -0.4906  0.8491
              Bcc     0.0469     6.297     2.247     2.100 -0.2936  0.7968  0.5281
 
              Baa    -0.0051    -2.724    -0.972    -0.909  0.6874  0.4537 -0.5671
    11 H(1)   Bbb    -0.0027    -1.443    -0.515    -0.481  0.4265  0.3799  0.8208
              Bcc     0.0078     4.167     1.487     1.390 -0.5879  0.8061 -0.0676
 
              Baa    -0.0065    -3.492    -1.246    -1.165 -0.2571 -0.3158  0.9134
    12 H(1)   Bbb    -0.0024    -1.298    -0.463    -0.433  0.9480  0.1013  0.3018
              Bcc     0.0090     4.790     1.709     1.598 -0.1878  0.9434  0.2733
 
              Baa    -0.0058    -3.101    -1.106    -1.034  0.7524  0.5183  0.4066
    13 H(1)   Bbb    -0.0035    -1.844    -0.658    -0.615 -0.1405  0.7293 -0.6697
              Bcc     0.0093     4.945     1.764     1.649  0.6436 -0.4467 -0.6215
 
              Baa    -0.0033    -0.444    -0.158    -0.148  0.4872  0.8515  0.1938
    14 C(13)  Bbb     0.0008     0.109     0.039     0.036 -0.3022 -0.0439  0.9522
              Bcc     0.0025     0.335     0.120     0.112  0.8193 -0.5225  0.2360
 
              Baa    -0.0114    -6.105    -2.179    -2.037  0.9128  0.1518  0.3791
    15 H(1)   Bbb    -0.0052    -2.777    -0.991    -0.926 -0.1814  0.9825  0.0433
              Bcc     0.0166     8.883     3.170     2.963 -0.3659 -0.1083  0.9243
 
              Baa    -0.0103    -5.498    -1.962    -1.834  0.4484  0.8935  0.0237
    16 H(1)   Bbb    -0.0050    -2.656    -0.948    -0.886  0.8923 -0.4490  0.0469
              Bcc     0.0153     8.154     2.910     2.720 -0.0525 -0.0002  0.9986
 
              Baa    -0.0117    -6.231    -2.223    -2.078 -0.5461  0.7609  0.3503
    17 H(1)   Bbb    -0.0052    -2.761    -0.985    -0.921  0.8307  0.5458  0.1093
              Bcc     0.0169     8.992     3.208     2.999  0.1080 -0.3507  0.9302
 
              Baa    -0.0190    -2.546    -0.908    -0.849  0.9866 -0.0739 -0.1455
    18 C(13)  Bbb     0.0063     0.839     0.299     0.280  0.1079 -0.3739  0.9212
              Bcc     0.0127     1.706     0.609     0.569  0.1225  0.9245  0.3609
 
              Baa    -0.0022    -1.176    -0.420    -0.392  0.6833 -0.6520  0.3286
    19 H(1)   Bbb    -0.0006    -0.313    -0.112    -0.104 -0.4186  0.0190  0.9080
              Bcc     0.0028     1.489     0.531     0.497  0.5983  0.7580  0.2599
 
              Baa    -0.0037    -1.984    -0.708    -0.662  0.0215 -0.4754  0.8795
    20 H(1)   Bbb    -0.0017    -0.897    -0.320    -0.299  0.7943 -0.5261 -0.3038
              Bcc     0.0054     2.881     1.028     0.961  0.6071  0.7051  0.3663
 
              Baa    -0.0046    -2.439    -0.870    -0.814 -0.1333  0.7674  0.6271
    21 H(1)   Bbb    -0.0021    -1.098    -0.392    -0.366  0.7864 -0.3032  0.5382
              Bcc     0.0066     3.537     1.262     1.180  0.6032  0.5649 -0.5631
 

 ---------------------------------------------------------------------------------

 Unable to Open any file for archive entry.
 1\1\GINC-SE404\Stability\UHF\Aug-CC-pVDZ\C7H13S1\OHZDE\09-Apr-2025\0\\
 #t hf aug-cc-pvdz symm=none int=(grid=ultrafine) guess=(read,tcheck) s
 table=opt\\title\\0,2\C,0,-0.496463,-0.954416,0.059733\C,0,0.745777,-1
 .436653,-0.616916\C,0,2.00947,-0.677536,-0.151529\H,0,0.647801,-1.3342
 03,-1.7009\H,0,0.893652,-2.503021,-0.409898\C,0,1.932314,0.794558,-0.4
 13261\H,0,2.874148,-1.097539,-0.677542\H,0,2.172223,-0.851898,0.915854
 \S,0,-1.569833,0.07472,-0.842651\C,0,-1.999061,1.383377,0.343564\H,0,-
 2.66614,2.066865,-0.180453\H,0,-1.101831,1.918116,0.653494\H,0,-2.5193
 33,0.982949,1.211942\C,0,-0.689235,-1.179533,1.520718\H,0,-1.743021,-1
 .320077,1.775099\H,0,-0.318069,-0.343559,2.129809\H,0,-0.145561,-2.072
 49,1.840931\C,0,2.018108,1.736345,0.515421\H,0,1.955806,2.788774,0.265
 601\H,0,2.162808,1.486644,1.562\H,0,1.779379,1.087069,-1.449904\\Versi
 on=ES64L-G16RevC.01\HF=-670.1437838\S2=0.77144\S2-1=0.\S2A=0.750381\RM
 SD=5.603e-09\Dipole=0.2102334,0.0407367,0.5612245\Quadrupole=-2.244187
 8,1.9535761,0.2906117,-3.033944,-2.2418296,-0.0197826\PG=Unknown\\@
 The archive entry for this job was punched.


 IN THE FIGHT BETWEEN YOU AND THE WORLD, BACK THE WORLD

                                        -- FRANZ KAFKA
 Job cpu time:       0 days  0 hours 44 minutes  2.0 seconds.
 Elapsed time:       0 days  0 hours  2 minutes 54.5 seconds.
 File lengths (MBytes):  RWF=    416 Int=      0 D2E=      0 Chk=     15 Scr=      1
 Normal termination of Gaussian 16 at Wed Apr  9 01:05:57 2025.
 Initial command:
 /arc/software/Gaussian/g16.c01/l1.exe "/tmp/slurm/4856109/Gau-1915127.inp" -scrdir="/tmp/slurm/4856109/"
 Entering Link 1 = /arc/software/Gaussian/g16.c01/l1.exe PID=   1915394.
  
 Copyright (c) 1988-2019, Gaussian, Inc.  All Rights Reserved.
  
 This is part of the Gaussian(R) 16 program.  It is based on
 the Gaussian(R) 09 system (copyright 2009, Gaussian, Inc.),
 the Gaussian(R) 03 system (copyright 2003, Gaussian, Inc.),
 the Gaussian(R) 98 system (copyright 1998, Gaussian, Inc.),
 the Gaussian(R) 94 system (copyright 1995, Gaussian, Inc.),
 the Gaussian 92(TM) system (copyright 1992, Gaussian, Inc.),
 the Gaussian 90(TM) system (copyright 1990, Gaussian, Inc.),
 the Gaussian 88(TM) system (copyright 1988, Gaussian, Inc.),
 the Gaussian 86(TM) system (copyright 1986, Carnegie Mellon
 University), and the Gaussian 82(TM) system (copyright 1983,
 Carnegie Mellon University). Gaussian is a federally registered
 trademark of Gaussian, Inc.
  
 This software contains proprietary and confidential information,
 including trade secrets, belonging to Gaussian, Inc.
  
 This software is provided under written license and may be
 used, copied, transmitted, or stored only in accord with that
 written license.
  
 The following legend is applicable only to US Government
 contracts under FAR:
  
                    RESTRICTED RIGHTS LEGEND
  
 Use, reproduction and disclosure by the US Government is
 subject to restrictions as set forth in subparagraphs (a)
 and (c) of the Commercial Computer Software - Restricted
 Rights clause in FAR 52.227-19.
  
 Gaussian, Inc.
 340 Quinnipiac St., Bldg. 40, Wallingford CT 06492
  
  
 ---------------------------------------------------------------
 Warning -- This program may not be used in any manner that
 competes with the business of Gaussian, Inc. or will provide
 assistance to any competitor of Gaussian, Inc.  The licensee
 of this program is prohibited from giving any competitor of
 Gaussian, Inc. access to this program.  By using this program,
 the user acknowledges that Gaussian, Inc. is engaged in the
 business of creating and licensing software in the field of
 computational chemistry and represents and warrants to the
 licensee that it is not a competitor of Gaussian, Inc. and that
 it will not use this program in any manner prohibited above.
 ---------------------------------------------------------------
  

 Cite this work as:
 Gaussian 16, Revision C.01,
 M. J. Frisch, G. W. Trucks, H. B. Schlegel, G. E. Scuseria, 
 M. A. Robb, J. R. Cheeseman, G. Scalmani, V. Barone, 
 G. A. Petersson, H. Nakatsuji, X. Li, M. Caricato, A. V. Marenich, 
 J. Bloino, B. G. Janesko, R. Gomperts, B. Mennucci, H. P. Hratchian, 
 J. V. Ortiz, A. F. Izmaylov, J. L. Sonnenberg, D. Williams-Young, 
 F. Ding, F. Lipparini, F. Egidi, J. Goings, B. Peng, A. Petrone, 
 T. Henderson, D. Ranasinghe, V. G. Zakrzewski, J. Gao, N. Rega, 
 G. Zheng, W. Liang, M. Hada, M. Ehara, K. Toyota, R. Fukuda, 
 J. Hasegawa, M. Ishida, T. Nakajima, Y. Honda, O. Kitao, H. Nakai, 
 T. Vreven, K. Throssell, J. A. Montgomery, Jr., J. E. Peralta, 
 F. Ogliaro, M. J. Bearpark, J. J. Heyd, E. N. Brothers, K. N. Kudin, 
 V. N. Staroverov, T. A. Keith, R. Kobayashi, J. Normand, 
 K. Raghavachari, A. P. Rendell, J. C. Burant, S. S. Iyengar, 
 J. Tomasi, M. Cossi, J. M. Millam, M. Klene, C. Adamo, R. Cammi, 
 J. W. Ochterski, R. L. Martin, K. Morokuma, O. Farkas, 
 J. B. Foresman, and D. J. Fox, Gaussian, Inc., Wallingford CT, 2019.
 
 ******************************************
 Gaussian 16:  ES64L-G16RevC.01  3-Jul-2019
                 9-Apr-2025 
 ******************************************
 %nprocs=16
 Will use up to   16 processors via shared memory.
 %mem=30GB
 %chk=BH10_22_forward_mol2.chk
 ----------------------------------------------------------------------
 #t hf aug-cc-pvdz iop(5/13=1,5/36=2,99/5=2) pseudo=read geom=check gue
 ss=(read,tcheck) scf=(maxcycle=1)
 ----------------------------------------------------------------------
 -----
 title
 -----
 Structure from the checkpoint file:  "BH10_22_forward_mol2.chk"
 Charge =  0 Multiplicity = 2
 Z-Matrix found in chk file.
 C,0,-0.496463,-0.954416,0.059733
 C,0,0.745777,-1.436653,-0.616916
 C,0,2.00947,-0.677536,-0.151529
 H,0,0.647801,-1.334203,-1.7009
 H,0,0.893652,-2.503021,-0.409898
 C,0,1.932314,0.794558,-0.413261
 H,0,2.874148,-1.097539,-0.677542
 H,0,2.172223,-0.851898,0.915854
 S,0,-1.569833,0.07472,-0.842651
 C,0,-1.999061,1.383377,0.343564
 H,0,-2.66614,2.066865,-0.180453
 H,0,-1.101831,1.918116,0.653494
 H,0,-2.519333,0.982949,1.211942
 C,0,-0.689235,-1.179533,1.520718
 H,0,-1.743021,-1.320077,1.775099
 H,0,-0.318069,-0.343559,2.129809
 H,0,-0.145561,-2.07249,1.840931
 C,0,2.018108,1.736345,0.515421
 H,0,1.955806,2.788774,0.265601
 H,0,2.162808,1.486644,1.562
 H,0,1.779379,1.087069,-1.449904
 Recover connectivity data from disk.
                    Distance matrix (angstroms):
                    1          2          3          4          5
     1  C    0.000000
     2  C    1.494512   0.000000
     3  C    2.530019   1.545886   0.000000
     4  H    2.133871   1.093214   2.164695   0.000000
     5  H    2.133343   1.096296   2.155041   1.758768   0.000000
     6  C    3.030114   2.535281   1.497170   2.799931   3.457290
     7  H    3.453270   2.156070   1.095792   2.461685   2.443231
     8  H    2.804521   2.173953   1.093708   3.066575   2.473574
     9  S    1.739408   2.774393   3.722224   2.763975   3.591766
    10  C    2.793499   4.050830   4.534402   4.309403   4.903018
    11  H    3.727375   4.909818   5.421614   4.986103   5.797294
    12  H    2.995073   4.035105   4.131061   4.379722   4.965804
    13  H    3.028691   4.456472   5.012616   4.887185   5.141091
    14  C    1.490743   2.587441   3.214253   3.491477   2.825673
    15  H    2.151766   3.453902   4.266842   4.218862   3.622929
    16  H    2.165684   3.141834   3.276199   4.072912   3.547063
    17  H    2.132109   2.690685   3.249608   3.703925   2.516257
    18  C    3.710918   3.601240   2.504340   4.027168   4.482504
    19  H    4.479674   4.482995   3.491731   4.751520   5.439445
    20  H    3.909898   3.911690   2.764664   4.571536   4.627804
    21  H    3.409710   2.851557   2.202850   2.684404   3.841207
                    6          7          8          9         10
     6  C    0.000000
     7  H    2.130006   0.000000
     8  H    2.129535   1.758394   0.000000
     9  S    3.601052   4.598958   4.237209   0.000000
    10  C    4.046628   5.562892   4.766926   1.817670   0.000000
    11  H    4.776897   6.399636   5.755938   2.368341   1.089378
    12  H    3.406814   5.164711   4.296655   2.419832   1.089506
    13  H    4.742777   6.081794   5.046289   2.438808   1.088626
    14  C    3.809177   4.187692   2.942983   2.816756   3.109637
    15  H    4.771655   5.232898   4.035670   2.971206   3.069774
    16  H    3.581444   4.317401   2.816673   3.252290   2.999786
    17  H    4.197489   4.051158   2.778081   3.720306   4.197688
    18  C    1.325433   3.191687   2.623566   4.180751   4.036306
    19  H    2.106728   4.103206   3.704613   4.585242   4.197879
    20  H    2.105651   3.492786   2.426185   4.659236   4.337788
    21  H    1.087925   2.562728   3.083947   3.551173   4.192963
                   11         12         13         14         15
    11  H    0.000000
    12  H    1.778948   0.000000
    13  H    1.770647   1.787656   0.000000
    14  C    4.164281   3.243107   2.849724   0.000000
    15  H    4.018421   3.486404   2.494741   1.093127   0.000000
    16  H    4.081776   2.812288   2.729041   1.098912   1.763489
    17  H    5.251054   4.271931   3.919965   1.093385   1.767014
    18  C    4.747174   3.128278   4.652001   4.103983   5.007454
    19  H    4.699202   3.202757   4.917666   4.931432   5.730843
    20  H    5.166385   3.416053   4.722149   3.904402   4.814415
    21  H    4.725902   3.662826   5.057192   4.478408   5.348112
                   16         17         18         19         20
    16  H    0.000000
    17  H    1.761366   0.000000
    18  C    3.519939   4.576643   0.000000
    19  H    4.296195   5.525332   1.083466   0.000000
    20  H    3.134773   4.251330   1.085641   1.849065   0.000000
    21  H    4.388659   4.951545   2.083519   2.422784   3.062392
                   21
    21  H    0.000000
 Framework group  C1[X(C7H13S)]
 Deg. of freedom    57
                         Standard orientation:                         
 ---------------------------------------------------------------------
 Center     Atomic      Atomic             Coordinates (Angstroms)
 Number     Number       Type             X           Y           Z
 ---------------------------------------------------------------------
      1          6           0       -0.496463   -0.954416    0.059733
      2          6           0        0.745777   -1.436653   -0.616916
      3          6           0        2.009470   -0.677536   -0.151529
      4          1           0        0.647801   -1.334203   -1.700900
      5          1           0        0.893652   -2.503021   -0.409898
      6          6           0        1.932314    0.794558   -0.413261
      7          1           0        2.874148   -1.097539   -0.677542
      8          1           0        2.172223   -0.851898    0.915854
      9         16           0       -1.569833    0.074720   -0.842651
     10          6           0       -1.999061    1.383377    0.343564
     11          1           0       -2.666140    2.066865   -0.180453
     12          1           0       -1.101831    1.918116    0.653494
     13          1           0       -2.519333    0.982949    1.211942
     14          6           0       -0.689235   -1.179533    1.520718
     15          1           0       -1.743021   -1.320077    1.775099
     16          1           0       -0.318069   -0.343559    2.129809
     17          1           0       -0.145561   -2.072490    1.840931
     18          6           0        2.018108    1.736345    0.515421
     19          1           0        1.955806    2.788774    0.265601
     20          1           0        2.162808    1.486644    1.562000
     21          1           0        1.779379    1.087069   -1.449904
 ---------------------------------------------------------------------
 Rotational constants (GHZ):           2.0642808           1.2262135           1.0321439
 ======================================================================================================
                                       Pseudopotential Parameters
 ======================================================================================================
  Center     Atomic      Valence      Angular      Power
  Number     Number     Electrons     Momentum     of R      Exponent        Coefficient   SO-Coeffient
 ======================================================================================================
    1          6            6
                                      G and up 
                                                     0        0.0000010       -0.00286759    0.00000000
                                                     2        0.1200000        0.03193960    0.00000000
                                                     2        0.1600000       -0.04027782    0.00000000
                                                     2        0.2600000        0.24782456    0.00000000
                                                     2        0.4000000       -0.62266671    0.00000000
                                                     2        0.7000000        0.35695227    0.00000000
                                      S - G
                                                     0        0.0000010       -0.06602313    0.00000000
                                                     2        0.1200000        1.47277455    0.00000000
                                                     2        0.1600000       -4.06924166    0.00000000
                                                     2        0.3000000        5.02952802    0.00000000
                                                     2        0.7000000       -5.65856978    0.00000000
                                                     2        1.7000000        8.57604414    0.00000000
                                      P - G
                                                     0        0.0000010        0.49434425    0.00000000
                                                     2        0.1200000       -1.37391547    0.00000000
                                                     2        0.1600000        3.65411806    0.00000000
                                                     2        0.2800000       -7.36479843    0.00000000
                                                     2        0.6000000       17.22091285    0.00000000
                                                     2        1.1000000      -23.50107827    0.00000000
                                                     2        3.0000000       16.29464063    0.00000000
                                      D - G
                                                     0        0.0000010       -0.28693103    0.00000000
                                                     2        0.1200000        0.12273044    0.00000000
                                                     2        0.3000000       -0.43416384    0.00000000
                                                     2        0.7000000        2.23358493    0.00000000
                                      F - G
                                                     0        0.0000010        0.07263570    0.00000000
                                                     2        0.1400000       -0.76152861    0.00000000
                                                     2        0.2200000        1.98045593    0.00000000
                                                     2        0.4000000       -2.42426427    0.00000000
                                                     2        0.7000000        0.52335237    0.00000000
    2          6            6
                                      G and up 
                                                     0        0.0000010       -0.00286759    0.00000000
                                                     2        0.1200000        0.03193960    0.00000000
                                                     2        0.1600000       -0.04027782    0.00000000
                                                     2        0.2600000        0.24782456    0.00000000
                                                     2        0.4000000       -0.62266671    0.00000000
                                                     2        0.7000000        0.35695227    0.00000000
                                      S - G
                                                     0        0.0000010       -0.06602313    0.00000000
                                                     2        0.1200000        1.47277455    0.00000000
                                                     2        0.1600000       -4.06924166    0.00000000
                                                     2        0.3000000        5.02952802    0.00000000
                                                     2        0.7000000       -5.65856978    0.00000000
                                                     2        1.7000000        8.57604414    0.00000000
                                      P - G
                                                     0        0.0000010        0.49434425    0.00000000
                                                     2        0.1200000       -1.37391547    0.00000000
                                                     2        0.1600000        3.65411806    0.00000000
                                                     2        0.2800000       -7.36479843    0.00000000
                                                     2        0.6000000       17.22091285    0.00000000
                                                     2        1.1000000      -23.50107827    0.00000000
                                                     2        3.0000000       16.29464063    0.00000000
                                      D - G
                                                     0        0.0000010       -0.28693103    0.00000000
                                                     2        0.1200000        0.12273044    0.00000000
                                                     2        0.3000000       -0.43416384    0.00000000
                                                     2        0.7000000        2.23358493    0.00000000
                                      F - G
                                                     0        0.0000010        0.07263570    0.00000000
                                                     2        0.1400000       -0.76152861    0.00000000
                                                     2        0.2200000        1.98045593    0.00000000
                                                     2        0.4000000       -2.42426427    0.00000000
                                                     2        0.7000000        0.52335237    0.00000000
    3          6            6
                                      G and up 
                                                     0        0.0000010       -0.00286759    0.00000000
                                                     2        0.1200000        0.03193960    0.00000000
                                                     2        0.1600000       -0.04027782    0.00000000
                                                     2        0.2600000        0.24782456    0.00000000
                                                     2        0.4000000       -0.62266671    0.00000000
                                                     2        0.7000000        0.35695227    0.00000000
                                      S - G
                                                     0        0.0000010       -0.06602313    0.00000000
                                                     2        0.1200000        1.47277455    0.00000000
                                                     2        0.1600000       -4.06924166    0.00000000
                                                     2        0.3000000        5.02952802    0.00000000
                                                     2        0.7000000       -5.65856978    0.00000000
                                                     2        1.7000000        8.57604414    0.00000000
                                      P - G
                                                     0        0.0000010        0.49434425    0.00000000
                                                     2        0.1200000       -1.37391547    0.00000000
                                                     2        0.1600000        3.65411806    0.00000000
                                                     2        0.2800000       -7.36479843    0.00000000
                                                     2        0.6000000       17.22091285    0.00000000
                                                     2        1.1000000      -23.50107827    0.00000000
                                                     2        3.0000000       16.29464063    0.00000000
                                      D - G
                                                     0        0.0000010       -0.28693103    0.00000000
                                                     2        0.1200000        0.12273044    0.00000000
                                                     2        0.3000000       -0.43416384    0.00000000
                                                     2        0.7000000        2.23358493    0.00000000
                                      F - G
                                                     0        0.0000010        0.07263570    0.00000000
                                                     2        0.1400000       -0.76152861    0.00000000
                                                     2        0.2200000        1.98045593    0.00000000
                                                     2        0.4000000       -2.42426427    0.00000000
                                                     2        0.7000000        0.52335237    0.00000000
    4          1            1
                                      F and up 
                                                     0        0.0000010        0.00072061    0.00000000
                                                     2        0.1200000        0.03832357    0.00000000
                                                     2        0.1400000       -0.08683256    0.00000000
                                                     2        0.1800000        0.09312970    0.00000000
                                                     2        0.2800000       -0.02532572    0.00000000
                                                     2        0.4000000       -0.09430787    0.00000000
                                                     2        0.7000000        0.42710831    0.00000000
                                                     2        1.2000000       -2.11746981    0.00000000
                                      S - F
                                                     0        0.0000010        0.14449603    0.00000000
                                                     2        0.1200000       -0.56378993    0.00000000
                                                     2        0.1400000        0.63941249    0.00000000
                                                     2        0.2600000       -0.58461015    0.00000000
                                                     2        0.5000000        1.00157293    0.00000000
                                                     2        1.8000000       -0.14135838    0.00000000
                                      P - F
                                                     0        0.0000010       -0.09353646    0.00000000
                                                     2        0.1200000        0.31768975    0.00000000
                                                     2        0.2000000       -0.71747951    0.00000000
                                                     2        0.4000000        0.65752308    0.00000000
                                                     2        1.7000000        2.94052587    0.00000000
                                      D - F
                                                     0        0.0000010       -0.04491202    0.00000000
[...]
 Alpha virt. eigenvalues --    1.33886   1.36868   1.37957   1.38787   1.39791
 Alpha virt. eigenvalues --    1.42806   1.46254   1.46848   1.47961   1.50691
 Alpha virt. eigenvalues --    1.54063   1.55554   1.58947   1.60342   1.60859
 Alpha virt. eigenvalues --    1.64063   1.69462   1.71505   1.74443   1.76234
 Alpha virt. eigenvalues --    1.76619   1.80715   1.80978   1.83377   1.85023
 Alpha virt. eigenvalues --    1.86544   1.87585   1.88495   1.90535   1.92846
 Alpha virt. eigenvalues --    1.96321   1.98112   1.99226   2.00853   2.01875
 Alpha virt. eigenvalues --    2.02964   2.03204   2.05380   2.06139   2.07072
 Alpha virt. eigenvalues --    2.08950   2.09481   2.11980   2.12632   2.14610
 Alpha virt. eigenvalues --    2.16562   2.17067   2.18086   2.18223   2.20188
 Alpha virt. eigenvalues --    2.21933   2.22274   2.23859   2.25933   2.29196
 Alpha virt. eigenvalues --    2.30767   2.32102   2.32438   2.36064   2.38270
 Alpha virt. eigenvalues --    2.39343   2.40604   2.41523   2.46408   2.47915
 Alpha virt. eigenvalues --    2.50270   2.51448   2.52818   2.56428   2.58084
 Alpha virt. eigenvalues --    2.60858   2.62649   2.63686   2.66053   2.69579
 Alpha virt. eigenvalues --    2.70043   2.70866   2.73935   2.75040   2.78345
 Alpha virt. eigenvalues --    2.78695   2.79696   2.80597   2.82238   2.83723
 Alpha virt. eigenvalues --    2.85242   2.88091   2.93546   2.94389   2.96600
 Alpha virt. eigenvalues --    3.01444   3.03297   3.06248   3.08542   3.10823
 Alpha virt. eigenvalues --    3.14411   3.14569   3.21052   3.26379   3.30521
 Alpha virt. eigenvalues --    3.35371   3.44304   3.51681   3.57808   3.60332
 Alpha virt. eigenvalues --    3.69869   3.74273   3.75826   3.76938   3.81830
 Alpha virt. eigenvalues --    3.84281   3.94628   4.00366   4.20262
  Beta  occ. eigenvalues --  -75.67067 -13.14658 -13.09632 -13.02480 -11.44630
  Beta  occ. eigenvalues --  -11.41520 -11.40149 -11.38847 -11.38391 -11.36533
  Beta  occ. eigenvalues --  -11.35029  -8.01333  -1.28598  -1.19929  -1.10496
  Beta  occ. eigenvalues --   -1.04283  -0.96058  -0.90995  -0.78701  -0.72134
  Beta  occ. eigenvalues --   -0.63455  -0.62467  -0.59766  -0.58335  -0.57574
  Beta  occ. eigenvalues --   -0.55289  -0.54583  -0.53735  -0.49694  -0.45905
  Beta  occ. eigenvalues --   -0.45096  -0.41355  -0.34800  -0.33928  -0.24114
  Beta virt. eigenvalues --    0.03313   0.04338   0.05242   0.05435   0.05596
  Beta virt. eigenvalues --    0.05796   0.06185   0.06418   0.06919   0.07973
  Beta virt. eigenvalues --    0.08365   0.09193   0.09775   0.10495   0.11178
  Beta virt. eigenvalues --    0.11744   0.12962   0.13454   0.13934   0.14874
  Beta virt. eigenvalues --    0.14988   0.15669   0.16016   0.16139   0.16960
  Beta virt. eigenvalues --    0.17566   0.17599   0.18092   0.18638   0.18932
  Beta virt. eigenvalues --    0.19460   0.19629   0.20267   0.20550   0.21365
  Beta virt. eigenvalues --    0.21400   0.21789   0.22160   0.23111   0.24393
  Beta virt. eigenvalues --    0.24466   0.25227   0.26039   0.26412   0.27235
  Beta virt. eigenvalues --    0.28422   0.29703   0.30483   0.31333   0.33254
  Beta virt. eigenvalues --    0.33731   0.34582   0.35443   0.36116   0.37765
  Beta virt. eigenvalues --    0.38144   0.38912   0.39674   0.40442   0.41309
  Beta virt. eigenvalues --    0.41723   0.42040   0.43208   0.43925   0.44370
  Beta virt. eigenvalues --    0.44832   0.45652   0.45731   0.46183   0.47014
  Beta virt. eigenvalues --    0.47485   0.48036   0.48929   0.49398   0.49922
  Beta virt. eigenvalues --    0.50926   0.50979   0.51885   0.52173   0.52949
  Beta virt. eigenvalues --    0.53941   0.54331   0.54612   0.55409   0.56059
  Beta virt. eigenvalues --    0.57087   0.57929   0.59080   0.59503   0.60123
  Beta virt. eigenvalues --    0.60307   0.61451   0.62119   0.62808   0.63713
  Beta virt. eigenvalues --    0.64393   0.65353   0.66755   0.67107   0.67967
  Beta virt. eigenvalues --    0.69017   0.69621   0.70372   0.71607   0.72412
  Beta virt. eigenvalues --    0.72638   0.73104   0.74037   0.74501   0.74882
  Beta virt. eigenvalues --    0.75364   0.76258   0.76623   0.78823   0.79720
  Beta virt. eigenvalues --    0.80255   0.80785   0.81878   0.82582   0.83160
  Beta virt. eigenvalues --    0.83414   0.84270   0.85857   0.86220   0.86739
  Beta virt. eigenvalues --    0.87499   0.87824   0.88838   0.89901   0.90965
  Beta virt. eigenvalues --    0.91989   0.92932   0.93442   0.95713   0.96238
  Beta virt. eigenvalues --    0.96725   0.98735   0.98983   0.99996   1.01900
  Beta virt. eigenvalues --    1.01956   1.04567   1.05562   1.08283   1.09220
  Beta virt. eigenvalues --    1.11723   1.17042   1.24068   1.25919   1.26963
  Beta virt. eigenvalues --    1.27851   1.29196   1.29978   1.31667   1.32211
  Beta virt. eigenvalues --    1.33168   1.34242   1.37109   1.38497   1.38956
  Beta virt. eigenvalues --    1.40677   1.43532   1.46399   1.47884   1.48002
  Beta virt. eigenvalues --    1.51324   1.54884   1.55994   1.59386   1.60599
  Beta virt. eigenvalues --    1.61967   1.64428   1.69908   1.71933   1.74906
  Beta virt. eigenvalues --    1.76855   1.77573   1.81402   1.81527   1.83854
  Beta virt. eigenvalues --    1.85455   1.86817   1.87723   1.89124   1.91020
  Beta virt. eigenvalues --    1.93108   1.96750   1.98536   1.99457   2.01085
  Beta virt. eigenvalues --    2.02207   2.03201   2.03405   2.06130   2.06760
  Beta virt. eigenvalues --    2.08154   2.09280   2.09781   2.12242   2.13075
  Beta virt. eigenvalues --    2.15363   2.16945   2.17524   2.18354   2.18804
  Beta virt. eigenvalues --    2.21143   2.22250   2.22651   2.24821   2.26768
  Beta virt. eigenvalues --    2.29690   2.30909   2.32396   2.32998   2.36640
  Beta virt. eigenvalues --    2.39114   2.39817   2.41537   2.42132   2.46631
  Beta virt. eigenvalues --    2.48190   2.50570   2.51671   2.53147   2.56885
  Beta virt. eigenvalues --    2.58326   2.61126   2.62858   2.64101   2.66455
  Beta virt. eigenvalues --    2.69767   2.70326   2.71239   2.74162   2.75271
  Beta virt. eigenvalues --    2.78801   2.79211   2.80026   2.80760   2.82500
  Beta virt. eigenvalues --    2.83889   2.85483   2.88344   2.93841   2.94898
  Beta virt. eigenvalues --    2.96846   3.02026   3.03445   3.06543   3.08836
  Beta virt. eigenvalues --    3.11229   3.14541   3.14611   3.21298   3.26477
  Beta virt. eigenvalues --    3.30738   3.35625   3.44741   3.52265   3.58626
  Beta virt. eigenvalues --    3.60491   3.69956   3.74411   3.76151   3.77206
  Beta virt. eigenvalues --    3.81964   3.84532   3.94750   4.00393   4.20294
          Condensed to atoms (all electrons):
          Atomic-Atomic Spin Densities.
 Mulliken charges and spin densities:
               1          2
     1  C    1.496295   1.651722
     2  C   -3.462226  -0.331740
     3  C   -2.950088   0.079449
     4  H    1.432979  -0.008620
     5  H    1.231311  -0.006850
     6  C   -0.389859  -0.018202
     7  H    1.246063   0.001357
     8  H    1.658926   0.004019
     9  S    0.798597  -0.022063
    10  C   -4.964775   0.027285
    11  H    1.273400  -0.002247
    12  H    1.652290  -0.003988
    13  H    1.540694  -0.002380
    14  C   -5.199567  -0.407265
    15  H    1.364572   0.017826
    16  H    1.340368   0.034501
    17  H    1.250254   0.006086
    18  C   -3.617309  -0.021236
    19  H    1.448662   0.002131
    20  H    1.428814  -0.000731
    21  H    1.420600   0.000947
 Sum of Mulliken charges =   0.00000   1.00000
 Mulliken charges and spin densities with hydrogens summed into heavy atoms:
               1          2
     1  C    1.496295   1.651722
     2  C   -0.797937  -0.347210
     3  C   -0.045099   0.084825
     6  C    1.030741  -0.017255
     9  S    0.798597  -0.022063
    10  C   -0.498391   0.018669
    14  C   -1.244373  -0.348852
    18  C   -0.739833  -0.019835
 Electronic spatial extent (au):  <R**2>=           1367.4030
 Charge=             -0.0000 electrons
 Dipole moment (field-independent basis, Debye):
    X=             -0.0870    Y=              0.0096    Z=             -0.3874  Tot=              0.3972
                          Isotropic Fermi Contact Couplings
        Atom                 a.u.       MegaHertz       Gauss      10(-4) cm-1
     1  C(13)              0.15775     177.34253      63.28022      59.15510
     2  C(13)             -0.03201     -35.98334     -12.83975     -12.00275
     3  C(13)              0.04566      51.32551      18.31422      17.12035
     4  H(1)               0.00266      11.90439       4.24778       3.97088
     5  H(1)               0.00735      32.84295      11.71918      10.95523
     6  C(13)              0.00034       0.38137       0.13608       0.12721
     7  H(1)               0.00047       2.07924       0.74192       0.69356
     8  H(1)              -0.00094      -4.19704      -1.49761      -1.39998
     9  S(33)              0.06381      21.91850       7.82107       7.31123
    10  C(13)              0.02522      28.35677      10.11840       9.45880
    11  H(1)              -0.00060      -2.69295      -0.96091      -0.89827
    12  H(1)               0.00084       3.73955       1.33437       1.24738
    13  H(1)               0.00059       2.61662       0.93367       0.87281
    14  C(13)             -0.03580     -40.24347     -14.35987     -13.42378
    15  H(1)               0.00734      32.82397      11.71241      10.94890
    16  H(1)               0.01737      77.66092      27.71135      25.90489
    17  H(1)               0.00426      19.02321       6.78795       6.34546
    18  C(13)             -0.00061      -0.68657      -0.24499      -0.22902
    19  H(1)               0.00031       1.39179       0.49663       0.46425
    20  H(1)               0.00034       1.50919       0.53851       0.50341
    21  H(1)              -0.00032      -1.43344      -0.51149      -0.47814
 --------------------------------------------------------
       Center         ----  Spin Dipole Couplings  ----
                      3XX-RR        3YY-RR        3ZZ-RR
 --------------------------------------------------------
     1   Atom       -0.050019      0.384397     -0.334378
     2   Atom        0.003233     -0.001116     -0.002117
     3   Atom        0.037672     -0.015226     -0.022446
     4   Atom        0.001272     -0.005072      0.003800
     5   Atom        0.007399     -0.001765     -0.005634
     6   Atom        0.019019     -0.008393     -0.010627
     7   Atom        0.007741     -0.003700     -0.004042
     8   Atom        0.007015     -0.007690      0.000675
     9   Atom        0.039071     -0.014336     -0.024735
    10   Atom       -0.017440      0.016645      0.000795
    11   Atom       -0.000098      0.004221     -0.004123
    12   Atom       -0.002839      0.006812     -0.003973
    13   Atom        0.000082     -0.001906      0.001824
    14   Atom       -0.002791     -0.001566      0.004357
    15   Atom       -0.006031     -0.004721      0.010751
    16   Atom       -0.005559     -0.008011      0.013570
    17   Atom       -0.006010     -0.005154      0.011164
    18   Atom       -0.014081      0.009372      0.004708
    19   Atom       -0.000114      0.000779     -0.000665
    20   Atom        0.000821      0.001109     -0.001930
    21   Atom        0.001469     -0.000861     -0.000608
 --------------------------------------------------------
                        XY            XZ            YZ
 --------------------------------------------------------
     1   Atom        0.519534      0.165724      0.229301
     2   Atom       -0.000815     -0.000635      0.001457
     3   Atom        0.028674      0.017814      0.008229
     4   Atom       -0.001185     -0.011888      0.003941
     5   Atom       -0.010887     -0.003729      0.004971
     6   Atom        0.005916     -0.006099     -0.001340
     7   Atom       -0.001325     -0.003292      0.001647
     8   Atom       -0.000117      0.006664     -0.000138
     9   Atom        0.027602     -0.020539     -0.012616
    10   Atom       -0.015281     -0.011229      0.026057
    11   Atom       -0.005742      0.000780      0.000808
    12   Atom       -0.001930      0.000879      0.004748
    13   Atom       -0.003905     -0.005489      0.003222
    14   Atom        0.000396      0.000550      0.000739
    15   Atom       -0.000092     -0.008344     -0.002508
    16   Atom       -0.001609     -0.000663      0.000521
    17   Atom        0.001212      0.003369     -0.008050
    18   Atom        0.002524      0.003112      0.001814
    19   Atom        0.002091      0.000197      0.000919
    20   Atom        0.002840      0.001504      0.002463
    21   Atom        0.002829     -0.002443     -0.003602
 --------------------------------------------------------


 ---------------------------------------------------------------------------------
              Anisotropic Spin Dipole Couplings in Principal Axis System
 ---------------------------------------------------------------------------------

       Atom             a.u.   MegaHertz   Gauss  10(-4) cm-1        Axes

              Baa    -0.4118   -55.259   -19.718   -18.433 -0.5716  0.1401  0.8085
     1 C(13)  Bbb    -0.3889   -52.189   -18.622   -17.409  0.6182 -0.5744  0.5366
              Bcc     0.8007   107.449    38.340    35.841  0.5396  0.8065  0.2417
 
              Baa    -0.0032    -0.424    -0.151    -0.141  0.0071 -0.5791  0.8152
     2 C(13)  Bbb    -0.0004    -0.050    -0.018    -0.017  0.2753  0.7849  0.5551
              Bcc     0.0035     0.474     0.169     0.158  0.9613 -0.2205 -0.1650
 
              Baa    -0.0280    -3.760    -1.342    -1.254 -0.2253  0.8316 -0.5076
     3 C(13)  Bbb    -0.0272    -3.646    -1.301    -1.216 -0.4017  0.3953  0.8260
              Bcc     0.0552     7.406     2.643     2.470  0.8876  0.3901  0.2450
 
              Baa    -0.0101    -5.392    -1.924    -1.799  0.6543 -0.3646  0.6626
     4 H(1)   Bbb    -0.0051    -2.706    -0.966    -0.903  0.3902  0.9132  0.1172
              Bcc     0.0152     8.099     2.890     2.702 -0.6478  0.1819  0.7397
 
              Baa    -0.0103    -5.498    -1.962    -1.834  0.3608  0.7680 -0.5292
     5 H(1)   Bbb    -0.0059    -3.151    -1.124    -1.051  0.4923  0.3251  0.8074
              Bcc     0.0162     8.649     3.086     2.885  0.7921 -0.5518 -0.2608
 
              Baa    -0.0118    -1.589    -0.567    -0.530  0.1800  0.0723  0.9810
     6 C(13)  Bbb    -0.0096    -1.290    -0.460    -0.430 -0.2091  0.9773 -0.0336
              Bcc     0.0215     2.879     1.027     0.960  0.9612  0.1991 -0.1910
 
              Baa    -0.0058    -3.071    -1.096    -1.024  0.1438 -0.5608  0.8154
     7 H(1)   Bbb    -0.0031    -1.641    -0.586    -0.547  0.2572  0.8168  0.5164
              Bcc     0.0088     4.712     1.681     1.572  0.9556 -0.1355 -0.2617
 
              Baa    -0.0077    -4.104    -1.464    -1.369  0.0008  0.9999  0.0159
     8 H(1)   Bbb    -0.0035    -1.886    -0.673    -0.629 -0.5341 -0.0130  0.8453
              Bcc     0.0112     5.990     2.137     1.998  0.8454 -0.0091  0.5341
 
              Baa    -0.0333    -1.364    -0.487    -0.455  0.0583  0.4931  0.8680
     9 S(33)  Bbb    -0.0244    -1.000    -0.357    -0.334 -0.4722  0.7797 -0.4113
              Bcc     0.0577     2.365     0.844     0.789  0.8796  0.3859 -0.2783
 
              Baa    -0.0235    -3.152    -1.125    -1.051  0.9526  0.2529  0.1691
    10 C(13)  Bbb    -0.0185    -2.484    -0.887    -0.829  0.0139 -0.5914  0.8062
              Bcc     0.0420     5.637     2.011     1.880 -0.3039  0.7657  0.5669
 
              Baa    -0.0052    -2.775    -0.990    -0.926 -0.5676 -0.4072  0.7156
    11 H(1)   Bbb    -0.0030    -1.600    -0.571    -0.534  0.5962  0.3961  0.6983
              Bcc     0.0082     4.375     1.561     1.459 -0.5678  0.8230  0.0180
 
              Baa    -0.0064    -3.427    -1.223    -1.143 -0.4006 -0.3606  0.8423
    12 H(1)   Bbb    -0.0024    -1.268    -0.452    -0.423  0.9071 -0.0265  0.4201
              Bcc     0.0088     4.695     1.675     1.566 -0.1291  0.9324  0.3377
 
              Baa    -0.0052    -2.795    -0.997    -0.932  0.7550  0.5680  0.3277
    13 H(1)   Bbb    -0.0036    -1.920    -0.685    -0.641 -0.2426  0.7062 -0.6651
              Bcc     0.0088     4.715     1.682     1.573 -0.6092  0.4227  0.6710
 
              Baa    -0.0029    -0.392    -0.140    -0.131  0.9655 -0.2561 -0.0469
    14 C(13)  Bbb    -0.0016    -0.211    -0.075    -0.070  0.2473  0.9584 -0.1424
              Bcc     0.0045     0.603     0.215     0.201  0.0814  0.1259  0.9887
 
              Baa    -0.0097    -5.176    -1.847    -1.727  0.8951  0.2137  0.3914
    15 H(1)   Bbb    -0.0048    -2.542    -0.907    -0.848 -0.2429  0.9697  0.0261
              Bcc     0.0145     7.719     2.754     2.575 -0.3739 -0.1185  0.9199
 
              Baa    -0.0088    -4.700    -1.677    -1.568  0.4423  0.8968 -0.0078
    16 H(1)   Bbb    -0.0048    -2.561    -0.914    -0.854  0.8961 -0.4415  0.0449
              Bcc     0.0136     7.261     2.591     2.422 -0.0368  0.0268  0.9990
 
              Baa    -0.0100    -5.341    -1.906    -1.781 -0.5422  0.7531  0.3726
    17 H(1)   Bbb    -0.0048    -2.561    -0.914    -0.854  0.8305  0.5479  0.1010
              Bcc     0.0148     7.902     2.820     2.636  0.1281 -0.3642  0.9225
 
              Baa    -0.0148    -1.984    -0.708    -0.662  0.9846 -0.0917 -0.1487
    18 C(13)  Bbb     0.0043     0.578     0.206     0.193  0.1033 -0.3806  0.9190
              Bcc     0.0105     1.406     0.502     0.469  0.1408  0.9202  0.3653
 
              Baa    -0.0020    -1.048    -0.374    -0.350  0.6855 -0.6393  0.3484
    19 H(1)   Bbb    -0.0007    -0.384    -0.137    -0.128 -0.4245  0.0377  0.9046
              Bcc     0.0027     1.432     0.511     0.478  0.5914  0.7680  0.2456
 
              Baa    -0.0033    -1.764    -0.630    -0.589  0.0300 -0.5016  0.8646
    20 H(1)   Bbb    -0.0017    -0.888    -0.317    -0.296  0.7902 -0.5179 -0.3278
              Bcc     0.0050     2.652     0.946     0.885  0.6122  0.6930  0.3808
 
              Baa    -0.0044    -2.330    -0.832    -0.777 -0.0859  0.7468  0.6595
    21 H(1)   Bbb    -0.0016    -0.851    -0.304    -0.284  0.7645 -0.3750  0.5242
              Bcc     0.0060     3.181     1.135     1.061  0.6388  0.5493 -0.5387
 

 ---------------------------------------------------------------------------------


 Test job not archived.
 1\1\GINC-SE404\SP\UHF\Aug-CC-pVDZ\C7H13S1(2)\OHZDE\09-Apr-2025\0\\#t h
 f aug-cc-pvdz iop(5/13=1,5/36=2,99/5=2) pseudo=read geom=check guess=(
 read,tcheck) scf=(maxcycle=1)\\title\\0,2\C,0,-0.496463,-0.954416,0.05
 9733\C,0,0.745777,-1.436653,-0.616916\C,0,2.00947,-0.677536,-0.151529\
 H,0,0.647801,-1.334203,-1.7009\H,0,0.893652,-2.503021,-0.409898\C,0,1.
 932314,0.794558,-0.413261\H,0,2.874148,-1.097539,-0.677542\H,0,2.17222
 3,-0.851898,0.915854\S,0,-1.569833,0.07472,-0.842651\C,0,-1.999061,1.3
 83377,0.343564\H,0,-2.66614,2.066865,-0.180453\H,0,-1.101831,1.918116,
 0.653494\H,0,-2.519333,0.982949,1.211942\C,0,-0.689235,-1.179533,1.520
 718\H,0,-1.743021,-1.320077,1.775099\H,0,-0.318069,-0.343559,2.129809\
 H,0,-0.145561,-2.07249,1.840931\C,0,2.018108,1.736345,0.515421\H,0,1.9
 55806,2.788774,0.265601\H,0,2.162808,1.486644,1.562\H,0,1.779379,1.087
 069,-1.449904\\Version=ES64L-G16RevC.01\State=2-A\HF=-671.7540173\S2=0
 .773731\S2-1=0.\S2A=0.750426\RMSD=4.635e-01\Dipole=-0.0342305,0.003770
 1,-0.1524158\Quadrupole=-1.7030269,0.5579938,1.1450331,-2.3109024,0.10
 69047,-0.1792939\PG=C01 [X(C7H13S1)]\\@


 THE ATTENTION SPAN OF A COMPUTER IS AS LONG
 AS ITS EXTENSION CORD.
 Job cpu time:       0 days  0 hours  2 minutes 45.0 seconds.
 Elapsed time:       0 days  0 hours  0 minutes 11.8 seconds.
 File lengths (MBytes):  RWF=     19 Int=      0 D2E=      0 Chk=     15 Scr=      1
 Normal termination of Gaussian 16 at Wed Apr  9 01:06:09 2025.
